 vasp.6.2.0 18Jan21 (build Mar 17 2021 09:06:54) complex                        
  
 executed on             LinuxIFC date 2021.06.11  11:31:01
 serial version


--------------------------------------------------------------------------------------------------------


 INCAR:
   ENCUT = 270.000000
   SIGMA = 0.200000
   EDIFF = 1.00e-06
   GGA = PE
   PREC = normal
   IBRION = -1
   ICHARG = 1
   ISMEAR = 1
   KPAR = 1
   NBANDS = 30
   NSW = 0
   NCORE = 1
   LCHARG = .TRUE.

 POTCAR:    PAW_PBE Pd 04Jan2005                  
 POTCAR:    PAW_PBE Ir 06Sep2000                  
 POTCAR:    PAW_PBE Pt 04Feb2005                  
 POTCAR:    PAW_PBE Cu 22Jun2005                  
 POTCAR:    PAW_PBE Pd 04Jan2005                  
   SHA256 =  dd6f6f02930356371984e2b707ff5e456046761dc76b07c1eba30abd15eb3c39 Pd/POTCAR             
   COPYR  = (c) Copyright 04Jan2005 Georg Kresse                                                    
   COPYR  = This file is part of the software VASP. Any use, copying, and all other rights are regul
   COPYR  = If you do not have a valid VASP license, you may not use, copy or distribute this file. 
   VRHFIN =Pd : s1 d9                                                                               
   LEXCH  = PE                                                                                      
   EATOM  =   809.7530 eV,   59.5152 Ry                                                             
                                                                                                    
   TITEL  = PAW_PBE Pd 04Jan2005                                                                    
   LULTRA =        F    use ultrasoft PP ?                                                          
   IUNSCR =        1    unscreen: 0-lin 1-nonlin 2-no                                               
   RPACOR =    2.000    partial core radius                                                         
   POMASS =  106.420; ZVAL   =   10.000    mass and valenz                                          
   RCORE  =    2.600    outmost cutoff radius                                                       
   RWIGS  =    2.710; RWIGS  =    1.434    wigner-seitz radius (au A)                               
   ENMAX  =  250.925; ENMIN  =  188.194 eV                                                          
   ICORE  =        3    local potential                                                             
   LCOR   =        T    correct aug charges                                                         
   LPAW   =        T    paw PP                                                                      
   EAUG   =  416.230                                                                                
   DEXC   =    0.000                                                                                
   RMAX   =    2.653    core radius for proj-oper                                                   
   RAUG   =    1.300    factor for augmentation sphere                                              
   RDEP   =    2.734    radius for radial grids                                                     
   RDEPT  =    2.103    core radius for aug-charge                                                  
                                                                                                    
   Atomic configuration                                                                             
   12 entries                                                                                       
     n  l   j            E        occ.                                                              
     1  0  0.50    -24164.6631   2.0000                                                             
     2  0  0.50     -3530.9218   2.0000                                                             
     2  1  1.50     -3165.6822   6.0000                                                             
     3  0  0.50      -639.4577   2.0000                                                             
     3  1  1.50      -519.4532   6.0000                                                             
     3  2  2.50      -328.9757  10.0000                                                             
     4  0  0.50       -88.7014   2.0000                                                             
     4  1  1.50       -54.4540   6.0000                                                             
     4  2  2.50        -6.6878   9.0000                                                             
     5  0  0.50        -4.3543   1.0000                                                             
     5  1  0.50        -1.3606   0.0000                                                             
     4  3  2.50        -1.3606   0.0000                                                             
   Description                                                                                      
     l       E           TYP  RCUT    TYP  RCUT                                                     
     2     -6.6878251     23  2.400                                                                 
     2     -8.0484077     23  2.400                                                                 
     0     -4.3542939     23  2.400                                                                 
     0      4.3406793     23  2.400                                                                 
     1     -4.0817478     23  2.600                                                                 
     1     15.8380318     23  2.600                                                                 
     3     -4.0817478     23  2.400                                                                 
  local pseudopotential read in
  partial core-charges read in
  partial kinetic energy density read in
  atomic valenz-charges read in
  non local Contribution for L=           2  read in
    real space projection operators read in
  non local Contribution for L=           2  read in
    real space projection operators read in
  non local Contribution for L=           0  read in
    real space projection operators read in
  non local Contribution for L=           0  read in
    real space projection operators read in
  non local Contribution for L=           1  read in
    real space projection operators read in
  non local Contribution for L=           1  read in
    real space projection operators read in
    PAW grid and wavefunctions read in
 
   number of l-projection  operators is LMAX  =           6
   number of lm-projection operators is LMMAX =          18
 
 POTCAR:    PAW_PBE Ir 06Sep2000                  
   SHA256 =  7c6af8d4d487b237782eb51e6f62977b27a1da78c3c96acd1cebefd6c308f120 Ir/POTCAR             
   COPYR  = (c) Copyright 06Sep2000 Georg Kresse                                                    
   COPYR  = This file is part of the software VASP. Any use, copying, and all other rights are regul
   COPYR  = If you do not have a valid VASP license, you may not use, copy or distribute this file. 
   VRHFIN =Ir: s1d8                                                                                 
   LEXCH  = PE                                                                                      
   EATOM  =   560.1833 eV,   41.1723 Ry                                                             
                                                                                                    
   TITEL  = PAW_PBE Ir 06Sep2000                                                                    
   LULTRA =        F    use ultrasoft PP ?                                                          
   IUNSCR =        1    unscreen: 0-lin 1-nonlin 2-no                                               
   RPACOR =    2.250    partial core radius                                                         
   POMASS =  192.220; ZVAL   =    9.000    mass and valenz                                          
   RCORE  =    2.600    outmost cutoff radius                                                       
   RWIGS  =    2.690; RWIGS  =    1.423    wigner-seitz radius (au A)                               
   ENMAX  =  210.864; ENMIN  =  158.148 eV                                                          
   RCLOC  =    1.857    cutoff for local pot                                                        
   LCOR   =        T    correct aug charges                                                         
   LPAW   =        T    paw PP                                                                      
   EAUG   =  318.962                                                                                
   DEXC   =    0.000                                                                                
   RMAX   =    2.667    core radius for proj-oper                                                   
   RAUG   =    1.300    factor for augmentation sphere                                              
   RDEP   =    2.748    radius for radial grids                                                     
   RDEPT  =    2.300    core radius for aug-charge                                                  
                                                                                                    
   Atomic configuration                                                                             
   16 entries                                                                                       
     n  l   j            E        occ.                                                              
     1  0  0.50    -76100.0449   2.0000                                                             
     2  0  0.50    -13308.1683   2.0000                                                             
     2  1  1.50    -11558.0021   6.0000                                                             
     3  0  0.50     -3110.7274   2.0000                                                             
     3  1  1.50     -2599.2109   6.0000                                                             
     3  2  2.50     -2037.1515  10.0000                                                             
     4  0  0.50      -661.6001   2.0000                                                             
     4  1  1.50      -493.8981   6.0000                                                             
     4  2  2.50      -288.1909  10.0000                                                             
     4  3  3.50       -59.5718  14.0000                                                             
     5  0  0.50       -95.3879   2.0000                                                             
     5  1  1.50       -52.2747   6.0000                                                             
     5  2  2.50        -5.4180   8.0000                                                             
     6  0  0.50        -5.5479   1.0000                                                             
     6  1  1.50        -6.8029   0.0000                                                             
     5  3  2.50        -1.3606   0.0000                                                             
   Description                                                                                      
     l       E           TYP  RCUT    TYP  RCUT                                                     
     2     -5.4179967     23  2.600                                                                 
     2     -6.7785793     23  2.600                                                                 
     0     -5.5478636     23  2.600                                                                 
     0      2.2542272     23  2.600                                                                 
     1     -2.7211652     23  2.600                                                                 
     1     20.4087390     23  2.600                                                                 
  local pseudopotential read in
  partial core-charges read in
  partial kinetic energy density read in
  atomic valenz-charges read in
  non local Contribution for L=           2  read in
    real space projection operators read in
  non local Contribution for L=           2  read in
    real space projection operators read in
  non local Contribution for L=           0  read in
    real space projection operators read in
  non local Contribution for L=           0  read in
    real space projection operators read in
  non local Contribution for L=           1  read in
    real space projection operators read in
  non local Contribution for L=           1  read in
    real space projection operators read in
    PAW grid and wavefunctions read in
 
   number of l-projection  operators is LMAX  =           6
   number of lm-projection operators is LMMAX =          18
 
 POTCAR:    PAW_PBE Pt 04Feb2005                  
   SHA256 =  3ed90460adef76debcff1cfb73ee1349b515b1a3db03439735b44de3a8db7dc8 Pt/POTCAR             
   COPYR  = (c) Copyright 04Feb2005 Georg Kresse                                                    
   COPYR  = This file is part of the software VASP. Any use, copying, and all other rights are regul
   COPYR  = If you do not have a valid VASP license, you may not use, copy or distribute this file. 
   VRHFIN =Pt: s1d9                                                                                 
   LEXCH  = PE                                                                                      
   EATOM  =   729.1176 eV,   53.5886 Ry                                                             
                                                                                                    
   TITEL  = PAW_PBE Pt 04Feb2005                                                                    
   LULTRA =        F    use ultrasoft PP ?                                                          
   IUNSCR =        1    unscreen: 0-lin 1-nonlin 2-no                                               
   RPACOR =    2.330    partial core radius                                                         
   POMASS =  195.080; ZVAL   =   10.000    mass and valenz                                          
   RCORE  =    2.600    outmost cutoff radius                                                       
   RWIGS  =    2.750; RWIGS  =    1.455    wigner-seitz radius (au A)                               
   ENMAX  =  230.283; ENMIN  =  172.712 eV                                                          
   ICORE  =        3    local potential                                                             
   LCOR   =        T    correct aug charges                                                         
   LPAW   =        T    paw PP                                                                      
   EAUG   =  358.966                                                                                
   DEXC   =    0.000                                                                                
   RMAX   =    2.658    core radius for proj-oper                                                   
   RAUG   =    1.300    factor for augmentation sphere                                              
   RDEP   =    2.761    radius for radial grids                                                     
   RDEPT  =    2.203    core radius for aug-charge                                                  
                                                                                                    
   Atomic configuration                                                                             
   16 entries                                                                                       
     n  l   j            E        occ.                                                              
     1  0  0.50    -78401.1885   2.0000                                                             
     2  0  0.50    -13770.7750   2.0000                                                             
     2  1  1.50    -11931.0468   6.0000                                                             
     3  0  0.50     -3234.7234   2.0000                                                             
     3  1  1.50     -2699.2216   6.0000                                                             
     3  2  2.50     -2119.5714  10.0000                                                             
     4  0  0.50      -695.1528   2.0000                                                             
     4  1  1.50      -519.6034   6.0000                                                             
     4  2  2.50      -306.6786  10.0000                                                             
     4  3  3.50       -70.1041  14.0000                                                             
     5  0  0.50      -101.7747   2.0000                                                             
     5  1  1.50       -55.9873   6.0000                                                             
     5  2  2.50        -6.1423   9.0000                                                             
     6  0  0.50        -5.6573   1.0000                                                             
     6  1  1.50        -6.8029   0.0000                                                             
     5  3  2.50        -1.3606   0.0000                                                             
   Description                                                                                      
     l       E           TYP  RCUT    TYP  RCUT                                                     
     2     -6.1423404     23  2.500                                                                 
     2     -7.5029230     23  2.500                                                                 
     0     -5.6573207     23  2.500                                                                 
     0      0.7416693     23  2.500                                                                 
     1     -2.7211652     23  2.600                                                                 
     1     20.4087390     23  2.600                                                                 
     3     -1.3605826     23  2.500                                                                 
  local pseudopotential read in
  partial core-charges read in
  partial kinetic energy density read in
  atomic valenz-charges read in
  non local Contribution for L=           2  read in
    real space projection operators read in
  non local Contribution for L=           2  read in
    real space projection operators read in
  non local Contribution for L=           0  read in
    real space projection operators read in
  non local Contribution for L=           0  read in
    real space projection operators read in
  non local Contribution for L=           1  read in
    real space projection operators read in
  non local Contribution for L=           1  read in
    real space projection operators read in
    PAW grid and wavefunctions read in
 
   number of l-projection  operators is LMAX  =           6
   number of lm-projection operators is LMMAX =          18
 
 POTCAR:    PAW_PBE Cu 22Jun2005                  
   SHA256 =  0e71e558f37a4e8407882b4609ceaae59938afaad9ced71dfe8490308a0ab630 Cu/POTCAR             
   COPYR  = (c) Copyright 22Jun2005 Georg Kresse                                                    
   COPYR  = This file is part of the software VASP. Any use, copying, and all other rights are regul
   COPYR  = If you do not have a valid VASP license, you may not use, copy or distribute this file. 
   VRHFIN =Cu: d10 p1                                                                               
   LEXCH  = PE                                                                                      
   EATOM  =  1390.9808 eV,  102.2342 Ry                                                             
                                                                                                    
   TITEL  = PAW_PBE Cu 22Jun2005                                                                    
   LULTRA =        F    use ultrasoft PP ?                                                          
   IUNSCR =        1    unscreen: 0-lin 1-nonlin 2-no                                               
   RPACOR =    2.000    partial core radius                                                         
   POMASS =   63.546; ZVAL   =   11.000    mass and valenz                                          
   RCORE  =    2.300    outmost cutoff radius                                                       
   RWIGS  =    2.200; RWIGS  =    1.164    wigner-seitz radius (au A)                               
   ENMAX  =  295.446; ENMIN  =  221.585 eV                                                          
   ICORE  =        3    local potential                                                             
   LCOR   =        T    correct aug charges                                                         
   LPAW   =        T    paw PP                                                                      
   EAUG   =  586.980                                                                                
   DEXC   =    0.000                                                                                
   RMAX   =    2.344    core radius for proj-oper                                                   
   RAUG   =    1.300    factor for augmentation sphere                                              
   RDEP   =    2.302    radius for radial grids                                                     
   RDEPT  =    1.771    core radius for aug-charge                                                  
                                                                                                    
   Atomic configuration                                                                             
    9 entries                                                                                       
     n  l   j            E        occ.                                                              
     1  0  0.50     -8850.2468   2.0000                                                             
     2  0  0.50     -1062.3498   2.0000                                                             
     2  1  1.50      -916.8226   6.0000                                                             
     3  0  0.50      -114.6929   2.0000                                                             
     3  1  1.50       -72.1325   6.0000                                                             
     3  2  2.50        -5.0394  10.0000                                                             
     4  0  0.50        -4.6097   1.0000                                                             
     4  1  0.50        -4.0817   0.0000                                                             
     4  3  2.50        -1.3606   0.0000                                                             
   Description                                                                                      
     l       E           TYP  RCUT    TYP  RCUT                                                     
     2     -5.0393973     23  2.200                                                                 
     2     10.8846608     23  2.200                                                                 
     0     -4.6097109     23  2.200                                                                 
     0      8.2520465     23  2.200                                                                 
     1     -2.7211652     23  2.200                                                                 
     1     21.7055443     23  2.200                                                                 
     3      2.7211652     23  2.300                                                                 
  local pseudopotential read in
  partial core-charges read in
  partial kinetic energy density read in
  atomic valenz-charges read in
  non local Contribution for L=           2  read in
    real space projection operators read in
  non local Contribution for L=           2  read in
    real space projection operators read in
  non local Contribution for L=           0  read in
    real space projection operators read in
  non local Contribution for L=           0  read in
    real space projection operators read in
  non local Contribution for L=           1  read in
    real space projection operators read in
  non local Contribution for L=           1  read in
    real space projection operators read in
    PAW grid and wavefunctions read in
 
   number of l-projection  operators is LMAX  =           6
   number of lm-projection operators is LMMAX =          18
 
  PAW_PBE Pd 04Jan2005                  :
 energy of atom  1       EATOM= -809.7530
 kinetic energy error for atom=    0.0525 (will be added to EATOM!!)
  PAW_PBE Ir 06Sep2000                  :
 energy of atom  2       EATOM= -560.1833
 kinetic energy error for atom=    0.0351 (will be added to EATOM!!)
  PAW_PBE Pt 04Feb2005                  :
 energy of atom  3       EATOM= -729.1176
 kinetic energy error for atom=    0.0526 (will be added to EATOM!!)
  PAW_PBE Cu 22Jun2005                  :
 energy of atom  4       EATOM=-1390.9808
 kinetic energy error for atom=    0.1077 (will be added to EATOM!!)
 
 
 POSCAR: Pd Ir Pt Cu
  positions in cartesian coordinates
  No initial velocities read in
 exchange correlation table for  LEXCH =        8
   RHO(1)=    0.500       N(1)  =     2000
   RHO(2)=  100.500       N(2)  =     4000
 


--------------------------------------------------------------------------------------------------------


 ion  position               nearest neighbor table
   1  0.000  0.000  0.000-   2 2.57   3 2.57   4 2.57   3 2.57   4 2.57   2 2.57   4 2.57   4 2.57
                             2 2.57   3 2.57   3 2.57   2 2.57
   2  0.500  0.500  0.000-   1 2.57   3 2.57   4 2.57   3 2.57   4 2.57   1 2.57   3 2.57   3 2.57
                             1 2.57   4 2.57   4 2.57   1 2.57
   3  0.500  0.000  0.500-   1 2.57   2 2.57   4 2.57   1 2.57   2 2.57   2 2.57   4 2.57   2 2.57
                             1 2.57   4 2.57   1 2.57   4 2.57
   4  0.000  0.500  0.500-   1 2.57   2 2.57   3 2.57   1 2.57   2 2.57   1 2.57   3 2.57   1 2.57
                             2 2.57   3 2.57   2 2.57   3 2.57
 
  LATTYP: Found a simple cubic cell.
 ALAT       =     3.6350000000
  
  Lattice vectors:
  
 A1 = (   3.6350000000,   0.0000000000,   0.0000000000)
 A2 = (   0.0000000000,   3.6350000000,   0.0000000000)
 A3 = (   0.0000000000,   0.0000000000,   3.6350000000)


Analysis of symmetry for initial positions (statically):
=====================================================================
 Subroutine PRICEL returns:
 Original cell was already a primitive cell.
 

 Routine SETGRP: Setting up the symmetry group for a 
 simple cubic supercell.


 Subroutine GETGRP returns: Found  8 space group operations
 (whereof  8 operations were pure point group operations)
 out of a pool of 48 trial point group operations.


The static configuration has the point symmetry D_2h.


Analysis of symmetry for dynamics (positions and initial velocities):
=====================================================================
 Subroutine PRICEL returns:
 Original cell was already a primitive cell.
 

 Routine SETGRP: Setting up the symmetry group for a 
 simple cubic supercell.


 Subroutine GETGRP returns: Found  8 space group operations
 (whereof  8 operations were pure point group operations)
 out of a pool of 48 trial point group operations.


The dynamic configuration has the point symmetry D_2h.


 Subroutine INISYM returns: Found  8 space group operations
 (whereof  8 operations are pure point group operations),
 and found     1 'primitive' translations


----------------------------------------------------------------------------------------

                                     Primitive cell                                     

  volume of cell :      48.0301

  direct lattice vectors                    reciprocal lattice vectors
     3.635000000  0.000000000  0.000000000     0.275103164  0.000000000  0.000000000
     0.000000000  3.635000000  0.000000000     0.000000000  0.275103164  0.000000000
     0.000000000  0.000000000  3.635000000     0.000000000  0.000000000  0.275103164

  length of vectors
     3.635000000  3.635000000  3.635000000     0.275103164  0.275103164  0.275103164

  position of ions in fractional coordinates (direct lattice)
     0.000000000  0.000000000  0.000000000
     0.500000000  0.500000000  0.000000000
     0.500000000  0.000000000  0.500000000
     0.000000000  0.500000000  0.500000000

  ion indices of the primitive-cell ions
   primitive index   ion index
                 1           1
                 2           2
                 3           3
                 4           4

----------------------------------------------------------------------------------------

 
 
 KPOINTS: KPOINTS created by Atomic Simulation Env

Automatic generation of k-mesh.
 Grid dimensions read from file:
 generate k-points for:    5    5    5

 Generating k-lattice:

  Cartesian coordinates                     Fractional coordinates (reciprocal lattice)
     0.055020633  0.000000000  0.000000000     0.200000000  0.000000000  0.000000000
     0.000000000  0.055020633  0.000000000     0.000000000  0.200000000  0.000000000
     0.000000000  0.000000000  0.055020633     0.000000000  0.000000000  0.200000000

  Length of vectors
     0.055020633  0.055020633  0.055020633

  Shift w.r.t. Gamma in fractional coordinates (k-lattice)
     0.000000000  0.000000000  0.000000000

 
 Subroutine IBZKPT returns following result:
 ===========================================
 
 Found     27 irreducible k-points:
 
 Following reciprocal coordinates:
            Coordinates               Weight
  0.000000  0.000000  0.000000      1.000000
  0.200000  0.000000  0.000000      2.000000
  0.000000  0.200000  0.000000      2.000000
  0.000000  0.000000  0.200000      2.000000
  0.400000  0.000000  0.000000      2.000000
  0.000000  0.400000  0.000000      2.000000
  0.000000  0.000000  0.400000      2.000000
  0.200000  0.200000  0.000000      4.000000
  0.000000  0.200000  0.200000      4.000000
  0.200000  0.000000  0.200000      4.000000
  0.400000  0.200000  0.000000      4.000000
  0.000000  0.400000  0.200000      4.000000
  0.200000  0.000000  0.400000      4.000000
 -0.200000  0.400000  0.000000      4.000000
 -0.400000  0.000000  0.200000      4.000000
  0.000000  0.200000  0.400000      4.000000
  0.400000  0.400000  0.000000      4.000000
  0.000000  0.400000  0.400000      4.000000
  0.400000  0.000000  0.400000      4.000000
  0.200000  0.200000  0.200000      8.000000
  0.400000  0.200000  0.200000      8.000000
  0.200000  0.400000  0.200000      8.000000
  0.200000  0.200000  0.400000      8.000000
  0.400000  0.400000  0.200000      8.000000
  0.200000  0.400000  0.400000      8.000000
  0.400000  0.200000  0.400000      8.000000
  0.400000  0.400000  0.400000      8.000000
 
 Following cartesian coordinates:
            Coordinates               Weight
  0.000000  0.000000  0.000000      1.000000
  0.055021  0.000000  0.000000      2.000000
  0.000000  0.055021  0.000000      2.000000
  0.000000  0.000000  0.055021      2.000000
  0.110041  0.000000  0.000000      2.000000
  0.000000  0.110041  0.000000      2.000000
  0.000000  0.000000  0.110041      2.000000
  0.055021  0.055021  0.000000      4.000000
  0.000000  0.055021  0.055021      4.000000
  0.055021  0.000000  0.055021      4.000000
  0.110041  0.055021  0.000000      4.000000
  0.000000  0.110041  0.055021      4.000000
  0.055021  0.000000  0.110041      4.000000
 -0.055021  0.110041  0.000000      4.000000
 -0.110041  0.000000  0.055021      4.000000
  0.000000  0.055021  0.110041      4.000000
  0.110041  0.110041  0.000000      4.000000
  0.000000  0.110041  0.110041      4.000000
  0.110041  0.000000  0.110041      4.000000
  0.055021  0.055021  0.055021      8.000000
  0.110041  0.055021  0.055021      8.000000
  0.055021  0.110041  0.055021      8.000000
  0.055021  0.055021  0.110041      8.000000
  0.110041  0.110041  0.055021      8.000000
  0.055021  0.110041  0.110041      8.000000
  0.110041  0.055021  0.110041      8.000000
  0.110041  0.110041  0.110041      8.000000
 


--------------------------------------------------------------------------------------------------------




 Dimension of arrays:
   k-points           NKPTS =     27   k-points in BZ     NKDIM =     27   number of bands    NBANDS=     30
   number of dos      NEDOS =    301   number of ions     NIONS =      4
   non local maximal  LDIM  =      6   non local SUM 2l+1 LMDIM =     18
   total plane-waves  NPLWV =   4096
   max r-space proj   IRMAX =      1   max aug-charges    IRDMAX=   6366
   dimension x,y,z NGX =    16 NGY =   16 NGZ =   16
   dimension x,y,z NGXF=    32 NGYF=   32 NGZF=   32
   support grid    NGXF=    32 NGYF=   32 NGZF=   32
   ions per type =               1   1   1   1
   NGX,Y,Z   is equivalent  to a cutoff of   7.32,  7.32,  7.32 a.u.
   NGXF,Y,Z  is equivalent  to a cutoff of  14.64, 14.64, 14.64 a.u.

 SYSTEM =  unknown system                          
 POSCAR =  Pd Ir Pt Cu                             

 Startparameter for this run:
   NWRITE =      2    write-flag & timer
   PREC   = normal    normal or accurate (medium, high low for compatibility)
   ISTART =      0    job   : 0-new  1-cont  2-samecut
   ICHARG =      1    charge: 1-file 2-atom 10-const
   ISPIN  =      1    spin polarized calculation?
   LNONCOLLINEAR =      F non collinear calculations
   LSORBIT =      F    spin-orbit coupling
   INIWAV =      1    electr: 0-lowe 1-rand  2-diag
   LASPH  =      F    aspherical Exc in radial PAW
   METAGGA=      F    non-selfconsistent MetaGGA calc.

 Electronic Relaxation 1
   ENCUT  =  270.0 eV  19.84 Ry    4.45 a.u.   4.87  4.87  4.87*2*pi/ulx,y,z
   ENINI  =  270.0     initial cutoff
   ENAUG  =  587.0 eV  augmentation charge cutoff
   NELM   =     60;   NELMIN=  2; NELMDL= -5     # of ELM steps 
   EDIFF  = 0.1E-05   stopping-criterion for ELM
   LREAL  =      F    real-space projection
   NLSPLINE    = F    spline interpolate recip. space projectors
   LCOMPAT=      F    compatible to vasp.4.4
   GGA_COMPAT  = T    GGA compatible to vasp.4.4-vasp.4.6
   LMAXPAW     = -100 max onsite density
   LMAXMIX     =    2 max onsite mixed and CHGCAR
   VOSKOWN=      0    Vosko Wilk Nusair interpolation
   ROPT   =    0.00000   0.00000   0.00000   0.00000
 Ionic relaxation
   EDIFFG = 0.1E-04   stopping-criterion for IOM
   NSW    =      0    number of steps for IOM
   NBLOCK =      1;   KBLOCK =      1    inner block; outer block 
   IBRION =     -1    ionic relax: 0-MD 1-quasi-New 2-CG
   NFREE  =      0    steps in history (QN), initial steepest desc. (CG)
   ISIF   =      2    stress and relaxation
   IWAVPR =      0    prediction:  0-non 1-charg 2-wave 3-comb
   ISYM   =      2    0-nonsym 1-usesym 2-fastsym
   LCORR  =      T    Harris-Foulkes like correction to forces

   POTIM  = 0.5000    time-step for ionic-motion
   TEIN   =    0.0    initial temperature
   TEBEG  =    0.0;   TEEND  =   0.0 temperature during run
   SMASS  =  -3.00    Nose mass-parameter (am)
   estimated Nose-frequenzy (Omega)   =  0.10E-29 period in steps = 0.13E+47 mass=  -0.302E-27a.u.
   SCALEE = 1.0000    scale energy and forces
   NPACO  =    256;   APACO  = 16.0  distance and # of slots for P.C.
   PSTRESS=    0.0 pullay stress

  Mass of Ions in am
   POMASS = 106.42192.22195.08 63.55
  Ionic Valenz
   ZVAL   =  10.00  9.00 10.00 11.00
  Atomic Wigner-Seitz radii
   RWIGS  =  -1.00 -1.00 -1.00 -1.00
  virtual crystal weights 
   VCA    =   1.00  1.00  1.00  1.00
   NELECT =      40.0000    total number of electrons
   NUPDOWN=      -1.0000    fix difference up-down

 DOS related values:
   EMIN   =  10.00;   EMAX   =-10.00  energy-range for DOS
   EFERMI =   0.00
   ISMEAR =     1;   SIGMA  =   0.20  broadening in eV -4-tet -1-fermi 0-gaus

 Electronic relaxation 2 (details)
   IALGO  =     38    algorithm
   LDIAG  =      T    sub-space diagonalisation (order eigenvalues)
   LSUBROT=      F    optimize rotation matrix (better conditioning)
   TURBO    =      0    0=normal 1=particle mesh
   IRESTART =      0    0=no restart 2=restart with 2 vectors
   NREBOOT  =      0    no. of reboots
   NMIN     =      0    reboot dimension
   EREF     =   0.00    reference energy to select bands
   IMIX   =      4    mixing-type and parameters
     AMIX     =   0.40;   BMIX     =  1.00
     AMIX_MAG =   1.60;   BMIX_MAG =  1.00
     AMIN     =   0.10
     WC   =   100.;   INIMIX=   1;  MIXPRE=   1;  MAXMIX= -45

 Intra band minimization:
   WEIMIN = 0.0000     energy-eigenvalue tresh-hold
   EBREAK =  0.83E-08  absolut break condition
   DEPER  =   0.30     relativ break condition  

   TIME   =   0.40     timestep for ELM

  volume/ion in A,a.u.               =      12.01        81.03
  Fermi-wavevector in a.u.,A,eV,Ry     =   1.540247  2.910645 32.277935  2.372361
  Thomas-Fermi vector in A             =   2.646361
 
 Write flags
   LWAVE        =      T    write WAVECAR
   LDOWNSAMPLE  =      F    k-point downsampling of WAVECAR
   LCHARG       =      T    write CHGCAR
   LVTOT        =      F    write LOCPOT, total local potential
   LVHAR        =      F    write LOCPOT, Hartree potential only
   LELF         =      F    write electronic localiz. function (ELF)
   LORBIT       =      0    0 simple, 1 ext, 2 COOP (PROOUT), +10 PAW based schemes


 Dipole corrections
   LMONO  =      F    monopole corrections only (constant potential shift)
   LDIPOL =      F    correct potential (dipole corrections)
   IDIPOL =      0    1-x, 2-y, 3-z, 4-all directions 
   EPSILON=  1.0000000 bulk dielectric constant

 Exchange correlation treatment:
   GGA     =    PE    GGA type
   LEXCH   =     8    internal setting for exchange type
   VOSKOWN=      0    Vosko Wilk Nusair interpolation
   LHFCALC =     F    Hartree Fock is set to
   LHFONE  =     F    Hartree Fock one center treatment
   AEXX    =    0.0000 exact exchange contribution

 Linear response parameters
   LEPSILON=     F    determine dielectric tensor
   LRPA    =     F    only Hartree local field effects (RPA)
   LNABLA  =     F    use nabla operator in PAW spheres
   LVEL    =     F    velocity operator in full k-point grid
   LINTERFAST=   F  fast interpolation
   KINTER  =     0    interpolate to denser k-point grid
   CSHIFT  =0.1000    complex shift for real part using Kramers Kronig
   OMEGAMAX=  -1.0    maximum frequency
   DEG_THRESHOLD= 0.2000000E-02 threshold for treating states as degnerate
   RTIME   =   -0.100 relaxation time in fs
  (WPLASMAI=    0.000 imaginary part of plasma frequency in eV, 0.658/RTIME)
   DFIELD  = 0.0000000 0.0000000 0.0000000 field for delta impulse in time
 
 Orbital magnetization related:
   ORBITALMAG=     F  switch on orbital magnetization
   LCHIMAG   =     F  perturbation theory with respect to B field
   DQ        =  0.001000  dq finite difference perturbation B field
   LLRAUG    =     F  two centre corrections for induced B field



--------------------------------------------------------------------------------------------------------


 Static calculation
 charge density and potential will be updated during run
 non-spin polarized calculation
 Variant of blocked Davidson
 Davidson routine will perform the subspace rotation
 perform sub-space diagonalisation
    after iterative eigenvector-optimisation
 modified Broyden-mixing scheme, WC =      100.0
 initial mixing is a Kerker type mixing with AMIX =  0.4000 and BMIX =      1.0000
 Hartree-type preconditioning will be used
 using additional bands           10
 reciprocal scheme for non local part
 use partial core corrections
 calculate Harris-corrections to forces 
   (improved forces if not selfconsistent)
 use gradient corrections 
 use of overlap-Matrix (Vanderbilt PP)
 Methfessel and Paxton  Order N= 1 SIGMA  =   0.20


--------------------------------------------------------------------------------------------------------


  energy-cutoff  :      270.00
  volume of cell :       48.03
      direct lattice vectors                 reciprocal lattice vectors
     3.635000000  0.000000000  0.000000000     0.275103164  0.000000000  0.000000000
     0.000000000  3.635000000  0.000000000     0.000000000  0.275103164  0.000000000
     0.000000000  0.000000000  3.635000000     0.000000000  0.000000000  0.275103164

  length of vectors
     3.635000000  3.635000000  3.635000000     0.275103164  0.275103164  0.275103164


 
 k-points in units of 2pi/SCALE and weight: KPOINTS created by Atomic Simulation Env
   0.00000000  0.00000000  0.00000000       0.008
   0.05502063  0.00000000  0.00000000       0.016
   0.00000000  0.05502063  0.00000000       0.016
   0.00000000  0.00000000  0.05502063       0.016
   0.11004127  0.00000000  0.00000000       0.016
   0.00000000  0.11004127  0.00000000       0.016
   0.00000000  0.00000000  0.11004127       0.016
   0.05502063  0.05502063  0.00000000       0.032
   0.00000000  0.05502063  0.05502063       0.032
   0.05502063  0.00000000  0.05502063       0.032
   0.11004127  0.05502063  0.00000000       0.032
   0.00000000  0.11004127  0.05502063       0.032
   0.05502063  0.00000000  0.11004127       0.032
  -0.05502063  0.11004127  0.00000000       0.032
  -0.11004127  0.00000000  0.05502063       0.032
   0.00000000  0.05502063  0.11004127       0.032
   0.11004127  0.11004127  0.00000000       0.032
   0.00000000  0.11004127  0.11004127       0.032
   0.11004127  0.00000000  0.11004127       0.032
   0.05502063  0.05502063  0.05502063       0.064
   0.11004127  0.05502063  0.05502063       0.064
   0.05502063  0.11004127  0.05502063       0.064
   0.05502063  0.05502063  0.11004127       0.064
   0.11004127  0.11004127  0.05502063       0.064
   0.05502063  0.11004127  0.11004127       0.064
   0.11004127  0.05502063  0.11004127       0.064
   0.11004127  0.11004127  0.11004127       0.064
 
 k-points in reciprocal lattice and weights: KPOINTS created by Atomic Simulation Env
   0.00000000  0.00000000  0.00000000       0.008
   0.20000000  0.00000000  0.00000000       0.016
   0.00000000  0.20000000  0.00000000       0.016
   0.00000000  0.00000000  0.20000000       0.016
   0.40000000  0.00000000  0.00000000       0.016
   0.00000000  0.40000000  0.00000000       0.016
   0.00000000  0.00000000  0.40000000       0.016
   0.20000000  0.20000000  0.00000000       0.032
   0.00000000  0.20000000  0.20000000       0.032
   0.20000000  0.00000000  0.20000000       0.032
   0.40000000  0.20000000  0.00000000       0.032
   0.00000000  0.40000000  0.20000000       0.032
   0.20000000  0.00000000  0.40000000       0.032
  -0.20000000  0.40000000  0.00000000       0.032
  -0.40000000  0.00000000  0.20000000       0.032
   0.00000000  0.20000000  0.40000000       0.032
   0.40000000  0.40000000  0.00000000       0.032
   0.00000000  0.40000000  0.40000000       0.032
   0.40000000  0.00000000  0.40000000       0.032
   0.20000000  0.20000000  0.20000000       0.064
   0.40000000  0.20000000  0.20000000       0.064
   0.20000000  0.40000000  0.20000000       0.064
   0.20000000  0.20000000  0.40000000       0.064
   0.40000000  0.40000000  0.20000000       0.064
   0.20000000  0.40000000  0.40000000       0.064
   0.40000000  0.20000000  0.40000000       0.064
   0.40000000  0.40000000  0.40000000       0.064
 
 position of ions in fractional coordinates (direct lattice) 
   0.00000000  0.00000000  0.00000000
   0.50000000  0.50000000  0.00000000
   0.50000000  0.00000000  0.50000000
   0.00000000  0.50000000  0.50000000
 
 position of ions in cartesian coordinates  (Angst):
   0.00000000  0.00000000  0.00000000
   1.81750000  1.81750000  0.00000000
   1.81750000  0.00000000  1.81750000
   0.00000000  1.81750000  1.81750000
 


--------------------------------------------------------------------------------------------------------


 k-point   1 :   0.0000 0.0000 0.0000  plane waves:     461
 k-point   2 :   0.2000 0.0000 0.0000  plane waves:     478
 k-point   3 :   0.0000 0.2000 0.0000  plane waves:     478
 k-point   4 :   0.0000 0.0000 0.2000  plane waves:     478
 k-point   5 :   0.4000 0.0000 0.0000  plane waves:     478
 k-point   6 :   0.0000 0.4000 0.0000  plane waves:     478
 k-point   7 :   0.0000 0.0000 0.4000  plane waves:     478
 k-point   8 :   0.2000 0.2000 0.0000  plane waves:     479
 k-point   9 :   0.0000 0.2000 0.2000  plane waves:     479
 k-point  10 :   0.2000 0.0000 0.2000  plane waves:     479
 k-point  11 :   0.4000 0.2000 0.0000  plane waves:     486
 k-point  12 :   0.0000 0.4000 0.2000  plane waves:     486
 k-point  13 :   0.2000 0.0000 0.4000  plane waves:     486
 k-point  14 :  -0.2000 0.4000 0.0000  plane waves:     486
 k-point  15 :  -0.4000 0.0000 0.2000  plane waves:     486
 k-point  16 :   0.0000 0.2000 0.4000  plane waves:     486
 k-point  17 :   0.4000 0.4000 0.0000  plane waves:     483
 k-point  18 :   0.0000 0.4000 0.4000  plane waves:     483
 k-point  19 :   0.4000 0.0000 0.4000  plane waves:     483
 k-point  20 :   0.2000 0.2000 0.2000  plane waves:     474
 k-point  21 :   0.4000 0.2000 0.2000  plane waves:     481
 k-point  22 :   0.2000 0.4000 0.2000  plane waves:     481
 k-point  23 :   0.2000 0.2000 0.4000  plane waves:     481
 k-point  24 :   0.4000 0.4000 0.2000  plane waves:     487
 k-point  25 :   0.2000 0.4000 0.4000  plane waves:     487
 k-point  26 :   0.4000 0.2000 0.4000  plane waves:     487
 k-point  27 :   0.4000 0.4000 0.4000  plane waves:     480

 maximum number of plane-waves:       487
 maximum index in each direction: 
   IXMAX=    5   IYMAX=    4   IZMAX=    4
   IXMIN=   -5   IYMIN=   -5   IZMIN=   -5


 total amount of memory used by VASP MPI-rank0    47551. kBytes
=======================================================================

   base      :      30000. kBytes
   nonl-proj :       7604. kBytes
   grid      :       2641. kBytes
   one-center:         62. kBytes
   wavefun   :       7244. kBytes
 
     INWAV:  cpu time    0.0000: real time    0.0000
 Broyden mixing: mesh for mixing (old mesh)
   NGX =  9   NGY =  9   NGZ =  9
  (NGX  = 32   NGY  = 32   NGZ  = 32)
  gives a total of    729 points

 initial charge density was supplied:
 charge density of overlapping atoms calculated
 number of electron      40.0000000 magnetization 
 keeping initial charge density in first step


--------------------------------------------------------------------------------------------------------


 Maximum index for augmentation-charges         6031 (set IRDMAX)


--------------------------------------------------------------------------------------------------------


 First call to EWALD:  gamma=   0.488
 Maximum number of real-space cells 3x 3x 3
 Maximum number of reciprocal cells 3x 3x 3

    FEWALD:  cpu time    0.0009: real time    0.0009


--------------------------------------- Iteration      1(   1)  ---------------------------------------


    POTLOK:  cpu time    0.0082: real time    0.0082
    SETDIJ:  cpu time    0.0044: real time    0.0044
     EDDAV:  cpu time    0.3172: real time    0.3393
       DOS:  cpu time    0.0019: real time    0.0019
    --------------------------------------------
      LOOP:  cpu time    0.3316: real time    0.3538

 eigenvalue-minimisations  :  1692
 total energy-change (2. order) : 0.2305771E+03  (-0.1198523E+04)
 number of electron      40.0000000 magnetization 
 augmentation part       40.0000000 magnetization 

 Free energy of the ion-electron system (eV)
  ---------------------------------------------------
  alpha Z        PSCENC =       294.32394985
  Ewald energy   TEWEN  =     -3641.45145672
  -Hartree energ DENC   =      -571.19890525
  -exchange      EXHF   =         0.00000000
  -V(xc)+E(xc)   XCENC  =         6.42737968
  PAW double counting   =      3282.45812088    -3257.47686163
  entropy T*S    EENTRO =         0.00219434
  eigenvalues    EBANDS =       627.70599174
  atomic energy  EATOM  =      3489.78669473
  Solvation  Ediel_sol  =         0.00000000
  ---------------------------------------------------
  free energy    TOTEN  =       230.57710761 eV

  energy without entropy =      230.57491326  energy(sigma->0) =      230.57637616


--------------------------------------------------------------------------------------------------------




--------------------------------------- Iteration      1(   2)  ---------------------------------------


     EDDAV:  cpu time    0.3105: real time    0.3105
       DOS:  cpu time    0.0022: real time    0.0022
    --------------------------------------------
      LOOP:  cpu time    0.3127: real time    0.3128

 eigenvalue-minimisations  :  1722
 total energy-change (2. order) :-0.2429445E+03  (-0.2285396E+03)
 number of electron      40.0000000 magnetization 
 augmentation part       40.0000000 magnetization 

 Free energy of the ion-electron system (eV)
  ---------------------------------------------------
  alpha Z        PSCENC =       294.32394985
  Ewald energy   TEWEN  =     -3641.45145672
  -Hartree energ DENC   =      -571.19890525
  -exchange      EXHF   =         0.00000000
  -V(xc)+E(xc)   XCENC  =         6.42737968
  PAW double counting   =      3282.45812088    -3257.47686163
  entropy T*S    EENTRO =        -0.00856955
  eigenvalues    EBANDS =       384.77223555
  atomic energy  EATOM  =      3489.78669473
  Solvation  Ediel_sol  =         0.00000000
  ---------------------------------------------------
  free energy    TOTEN  =       -12.36741247 eV

  energy without entropy =      -12.35884293  energy(sigma->0) =      -12.36455596


--------------------------------------------------------------------------------------------------------




--------------------------------------- Iteration      1(   3)  ---------------------------------------


     EDDAV:  cpu time    0.3349: real time    0.3349
       DOS:  cpu time    0.0023: real time    0.0023
    --------------------------------------------
      LOOP:  cpu time    0.3372: real time    0.3372

 eigenvalue-minimisations  :  1856
 total energy-change (2. order) :-0.1149702E+02  (-0.1115305E+02)
 number of electron      40.0000000 magnetization 
 augmentation part       40.0000000 magnetization 

 Free energy of the ion-electron system (eV)
  ---------------------------------------------------
  alpha Z        PSCENC =       294.32394985
  Ewald energy   TEWEN  =     -3641.45145672
  -Hartree energ DENC   =      -571.19890525
  -exchange      EXHF   =         0.00000000
  -V(xc)+E(xc)   XCENC  =         6.42737968
  PAW double counting   =      3282.45812088    -3257.47686163
  entropy T*S    EENTRO =        -0.01227265
  eigenvalues    EBANDS =       373.27891588
  atomic energy  EATOM  =      3489.78669473
  Solvation  Ediel_sol  =         0.00000000
  ---------------------------------------------------
  free energy    TOTEN  =       -23.86443524 eV

  energy without entropy =      -23.85216259  energy(sigma->0) =      -23.86034436


--------------------------------------------------------------------------------------------------------




--------------------------------------- Iteration      1(   4)  ---------------------------------------


     EDDAV:  cpu time    0.3486: real time    0.3486
       DOS:  cpu time    0.0023: real time    0.0023
    --------------------------------------------
      LOOP:  cpu time    0.3508: real time    0.3509

 eigenvalue-minimisations  :  2026
 total energy-change (2. order) :-0.2706287E+00  (-0.2703021E+00)
 number of electron      40.0000000 magnetization 
 augmentation part       40.0000000 magnetization 

 Free energy of the ion-electron system (eV)
  ---------------------------------------------------
  alpha Z        PSCENC =       294.32394985
  Ewald energy   TEWEN  =     -3641.45145672
  -Hartree energ DENC   =      -571.19890525
  -exchange      EXHF   =         0.00000000
  -V(xc)+E(xc)   XCENC  =         6.42737968
  PAW double counting   =      3282.45812088    -3257.47686163
  entropy T*S    EENTRO =        -0.01246921
  eigenvalues    EBANDS =       373.00848377
  atomic energy  EATOM  =      3489.78669473
  Solvation  Ediel_sol  =         0.00000000
  ---------------------------------------------------
  free energy    TOTEN  =       -24.13506392 eV

  energy without entropy =      -24.12259470  energy(sigma->0) =      -24.13090751


--------------------------------------------------------------------------------------------------------




--------------------------------------- Iteration      1(   5)  ---------------------------------------


     EDDAV:  cpu time    0.4576: real time    0.4576
       DOS:  cpu time    0.0024: real time    0.0024
    CHARGE:  cpu time    0.0248: real time    0.0248
    MIXING:  cpu time    0.0003: real time    0.0003
    --------------------------------------------
      LOOP:  cpu time    0.4850: real time    0.4851

 eigenvalue-minimisations  :  2258
 total energy-change (2. order) :-0.1133052E-01  (-0.1132937E-01)
 number of electron      40.0000173 magnetization 
 augmentation part       15.6999205 magnetization 

 Broyden mixing:
  rms(total) = 0.32642E+01    rms(broyden)= 0.32635E+01
  rms(prec ) = 0.43381E+01
  weight for this iteration     100.00

 Free energy of the ion-electron system (eV)
  ---------------------------------------------------
  alpha Z        PSCENC =       294.32394985
  Ewald energy   TEWEN  =     -3641.45145672
  -Hartree energ DENC   =      -571.19890525
  -exchange      EXHF   =         0.00000000
  -V(xc)+E(xc)   XCENC  =         6.42737968
  PAW double counting   =      3282.45812088    -3257.47686163
  entropy T*S    EENTRO =        -0.01247268
  eigenvalues    EBANDS =       372.99715672
  atomic energy  EATOM  =      3489.78669473
  Solvation  Ediel_sol  =         0.00000000
  ---------------------------------------------------
  free energy    TOTEN  =       -24.14639444 eV

  energy without entropy =      -24.13392175  energy(sigma->0) =      -24.14223687


--------------------------------------------------------------------------------------------------------




--------------------------------------- Iteration      1(   6)  ---------------------------------------


    POTLOK:  cpu time    0.0076: real time    0.0076
    SETDIJ:  cpu time    0.0044: real time    0.0044
     EDDAV:  cpu time    0.3373: real time    0.3374
       DOS:  cpu time    0.0023: real time    0.0023
    CHARGE:  cpu time    0.0239: real time    0.0239
    MIXING:  cpu time    0.0003: real time    0.0003
    --------------------------------------------
      LOOP:  cpu time    0.3759: real time    0.3759

 eigenvalue-minimisations  :  1892
 total energy-change (2. order) :-0.1167679E+01  (-0.4191281E+01)
 number of electron      40.0000214 magnetization 
 augmentation part       16.9194327 magnetization 

 Broyden mixing:
  rms(total) = 0.16680E+01    rms(broyden)= 0.16672E+01
  rms(prec ) = 0.32173E+01
  weight for this iteration     100.00

 eigenvalues of (default mixing * dielectric matrix)
  average eigenvalue GAMMA=   1.0430
  1.0430

 Free energy of the ion-electron system (eV)
  ---------------------------------------------------
  alpha Z        PSCENC =       294.32394985
  Ewald energy   TEWEN  =     -3641.45145672
  -Hartree energ DENC   =      -513.10315170
  -exchange      EXHF   =         0.00000000
  -V(xc)+E(xc)   XCENC  =         4.10905762
  PAW double counting   =      3770.47706028    -3742.43394190
  entropy T*S    EENTRO =         0.00561335
  eigenvalues    EBANDS =       312.97210057
  atomic energy  EATOM  =      3489.78669473
  Solvation  Ediel_sol  =         0.00000000
  ---------------------------------------------------
  free energy    TOTEN  =       -25.31407393 eV

  energy without entropy =      -25.31968728  energy(sigma->0) =      -25.31594504


--------------------------------------------------------------------------------------------------------




--------------------------------------- Iteration      1(   7)  ---------------------------------------


    POTLOK:  cpu time    0.0076: real time    0.0076
    SETDIJ:  cpu time    0.0044: real time    0.0044
     EDDAV:  cpu time    0.3718: real time    0.3718
       DOS:  cpu time    0.0024: real time    0.0024
    CHARGE:  cpu time    0.0239: real time    0.0239
    MIXING:  cpu time    0.0004: real time    0.0004
    --------------------------------------------
      LOOP:  cpu time    0.4104: real time    0.4105

 eigenvalue-minimisations  :  2138
 total energy-change (2. order) : 0.3435495E+01  (-0.1007326E+01)
 number of electron      40.0000190 magnetization 
 augmentation part       16.6721207 magnetization 

 Broyden mixing:
  rms(total) = 0.10701E+01    rms(broyden)= 0.10699E+01
  rms(prec ) = 0.11515E+01
  weight for this iteration     100.00

 eigenvalues of (default mixing * dielectric matrix)
  average eigenvalue GAMMA=   1.2060
  1.8997  0.5123

 Free energy of the ion-electron system (eV)
  ---------------------------------------------------
  alpha Z        PSCENC =       294.32394985
  Ewald energy   TEWEN  =     -3641.45145672
  -Hartree energ DENC   =      -528.13470431
  -exchange      EXHF   =         0.00000000
  -V(xc)+E(xc)   XCENC  =         4.93461299
  PAW double counting   =      3974.26708000    -3959.10957442
  entropy T*S    EENTRO =        -0.00876211
  eigenvalues    EBANDS =       343.51358067
  atomic energy  EATOM  =      3489.78669473
  Solvation  Ediel_sol  =         0.00000000
  ---------------------------------------------------
  free energy    TOTEN  =       -21.87857934 eV

  energy without entropy =      -21.86981722  energy(sigma->0) =      -21.87565863


--------------------------------------------------------------------------------------------------------




--------------------------------------- Iteration      1(   8)  ---------------------------------------


    POTLOK:  cpu time    0.0077: real time    0.0077
    SETDIJ:  cpu time    0.0044: real time    0.0044
     EDDAV:  cpu time    0.3836: real time    0.3836
       DOS:  cpu time    0.0023: real time    0.0023
    CHARGE:  cpu time    0.0230: real time    0.0230
    MIXING:  cpu time    0.0003: real time    0.0003
    --------------------------------------------
      LOOP:  cpu time    0.4215: real time    0.4215

 eigenvalue-minimisations  :  2296
 total energy-change (2. order) :-0.3449509E-01  (-0.8789090E-01)
 number of electron      40.0000188 magnetization 
 augmentation part       16.7203213 magnetization 

 Broyden mixing:
  rms(total) = 0.47156E+00    rms(broyden)= 0.47150E+00
  rms(prec ) = 0.78822E+00
  weight for this iteration     100.00

 eigenvalues of (default mixing * dielectric matrix)
  average eigenvalue GAMMA=   1.2508
  0.6206  0.7962  2.3356

 Free energy of the ion-electron system (eV)
  ---------------------------------------------------
  alpha Z        PSCENC =       294.32394985
  Ewald energy   TEWEN  =     -3641.45145672
  -Hartree energ DENC   =      -520.91296502
  -exchange      EXHF   =         0.00000000
  -V(xc)+E(xc)   XCENC  =         4.72366455
  PAW double counting   =      4374.18381662    -4364.62590060
  entropy T*S    EENTRO =        -0.00736228
  eigenvalues    EBANDS =       342.06648445
  atomic energy  EATOM  =      3489.78669473
  Solvation  Ediel_sol  =         0.00000000
  ---------------------------------------------------
  free energy    TOTEN  =       -21.91307442 eV

  energy without entropy =      -21.90571214  energy(sigma->0) =      -21.91062033


--------------------------------------------------------------------------------------------------------




--------------------------------------- Iteration      1(   9)  ---------------------------------------


    POTLOK:  cpu time    0.0075: real time    0.0075
    SETDIJ:  cpu time    0.0043: real time    0.0043
     EDDAV:  cpu time    0.3568: real time    0.3568
       DOS:  cpu time    0.0023: real time    0.0023
    CHARGE:  cpu time    0.0234: real time    0.0234
    MIXING:  cpu time    0.0004: real time    0.0004
    --------------------------------------------
      LOOP:  cpu time    0.3946: real time    0.3946

 eigenvalue-minimisations  :  2168
 total energy-change (2. order) : 0.6684501E-01  (-0.4779402E-01)
 number of electron      40.0000193 magnetization 
 augmentation part       16.8590039 magnetization 

 Broyden mixing:
  rms(total) = 0.13853E+00    rms(broyden)= 0.13812E+00
  rms(prec ) = 0.31874E+00
  weight for this iteration     100.00

 eigenvalues of (default mixing * dielectric matrix)
  average eigenvalue GAMMA=   1.2039
  2.4400  1.1755  0.6001  0.6001

 Free energy of the ion-electron system (eV)
  ---------------------------------------------------
  alpha Z        PSCENC =       294.32394985
  Ewald energy   TEWEN  =     -3641.45145672
  -Hartree energ DENC   =      -515.94368701
  -exchange      EXHF   =         0.00000000
  -V(xc)+E(xc)   XCENC  =         4.53548692
  PAW double counting   =      4486.29073745    -4476.94730202
  entropy T*S    EENTRO =        -0.00255640
  eigenvalues    EBANDS =       337.56190378
  atomic energy  EATOM  =      3489.78669473
  Solvation  Ediel_sol  =         0.00000000
  ---------------------------------------------------
  free energy    TOTEN  =       -21.84622942 eV

  energy without entropy =      -21.84367302  energy(sigma->0) =      -21.84537729


--------------------------------------------------------------------------------------------------------




--------------------------------------- Iteration      1(  10)  ---------------------------------------


    POTLOK:  cpu time    0.0076: real time    0.0076
    SETDIJ:  cpu time    0.0043: real time    0.0043
     EDDAV:  cpu time    0.3985: real time    0.4019
       DOS:  cpu time    0.0023: real time    0.0023
    CHARGE:  cpu time    0.0236: real time    0.0236
    MIXING:  cpu time    0.0004: real time    0.0004
    --------------------------------------------
      LOOP:  cpu time    0.4366: real time    0.4400

 eigenvalue-minimisations  :  2452
 total energy-change (2. order) : 0.1638026E-01  (-0.4272106E-02)
 number of electron      40.0000193 magnetization 
 augmentation part       16.8110171 magnetization 

 Broyden mixing:
  rms(total) = 0.58932E-01    rms(broyden)= 0.58921E-01
  rms(prec ) = 0.16799E+00
  weight for this iteration     100.00

 eigenvalues of (default mixing * dielectric matrix)
  average eigenvalue GAMMA=   1.1662
  2.5026  1.3338  0.8587  0.5680  0.5680

 Free energy of the ion-electron system (eV)
  ---------------------------------------------------
  alpha Z        PSCENC =       294.32394985
  Ewald energy   TEWEN  =     -3641.45145672
  -Hartree energ DENC   =      -517.10345192
  -exchange      EXHF   =         0.00000000
  -V(xc)+E(xc)   XCENC  =         4.57756678
  PAW double counting   =      4542.97509815    -4534.42250666
  entropy T*S    EENTRO =        -0.00362244
  eigenvalues    EBANDS =       339.48787909
  atomic energy  EATOM  =      3489.78669473
  Solvation  Ediel_sol  =         0.00000000
  ---------------------------------------------------
  free energy    TOTEN  =       -21.82984916 eV

  energy without entropy =      -21.82622672  energy(sigma->0) =      -21.82864168


--------------------------------------------------------------------------------------------------------




--------------------------------------- Iteration      1(  11)  ---------------------------------------


    POTLOK:  cpu time    0.0075: real time    0.0075
    SETDIJ:  cpu time    0.0043: real time    0.0043
     EDDAV:  cpu time    0.3571: real time    0.3571
       DOS:  cpu time    0.0023: real time    0.0023
    CHARGE:  cpu time    0.0233: real time    0.0233
    MIXING:  cpu time    0.0004: real time    0.0004
    --------------------------------------------
      LOOP:  cpu time    0.3949: real time    0.3950

 eigenvalue-minimisations  :  2134
 total energy-change (2. order) : 0.5448848E-02  (-0.1422534E-02)
 number of electron      40.0000192 magnetization 
 augmentation part       16.7877559 magnetization 

 Broyden mixing:
  rms(total) = 0.11314E-01    rms(broyden)= 0.11143E-01
  rms(prec ) = 0.17865E-01
  weight for this iteration     100.00

 eigenvalues of (default mixing * dielectric matrix)
  average eigenvalue GAMMA=   1.1865
  2.4864  1.4029  1.4029  0.5929  0.5929  0.6411

 Free energy of the ion-electron system (eV)
  ---------------------------------------------------
  alpha Z        PSCENC =       294.32394985
  Ewald energy   TEWEN  =     -3641.45145672
  -Hartree energ DENC   =      -518.06054095
  -exchange      EXHF   =         0.00000000
  -V(xc)+E(xc)   XCENC  =         4.61572902
  PAW double counting   =      4545.36074275    -4536.90732638
  entropy T*S    EENTRO =        -0.00632102
  eigenvalues    EBANDS =       340.51412842
  atomic energy  EATOM  =      3489.78669473
  Solvation  Ediel_sol  =         0.00000000
  ---------------------------------------------------
  free energy    TOTEN  =       -21.82440031 eV

  energy without entropy =      -21.81807929  energy(sigma->0) =      -21.82229331


--------------------------------------------------------------------------------------------------------




--------------------------------------- Iteration      1(  12)  ---------------------------------------


    POTLOK:  cpu time    0.0076: real time    0.0076
    SETDIJ:  cpu time    0.0042: real time    0.0042
     EDDAV:  cpu time    0.3958: real time    0.3959
       DOS:  cpu time    0.0022: real time    0.0022
    CHARGE:  cpu time    0.0229: real time    0.0229
    MIXING:  cpu time    0.0004: real time    0.0004
    --------------------------------------------
      LOOP:  cpu time    0.4332: real time    0.4332

 eigenvalue-minimisations  :  2446
 total energy-change (2. order) :-0.1700818E-04  (-0.2178097E-03)
 number of electron      40.0000192 magnetization 
 augmentation part       16.7950885 magnetization 

 Broyden mixing:
  rms(total) = 0.76665E-02    rms(broyden)= 0.76653E-02
  rms(prec ) = 0.16448E-01
  weight for this iteration     100.00

 eigenvalues of (default mixing * dielectric matrix)
  average eigenvalue GAMMA=   1.2689
  2.4228  2.4228  1.1878  1.0046  0.5953  0.5953  0.6542

 Free energy of the ion-electron system (eV)
  ---------------------------------------------------
  alpha Z        PSCENC =       294.32394985
  Ewald energy   TEWEN  =     -3641.45145672
  -Hartree energ DENC   =      -518.01401084
  -exchange      EXHF   =         0.00000000
  -V(xc)+E(xc)   XCENC  =         4.61014202
  PAW double counting   =      4541.57661942    -4532.86854341
  entropy T*S    EENTRO =        -0.00594674
  eigenvalues    EBANDS =       340.21813437
  atomic energy  EATOM  =      3489.78669473
  Solvation  Ediel_sol  =         0.00000000
  ---------------------------------------------------
  free energy    TOTEN  =       -21.82441732 eV

  energy without entropy =      -21.81847058  energy(sigma->0) =      -21.82243508


--------------------------------------------------------------------------------------------------------




--------------------------------------- Iteration      1(  13)  ---------------------------------------


    POTLOK:  cpu time    0.0075: real time    0.0075
    SETDIJ:  cpu time    0.0041: real time    0.0041
     EDDAV:  cpu time    0.3696: real time    0.3696
       DOS:  cpu time    0.0023: real time    0.0023
    CHARGE:  cpu time    0.0241: real time    0.0241
    MIXING:  cpu time    0.0004: real time    0.0004
    --------------------------------------------
      LOOP:  cpu time    0.4080: real time    0.4080

 eigenvalue-minimisations  :  2266
 total energy-change (2. order) :-0.5411005E-05  (-0.3836932E-04)
 number of electron      40.0000192 magnetization 
 augmentation part       16.7901865 magnetization 

 Broyden mixing:
  rms(total) = 0.65054E-02    rms(broyden)= 0.64917E-02
  rms(prec ) = 0.16686E-01
  weight for this iteration     100.00

 eigenvalues of (default mixing * dielectric matrix)
  average eigenvalue GAMMA=   1.2094
  2.5249  2.3210  1.2281  0.9139  0.9139  0.5911  0.5911  0.5914

 Free energy of the ion-electron system (eV)
  ---------------------------------------------------
  alpha Z        PSCENC =       294.32394985
  Ewald energy   TEWEN  =     -3641.45145672
  -Hartree energ DENC   =      -518.30535092
  -exchange      EXHF   =         0.00000000
  -V(xc)+E(xc)   XCENC  =         4.62054569
  PAW double counting   =      4538.72423517    -4529.93150831
  entropy T*S    EENTRO =        -0.00628238
  eigenvalues    EBANDS =       340.41475016
  atomic energy  EATOM  =      3489.78669473
  Solvation  Ediel_sol  =         0.00000000
  ---------------------------------------------------
  free energy    TOTEN  =       -21.82442273 eV

  energy without entropy =      -21.81814036  energy(sigma->0) =      -21.82232861


--------------------------------------------------------------------------------------------------------




--------------------------------------- Iteration      1(  14)  ---------------------------------------


    POTLOK:  cpu time    0.0081: real time    0.0081
    SETDIJ:  cpu time    0.0044: real time    0.0044
     EDDAV:  cpu time    0.3887: real time    0.3887
       DOS:  cpu time    0.0023: real time    0.0023
    CHARGE:  cpu time    0.0237: real time    0.0237
    MIXING:  cpu time    0.0005: real time    0.0005
    --------------------------------------------
      LOOP:  cpu time    0.4276: real time    0.4276

 eigenvalue-minimisations  :  2352
 total energy-change (2. order) : 0.4354211E-04  (-0.7623976E-05)
 number of electron      40.0000192 magnetization 
 augmentation part       16.7917221 magnetization 

 Broyden mixing:
  rms(total) = 0.23576E-02    rms(broyden)= 0.23553E-02
  rms(prec ) = 0.56191E-02
  weight for this iteration     100.00

 eigenvalues of (default mixing * dielectric matrix)
  average eigenvalue GAMMA=   1.2161
  2.4555  2.3143  1.7010  1.0966  1.0966  0.5942  0.5942  0.6201  0.4728

 Free energy of the ion-electron system (eV)
  ---------------------------------------------------
  alpha Z        PSCENC =       294.32394985
  Ewald energy   TEWEN  =     -3641.45145672
  -Hartree energ DENC   =      -518.24598291
  -exchange      EXHF   =         0.00000000
  -V(xc)+E(xc)   XCENC  =         4.61827303
  PAW double counting   =      4539.08686235    -4530.29168774
  entropy T*S    EENTRO =        -0.00617503
  eigenvalues    EBANDS =       340.35514326
  atomic energy  EATOM  =      3489.78669473
  Solvation  Ediel_sol  =         0.00000000
  ---------------------------------------------------
  free energy    TOTEN  =       -21.82437919 eV

  energy without entropy =      -21.81820416  energy(sigma->0) =      -21.82232085


--------------------------------------------------------------------------------------------------------




--------------------------------------- Iteration      1(  15)  ---------------------------------------


    POTLOK:  cpu time    0.0076: real time    0.0076
    SETDIJ:  cpu time    0.0043: real time    0.0043
     EDDAV:  cpu time    0.3797: real time    0.3797
       DOS:  cpu time    0.0023: real time    0.0023
    CHARGE:  cpu time    0.0231: real time    0.0231
    MIXING:  cpu time    0.0004: real time    0.0004
    --------------------------------------------
      LOOP:  cpu time    0.4175: real time    0.4175

 eigenvalue-minimisations  :  2280
 total energy-change (2. order) : 0.7403312E-05  (-0.1441789E-05)
 number of electron      40.0000192 magnetization 
 augmentation part       16.7922487 magnetization 

 Broyden mixing:
  rms(total) = 0.56759E-03    rms(broyden)= 0.56190E-03
  rms(prec ) = 0.62771E-03
  weight for this iteration     100.00

 eigenvalues of (default mixing * dielectric matrix)
  average eigenvalue GAMMA=   1.2610
  2.5821  2.5821  1.9447  1.1140  1.1140  0.9845  0.5944  0.5944  0.6276  0.4725

 Free energy of the ion-electron system (eV)
  ---------------------------------------------------
  alpha Z        PSCENC =       294.32394985
  Ewald energy   TEWEN  =     -3641.45145672
  -Hartree energ DENC   =      -518.24030693
  -exchange      EXHF   =         0.00000000
  -V(xc)+E(xc)   XCENC  =         4.61843573
  PAW double counting   =      4538.67529730    -4529.86275136
  entropy T*S    EENTRO =        -0.00611293
  eigenvalues    EBANDS =       340.33187856
  atomic energy  EATOM  =      3489.78669473
  Solvation  Ediel_sol  =         0.00000000
  ---------------------------------------------------
  free energy    TOTEN  =       -21.82437179 eV

  energy without entropy =      -21.81825886  energy(sigma->0) =      -21.82233414


--------------------------------------------------------------------------------------------------------




--------------------------------------- Iteration      1(  16)  ---------------------------------------


    POTLOK:  cpu time    0.0076: real time    0.0076
    SETDIJ:  cpu time    0.0045: real time    0.0045
     EDDAV:  cpu time    0.2337: real time    0.2337
       DOS:  cpu time    0.0023: real time    0.0023
    --------------------------------------------
      LOOP:  cpu time    0.2481: real time    0.2481

 eigenvalue-minimisations  :  1204
 total energy-change (2. order) : 0.3370606E-06  (-0.1724712E-06)
 number of electron      40.0000192 magnetization 
 augmentation part       16.7922487 magnetization 

 Free energy of the ion-electron system (eV)
  ---------------------------------------------------
  alpha Z        PSCENC =       294.32394985
  Ewald energy   TEWEN  =     -3641.45145672
  -Hartree energ DENC   =      -518.24545522
  -exchange      EXHF   =         0.00000000
  -V(xc)+E(xc)   XCENC  =         4.61875213
  PAW double counting   =      4538.48703822    -4529.66823878
  entropy T*S    EENTRO =        -0.00611621
  eigenvalues    EBANDS =       340.33046055
  atomic energy  EATOM  =      3489.78669473
  Solvation  Ediel_sol  =         0.00000000
  ---------------------------------------------------
  free energy    TOTEN  =       -21.82437145 eV

  energy without entropy =      -21.81825524  energy(sigma->0) =      -21.82233271


--------------------------------------------------------------------------------------------------------




 average (electrostatic) potential at core
  the test charge radii are     1.1199  1.2793  1.2059  0.9430
  (the norm of the test charge is              1.0000)
       1 -69.0983       2 -45.9086       3 -62.1622       4 -59.0496
 
 
 
 E-fermi :  12.5336     XC(G=0): -14.3001     alpha+bet :-18.2693

 Fermi energy:        12.5335653306

 k-point     1 :       0.0000    0.0000    0.0000
  band No.  band energies     occupation 
      1       1.5547      2.00000
      2       3.7769      2.00000
      3       5.0290      2.00000
      4       5.0517      2.00000
      5       5.1339      2.00000
      6       5.2510      2.00000
      7       5.2679      2.00000
      8       8.5374      2.00000
      9       8.5434      2.00000
     10       8.7040      2.00000
     11      10.2199      2.00000
     12      10.3922      2.00000
     13      11.2907      2.00000
     14      11.5155      2.00000
     15      11.7255      2.00000
     16      12.5633      0.75103
     17      12.8032     -0.06696
     18      13.0388     -0.00206
     19      13.3484     -0.00000
     20      13.9614     -0.00000
     21      14.5029     -0.00000
     22      14.5104     -0.00000
     23      14.5385     -0.00000
     24      14.7634     -0.00000
     25      23.2976      0.00000
     26      23.4964      0.00000
     27      24.1350      0.00000
     28      24.4408      0.00000
     29      24.7244      0.00000
     30      25.2668      0.00000

 k-point     2 :       0.2000    0.0000    0.0000
  band No.  band energies     occupation 
      1       2.1052      2.00000
      2       4.1731      2.00000
      3       5.2546      2.00000
      4       5.2627      2.00000
      5       5.5059      2.00000
      6       5.6098      2.00000
      7       5.7038      2.00000
      8       8.2234      2.00000
      9       8.7359      2.00000
     10       8.9220      2.00000
     11      10.0779      2.00000
     12      10.2873      2.00000
     13      10.4734      2.00000
     14      10.6806      2.00000
     15      10.9544      2.00000
     16      11.2749      2.00000
     17      12.2813      2.07052
     18      12.3236      2.05913
     19      12.5588      0.78847
     20      12.7413     -0.05740
     21      13.0684     -0.00103
     22      14.7617     -0.00000
     23      16.8818     -0.00000
     24      16.9032     -0.00000
     25      22.4409      0.00000
     26      23.2418      0.00000
     27      24.6670      0.00000
     28      24.7300      0.00000
     29      25.5992      0.00000
     30      25.6764      0.00000

 k-point     3 :       0.0000    0.2000    0.0000
  band No.  band energies     occupation 
      1       2.1731      2.00000
      2       4.2028      2.00000
      3       5.2185      2.00000
      4       5.3332      2.00000
      5       5.4535      2.00000
      6       5.6109      2.00000
      7       5.7127      2.00000
      8       8.4152      2.00000
      9       8.7702      2.00000
     10       8.7721      2.00000
     11       9.9901      2.00000
     12      10.3969      2.00000
     13      10.4549      2.00000
     14      10.5853      2.00000
     15      11.3501      2.00000
     16      11.8340      2.00001
     17      12.2529      2.06328
     18      12.4992      1.28580
     19      12.5110      1.18984
     20      12.6586      0.13786
     21      12.8988     -0.02691
     22      13.0205     -0.00309
     23      17.0381     -0.00000
     24      17.1895     -0.00000
     25      22.1340      0.00000
     26      23.9774      0.00000
     27      24.5634      0.00000
     28      24.5805      0.00000
     29      25.3500      0.00000
     30      25.9524      0.00000

 k-point     4 :       0.0000    0.0000    0.2000
  band No.  band energies     occupation 
      1       2.1773      2.00000
      2       4.2164      2.00000
      3       5.4097      2.00000
      4       5.4615      2.00000
      5       5.4826      2.00000
      6       5.4848      2.00000
      7       5.5153      2.00000
      8       8.1987      2.00000
      9       8.7366      2.00000
     10       8.9233      2.00000
     11      10.0033      2.00000
     12      10.3570      2.00000
     13      10.4079      2.00000
     14      10.7778      2.00000
     15      11.0758      2.00000
     16      11.6922      2.00000
     17      12.0553      2.00371
     18      12.3451      2.03608
     19      12.4176      1.82128
     20      12.6132      0.38176
     21      13.0265     -0.00271
     22      13.9401     -0.00000
     23      17.0045     -0.00000
     24      17.1340     -0.00000
     25      21.7487      0.00000
     26      24.1968      0.00000
     27      24.6286      0.00000
     28      24.7115      0.00000
     29      25.5653      0.00000
     30      25.8129      0.00000

 k-point     5 :       0.4000    0.0000    0.0000
  band No.  band energies     occupation 
      1       3.3577      2.00000
      2       5.0462      2.00000
      3       5.5341      2.00000
      4       5.7131      2.00000
      5       6.5698      2.00000
      6       6.6168      2.00000
      7       6.7118      2.00000
[...]
      3       5.6657      2.00000
      4       5.8227      2.00000
      5       5.8907      2.00000
      6       6.3772      2.00000
      7       6.5384      2.00000
      8       7.8997      2.00000
      9       8.8746      2.00000
     10       8.9829      2.00000
     11       9.1791      2.00000
     12       9.3977      2.00000
     13       9.6100      2.00000
     14      10.0167      2.00000
     15      10.1560      2.00000
     16      10.4564      2.00000
     17      11.3081      2.00000
     18      11.5063      2.00000
     19      11.5873      2.00000
     20      12.4026      1.88606
     21      13.4387     -0.00000
     22      15.5366     -0.00000
     23      16.3757     -0.00000
     24      16.7838     -0.00000
     25      21.9726      0.00000
     26      22.4747      0.00000
     27      23.1610      0.00000
     28      25.7752      0.00000
     29      26.1179      0.00000
     30      26.7870      0.00000

 k-point    21 :       0.4000    0.2000    0.2000
  band No.  band energies     occupation 
      1       4.1287      2.00000
      2       5.4302      2.00000
      3       5.9755      2.00000
      4       6.3394      2.00000
      5       6.4577      2.00000
      6       6.8056      2.00000
      7       7.4061      2.00000
      8       7.6611      2.00000
      9       8.0527      2.00000
     10       8.2746      2.00000
     11       8.7375      2.00000
     12       8.9221      2.00000
     13       9.1776      2.00000
     14       9.6544      2.00000
     15       9.7395      2.00000
     16      10.3622      2.00000
     17      11.0763      2.00000
     18      11.2025      2.00000
     19      11.7660      2.00000
     20      12.3118      2.06611
     21      12.8824     -0.03332
     22      13.2836     -0.00000
     23      17.8661     -0.00000
     24      17.8891     -0.00000
     25      20.1222      0.00000
     26      20.6802      0.00000
     27      24.9149      0.00000
     28      26.1264      0.00000
     29      26.7909      0.00000
     30      27.1726      0.00000

 k-point    22 :       0.2000    0.4000    0.2000
  band No.  band energies     occupation 
      1       4.3294      2.00000
      2       5.3507      2.00000
      3       5.7728      2.00000
      4       6.2922      2.00000
      5       6.5638      2.00000
      6       6.8235      2.00000
      7       7.6112      2.00000
      8       7.7687      2.00000
      9       8.0180      2.00000
     10       8.3998      2.00000
     11       8.8582      2.00000
     12       8.9387      2.00000
     13       9.0832      2.00000
     14       9.6490      2.00000
     15       9.8589      2.00000
     16       9.9641      2.00000
     17      11.1254      2.00000
     18      11.3016      2.00000
     19      11.5525      2.00000
     20      12.1731      2.02869
     21      12.8088     -0.06520
     22      13.0389     -0.00205
     23      17.8781     -0.00000
     24      18.1446      0.00000
     25      19.9111      0.00000
     26      20.7133      0.00000
     27      25.0520      0.00000
     28      26.3407      0.00000
     29      26.8880      0.00000
     30      27.1849      0.00000

 k-point    23 :       0.2000    0.2000    0.4000
  band No.  band energies     occupation 
      1       4.3430      2.00000
      2       5.3445      2.00000
      3       5.9512      2.00000
      4       6.3609      2.00000
      5       6.4838      2.00000
      6       7.0429      2.00000
      7       7.2141      2.00000
      8       7.6649      2.00000
      9       7.9917      2.00000
     10       8.2386      2.00000
     11       8.7354      2.00000
     12       8.9298      2.00000
     13       9.1840      2.00000
     14       9.6779      2.00000
     15       9.8012      2.00000
     16      10.1704      2.00000
     17      11.1403      2.00000
     18      11.2742      2.00000
     19      11.6770      2.00000
     20      12.1137      2.01144
     21      12.8280     -0.05776
     22      13.2026     -0.00002
     23      17.8877     -0.00000
     24      18.0654      0.00000
     25      19.8871      0.00000
     26      20.8677      0.00000
     27      24.9447      0.00000
     28      26.1057      0.00000
     29      26.7826      0.00000
     30      27.1995      0.00000

 k-point    24 :       0.4000    0.4000    0.2000
  band No.  band energies     occupation 
      1       4.7782      2.00000
      2       5.1808      2.00000
      3       5.6871      2.00000
      4       6.1057      2.00000
      5       7.1388      2.00000
      6       7.5477      2.00000
      7       7.9016      2.00000
      8       8.2332      2.00000
      9       8.3769      2.00000
     10       8.4217      2.00000
     11       8.6836      2.00000
     12       8.9216      2.00000
     13       9.0532      2.00000
     14       9.2263      2.00000
     15       9.4146      2.00000
     16       9.5231      2.00000
     17      10.8542      2.00000
     18      11.4008      2.00000
     19      11.9199      2.00013
     20      12.4068      1.86937
     21      12.5555      0.81574
     22      13.7668     -0.00000
     23      15.3401     -0.00000
     24      16.5364     -0.00000
     25      20.4625      0.00000
     26      22.2021      0.00000
     27      22.7369      0.00000
     28      24.7289      0.00000
     29      27.4750      0.00000
     30      29.1054      0.00000

 k-point    25 :       0.2000    0.4000    0.4000
  band No.  band energies     occupation 
      1       4.7519      2.00000
      2       5.2294      2.00000
      3       5.4265      2.00000
      4       6.1025      2.00000
      5       7.1542      2.00000
      6       7.5546      2.00000
      7       7.8734      2.00000
      8       8.2389      2.00000
      9       8.3813      2.00000
     10       8.4649      2.00000
     11       8.6749      2.00000
     12       8.9280      2.00000
     13       9.0753      2.00000
     14       9.2275      2.00000
     15       9.4081      2.00000
     16       9.5024      2.00000
     17      10.9057      2.00000
     18      11.4359      2.00000
     19      12.1037      2.00958
     20      12.3486      2.03092
     21      12.5426      0.92372
     22      13.5708     -0.00000
     23      16.0013     -0.00000
     24      16.8106     -0.00000
     25      20.1112      0.00000
     26      21.8201      0.00000
     27      22.6311      0.00000
     28      24.5495      0.00000
     29      27.6616      0.00000
     30      29.0398      0.00000

 k-point    26 :       0.4000    0.2000    0.4000
  band No.  band energies     occupation 
      1       4.7677      2.00000
      2       5.2082      2.00000
      3       5.7353      2.00000
      4       5.9176      2.00000
      5       7.1264      2.00000
      6       7.4318      2.00000
      7       7.8694      2.00000
      8       8.3877      2.00000
      9       8.4901      2.00000
     10       8.5800      2.00000
     11       8.7897      2.00000
     12       8.8660      2.00000
     13       9.0545      2.00000
     14       9.3050      2.00000
     15       9.3578      2.00000
     16       9.4307      2.00000
     17      11.0421      2.00000
     18      11.1359      2.00000
     19      11.6989      2.00000
     20      12.5540      0.82809
     21      12.7234     -0.03799
     22      14.2060     -0.00000
     23      14.7773     -0.00000
     24      16.4539     -0.00000
     25      20.4136      0.00000
     26      22.2998      0.00000
     27      22.7061      0.00000
     28      24.8141      0.00000
     29      27.2773      0.00000
     30      29.1721      0.00000

 k-point    27 :       0.4000    0.4000    0.4000
  band No.  band energies     occupation 
      1       4.4454      2.00000
      2       4.5848      2.00000
      3       4.9422      2.00000
      4       5.3237      2.00000
      5       7.7707      2.00000
      6       7.9070      2.00000
      7       7.9930      2.00000
      8       8.4135      2.00000
      9       8.4970      2.00000
     10       8.7887      2.00000
     11       8.8238      2.00000
     12       9.0616      2.00000
     13       9.9118      2.00000
     14       9.9828      2.00000
     15      10.1077      2.00000
     16      10.5566      2.00000
     17      11.3619      2.00000
     18      11.8340      2.00001
     19      11.8983      2.00007
     20      12.5082      1.21243
     21      13.2679     -0.00000
     22      13.8474     -0.00000
     23      14.3804     -0.00000
     24      14.6322     -0.00000
     25      19.8629      0.00000
     26      20.0954      0.00000
     27      21.0102      0.00000
     28      22.6293      0.00000
     29      28.9228      0.00000
     30      29.0151      0.00000


--------------------------------------------------------------------------------------------------------


 soft charge-density along one line, spin component           1
         0         1         2         3         4         5         6         7         8         9
x    23.2078    0.0000   -1.2646    0.0000    0.1385    0.0000    0.1831    0.0000   -0.2847    0.0000
x    -0.0271    0.0000    0.0721    0.0000    0.0090    0.0000    0.0000    0.0000
y    23.2078    0.0000    1.3177    0.0000    0.1754    0.0000   -0.2499   -0.0000   -0.2680    0.0000
y     0.0191   -0.0000    0.0692   -0.0000    0.0011    0.0000    0.0000    0.0000
z    23.2078    0.0000    0.3486    0.0000    0.1717    0.0000   -0.1246   -0.0000   -0.2749    0.0000
z     0.0078   -0.0000    0.0704   -0.0000   -0.0045    0.0000    0.0000    0.0000
 total charge-density along one line
x    40.0000    0.0000    3.8720    0.0000    9.4722   -0.0000    2.8241    0.0000    1.0456    0.0000
x     0.2494    0.0000    0.0771    0.0000    0.0016   -0.0000    0.0050    0.0000    0.0027   -0.0000
x    -0.0010    0.0000   -0.0008   -0.0000    0.0006    0.0000    0.0004    0.0000   -0.0004   -0.0000
x    -0.0001    0.0000    0.0004    0.0000
y    40.0000    0.0000   -1.0475   -0.0000    9.5503    0.0000   -1.6772   -0.0000    1.0781   -0.0000
y    -0.2062    0.0000    0.0551   -0.0000    0.0279    0.0000    0.0036    0.0000   -0.0063    0.0000
y    -0.0011    0.0000    0.0016   -0.0000    0.0006   -0.0000   -0.0003    0.0000   -0.0004    0.0000
y     0.0000   -0.0000    0.0004    0.0000
z    40.0000    0.0000   -2.7708   -0.0000    9.5175    0.0000   -1.9280   -0.0000    1.0535    0.0000
z    -0.2421   -0.0000    0.0637   -0.0000    0.0132    0.0000    0.0044    0.0000   -0.0055    0.0000
z    -0.0011   -0.0000    0.0018    0.0000    0.0006   -0.0000   -0.0006    0.0000   -0.0005    0.0000
z     0.0001    0.0000    0.0004    0.0000
 
 pseudopotential strength for first ion, spin component:           1
 -1.429  -0.000   0.000  -0.000  -0.000  -1.709  -0.000   0.000
 -0.000  -1.334  -0.000   0.000   0.000  -0.000  -1.618  -0.000
  0.000  -0.000  -1.347   0.000  -0.007   0.000  -0.000  -1.630
 -0.000   0.000   0.000  -1.402  -0.000  -0.000   0.000   0.000
 -0.000   0.000  -0.007  -0.000  -1.355  -0.000   0.000  -0.006
 -1.709  -0.000   0.000  -0.000  -0.000  -1.953  -0.000   0.000
 -0.000  -1.618  -0.000   0.000   0.000  -0.000  -1.866  -0.000
  0.000  -0.000  -1.630   0.000  -0.006   0.000  -0.000  -1.878
 -0.000   0.000   0.000  -1.683  -0.000  -0.000   0.000   0.000
 -0.000   0.000  -0.006  -0.000  -1.638  -0.000   0.000  -0.006
  0.000   0.000  -0.009   0.000   0.008   0.000   0.000  -0.009
  0.000   0.000  -0.015   0.000   0.013   0.000   0.000  -0.015
  0.000   0.000   0.000   0.000   0.000   0.000   0.000   0.000
  0.000  -0.000   0.000   0.000   0.000   0.000  -0.000   0.000
 -0.000   0.000  -0.000   0.000   0.000  -0.000   0.000  -0.000
  0.000   0.000   0.000   0.000   0.000   0.000   0.000   0.000
  0.000  -0.000   0.000   0.000   0.000   0.000  -0.000   0.000
 -0.000   0.000  -0.000   0.000   0.000  -0.000   0.000  -0.000
 total augmentation occupancy for first ion, spin component:           1
  3.159   0.000   0.000   0.000   0.000  -2.838   0.000   0.000   0.000  -0.000   0.000   0.000   0.000   0.000   0.000   0.000
  0.000   5.650   0.000   0.000   0.000   0.000  -4.221   0.000  -0.000   0.000   0.000   0.000   0.000   0.000   0.000   0.000
  0.000   0.000   4.566   0.000  -0.910  -0.000   0.000  -3.337   0.000   0.665   0.304  -0.059   0.000   0.000   0.000   0.000
  0.000   0.000   0.000   4.782   0.000   0.000   0.000   0.000  -4.181   0.000   0.000   0.000   0.000   0.000   0.000   0.000
  0.000   0.000  -0.910   0.000   6.278   0.000   0.000   0.663   0.000  -4.695  -0.538   0.116   0.000   0.000   0.000   0.000
 -2.838   0.000  -0.000   0.000  -0.000   4.189   0.000   0.000   0.000   0.000   0.000   0.000   0.000   0.000   0.000   0.000
  0.000  -4.221   0.000   0.000   0.000   0.000   4.670   0.000   0.000   0.000   0.000   0.000   0.000   0.000   0.000   0.000
  0.000   0.000  -3.337   0.000   0.663   0.000   0.000   3.939   0.000  -0.478  -0.240   0.019   0.000   0.000   0.000   0.000
  0.000  -0.000   0.000  -4.181   0.000   0.000   0.000   0.000   5.287   0.000   0.000   0.000   0.000   0.000   0.000   0.000
  0.000   0.000   0.665   0.000  -4.695   0.000   0.000  -0.478   0.000   5.009   0.455  -0.083   0.000   0.000   0.000   0.000
 -0.000   0.000   0.304   0.000  -0.538   0.000   0.000  -0.240   0.000   0.455   2.801  -0.486   0.000   0.000   0.000   0.000
  0.000   0.000  -0.059   0.000   0.116   0.000   0.000   0.019   0.000  -0.083  -0.486   0.093   0.000   0.000   0.000   0.000
  0.000   0.000   0.000   0.000   0.000   0.000   0.000   0.000   0.000   0.000   0.000   0.000   0.412   0.000   0.000  -0.020
  0.000   0.000   0.000   0.000   0.000   0.000   0.000   0.000   0.000   0.000   0.000   0.000   0.000   0.406   0.000   0.000
  0.000   0.000   0.000   0.000   0.000   0.000   0.000   0.000   0.000   0.000   0.000   0.000   0.000   0.000   0.479   0.000
  0.000   0.000   0.000   0.000   0.000   0.000   0.000   0.000   0.000   0.000   0.000   0.000  -0.020   0.000   0.000   0.001
  0.000   0.000   0.000   0.000   0.000   0.000   0.000   0.000   0.000   0.000   0.000   0.000   0.000  -0.022   0.000   0.000
  0.000   0.000   0.000   0.000   0.000   0.000   0.000   0.000   0.000   0.000   0.000   0.000   0.000   0.000  -0.024   0.000


------------------------ aborting loop because EDIFF is reached ----------------------------------------


    CHARGE:  cpu time    0.0233: real time    0.0233
    FORLOC:  cpu time    0.0013: real time    0.0013
    FORNL :  cpu time    0.0942: real time    0.0942
    STRESS:  cpu time    0.1825: real time    0.1826
    FORCOR:  cpu time    0.0091: real time    0.0091
    FORHAR:  cpu time    0.0026: real time    0.0026
    MIXING:  cpu time    0.0005: real time    0.0005

  FORCE on cell =-STRESS in cart. coord.  units (eV):
  Direction    XX          YY          ZZ          XY          YZ          ZX
  --------------------------------------------------------------------------------------
  Alpha Z   294.32395   294.32395   294.32395
  Ewald   -1215.67993 -1210.09319 -1215.67993     0.00000    -0.00000     0.00000
  Hartree   166.71756   180.02677   171.47697    -0.00000    -0.00000    -0.00000
  E(xc)    -206.32027  -206.27153  -206.33656     0.00000    -0.00000    -0.00000
  Local     226.34216   210.84692   224.41771    -0.00000    -0.00000    -0.00000
  n-local    -7.00116    -5.15148    -7.50630     6.79023     8.82055     7.00219
  augment   259.28121   257.84882   258.86924     0.00000    -0.00000    -0.00000
  Kinetic   500.43116   497.08933   498.47654     1.26875     2.08005     0.82853
  Fock        0.00000     0.00000     0.00000     0.00000     0.00000     0.00000
  -------------------------------------------------------------------------------------
  Total      18.09468    18.61959    18.04162     0.00000     0.00000     0.00000
  in kB     603.59866   621.10846   601.82864     0.00000     0.00000     0.00000
  external pressure =      608.85 kB  Pullay stress =        0.00 kB


 VOLUME and BASIS-vectors are now :
 -----------------------------------------------------------------------------
  energy-cutoff  :      270.00
  volume of cell :       48.03
      direct lattice vectors                 reciprocal lattice vectors
     3.635000000  0.000000000  0.000000000     0.275103164  0.000000000  0.000000000
     0.000000000  3.635000000  0.000000000     0.000000000  0.275103164  0.000000000
     0.000000000  0.000000000  3.635000000     0.000000000  0.000000000  0.275103164

  length of vectors
     3.635000000  3.635000000  3.635000000     0.275103164  0.275103164  0.275103164


 FORCES acting on ions
    electron-ion (+dipol)            ewald-force                    non-local-force                 convergence-correction
 -----------------------------------------------------------------------------------------------
   -.238E-13 0.799E-14 0.431E-14   0.867E-14 -.106E-13 -.539E-14   0.158E-24 -.341E-22 0.765E-23   -.302E-13 0.125E-13 0.371E-13
   0.793E-14 0.332E-13 0.217E-14   0.109E-14 -.104E-14 -.382E-14   0.787E-23 -.871E-23 -.772E-22   -.150E-13 -.215E-15 0.300E-13
   0.243E-13 0.721E-14 0.645E-13   0.405E-14 0.203E-14 0.701E-14   -.399E-23 -.586E-23 -.778E-22   -.180E-13 0.131E-13 -.106E-13
   -.601E-13 0.284E-12 0.286E-12   -.111E-13 0.108E-13 0.211E-14   0.145E-25 -.843E-23 -.744E-23   -.568E-13 0.197E-13 0.286E-14
 -----------------------------------------------------------------------------------------------
   -.517E-13 0.332E-12 0.357E-12   0.269E-14 0.119E-14 -.871E-16   0.406E-23 -.571E-22 -.155E-21   -.120E-12 0.451E-13 0.593E-13
 
 
 POSITION                                       TOTAL-FORCE (eV/Angst)
 -----------------------------------------------------------------------------------
      0.00000      0.00000      0.00000         0.000000      0.000000     -0.000000
      1.81750      1.81750      0.00000         0.000000      0.000000     -0.000000
      1.81750      0.00000      1.81750         0.000000      0.000000     -0.000000
      0.00000      1.81750      1.81750        -0.000000     -0.000000      0.000000
 -----------------------------------------------------------------------------------
    total drift:                               -0.000000      0.000000      0.000000


--------------------------------------------------------------------------------------------------------



  FREE ENERGIE OF THE ION-ELECTRON SYSTEM (eV)
  ---------------------------------------------------
  free  energy   TOTEN  =       -21.82437145 eV

  energy  without entropy=      -21.81825524  energy(sigma->0) =      -21.82233271
 


--------------------------------------------------------------------------------------------------------


    POTLOK:  cpu time    0.0119: real time    0.0119


--------------------------------------------------------------------------------------------------------


 writing wavefunctions
     LOOP+:  cpu time    6.5472: real time    6.5730
    4ORBIT:  cpu time    0.0000: real time    0.0000

 total amount of memory used by VASP MPI-rank0    47551. kBytes
=======================================================================

   base      :      30000. kBytes
   nonl-proj :       7604. kBytes
   grid      :       2641. kBytes
   one-center:         62. kBytes
   wavefun   :       7244. kBytes
 
  
  
 General timing and accounting informations for this job:
 ========================================================
  
                  Total CPU time used (sec):        6.744
                            User time (sec):        6.712
                          System time (sec):        0.032
                         Elapsed time (sec):        6.764
  
                   Maximum memory used (kb):       57192.
                   Average memory used (kb):          N/A
  
                          Minor page faults:         7987
                          Major page faults:            0
                 Voluntary context switches:           26
