<?xml version="1.0" encoding="ISO-8859-1"?>
<modeling>
 <generator>
  <i name="program" type="string">vasp </i>
  <i name="version" type="string">6.2.0  </i>
  <i name="subversion" type="string">18Jan21 (build Mar 17 2021 09:06:54) complex                          serial </i>
  <i name="platform" type="string">LinuxIFC </i>
  <i name="date" type="string">2021 06 11 </i>
  <i name="time" type="string">11:31:01 </i>
 </generator>
 <incar>
  <i type="string" name="PREC">normal</i>
  <i type="int" name="ICHARG">     1</i>
  <i type="int" name="IBRION">    -1</i>
  <i name="EDIFF">      0.00000100</i>
  <i type="int" name="NSW">     0</i>
  <i name="ENCUT">    270.00000000</i>
  <i type="int" name="NBANDS">    30</i>
  <i type="int" name="ISMEAR">     1</i>
  <i name="SIGMA">      0.20000000</i>
  <i type="logical" name="LCHARG"> T  </i>
  <i type="int" name="KPAR">     1</i>
  <i type="int" name="NCORE">     1</i>
  <i type="string" name="GGA">PE</i>
 </incar>
 <primitive_cell>
  <structure name="primitive_cell" >
   <crystal>
    <varray name="basis" >
     <v>       3.63500000       0.00000000       0.00000000 </v>
     <v>       0.00000000       3.63500000       0.00000000 </v>
     <v>       0.00000000       0.00000000       3.63500000 </v>
    </varray>
    <i name="volume">     48.03007287 </i>
    <varray name="rec_basis" >
     <v>       0.27510316       0.00000000       0.00000000 </v>
     <v>       0.00000000       0.27510316       0.00000000 </v>
     <v>       0.00000000       0.00000000       0.27510316 </v>
    </varray>
   </crystal>
   <varray name="positions" >
    <v>       0.00000000       0.00000000       0.00000000 </v>
    <v>       0.50000000       0.50000000       0.00000000 </v>
    <v>       0.50000000       0.00000000       0.50000000 </v>
    <v>       0.00000000       0.50000000       0.50000000 </v>
   </varray>
  </structure>
  <varray name="primitive_index" >
   <v type="int" >        1 </v>
   <v type="int" >        2 </v>
   <v type="int" >        3 </v>
   <v type="int" >        4 </v>
  </varray>
 </primitive_cell>
 <kpoints>
  <generation param="Monkhorst-Pack">
   <v type="int" name="divisions">       5        5        5 </v>
   <v name="usershift">      0.00000000       0.00000000       0.00000000 </v>
   <v name="genvec1">      0.20000000       0.00000000       0.00000000 </v>
   <v name="genvec2">      0.00000000       0.20000000       0.00000000 </v>
   <v name="genvec3">      0.00000000       0.00000000       0.20000000 </v>
   <v name="shift">      0.00000000       0.00000000       0.00000000 </v>
  </generation>
  <varray name="kpointlist" >
   <v>       0.00000000       0.00000000       0.00000000 </v>
   <v>       0.20000000       0.00000000       0.00000000 </v>
   <v>       0.00000000       0.20000000       0.00000000 </v>
   <v>       0.00000000       0.00000000       0.20000000 </v>
   <v>       0.40000000       0.00000000       0.00000000 </v>
   <v>       0.00000000       0.40000000       0.00000000 </v>
   <v>       0.00000000       0.00000000       0.40000000 </v>
   <v>       0.20000000       0.20000000       0.00000000 </v>
   <v>       0.00000000       0.20000000       0.20000000 </v>
   <v>       0.20000000       0.00000000       0.20000000 </v>
   <v>       0.40000000       0.20000000       0.00000000 </v>
   <v>       0.00000000       0.40000000       0.20000000 </v>
   <v>       0.20000000       0.00000000       0.40000000 </v>
   <v>      -0.20000000       0.40000000       0.00000000 </v>
   <v>      -0.40000000       0.00000000       0.20000000 </v>
   <v>       0.00000000       0.20000000       0.40000000 </v>
   <v>       0.40000000       0.40000000       0.00000000 </v>
   <v>       0.00000000       0.40000000       0.40000000 </v>
   <v>       0.40000000       0.00000000       0.40000000 </v>
   <v>       0.20000000       0.20000000       0.20000000 </v>
   <v>       0.40000000       0.20000000       0.20000000 </v>
   <v>       0.20000000       0.40000000       0.20000000 </v>
   <v>       0.20000000       0.20000000       0.40000000 </v>
   <v>       0.40000000       0.40000000       0.20000000 </v>
   <v>       0.20000000       0.40000000       0.40000000 </v>
   <v>       0.40000000       0.20000000       0.40000000 </v>
   <v>       0.40000000       0.40000000       0.40000000 </v>
  </varray>
  <varray name="weights" >
   <v>       0.00800000 </v>
   <v>       0.01600000 </v>
   <v>       0.01600000 </v>
   <v>       0.01600000 </v>
   <v>       0.01600000 </v>
   <v>       0.01600000 </v>
   <v>       0.01600000 </v>
   <v>       0.03200000 </v>
   <v>       0.03200000 </v>
   <v>       0.03200000 </v>
   <v>       0.03200000 </v>
   <v>       0.03200000 </v>
   <v>       0.03200000 </v>
   <v>       0.03200000 </v>
   <v>       0.03200000 </v>
   <v>       0.03200000 </v>
   <v>       0.03200000 </v>
   <v>       0.03200000 </v>
   <v>       0.03200000 </v>
   <v>       0.06400000 </v>
   <v>       0.06400000 </v>
   <v>       0.06400000 </v>
   <v>       0.06400000 </v>
   <v>       0.06400000 </v>
   <v>       0.06400000 </v>
   <v>       0.06400000 </v>
   <v>       0.06400000 </v>
  </varray>
 </kpoints>
 <parameters>
  <separator name="general" >
   <i type="string" name="SYSTEM">unknown system</i>
   <i type="logical" name="LCOMPAT"> F  </i>
  </separator>
  <separator name="electronic" >
   <i type="string" name="PREC">normal</i>
   <i name="ENMAX">    270.00000000</i>
   <i name="ENAUG">    586.98000000</i>
   <i name="EDIFF">      0.00000100</i>
   <i type="int" name="IALGO">    38</i>
   <i type="int" name="IWAVPR">     0</i>
   <i type="int" name="NBANDS">    30</i>
   <i type="int" name="NBANDSLOW">    -1</i>
   <i type="int" name="NBANDSHIGH">    -1</i>
   <i name="NELECT">     40.00000000</i>
   <i type="int" name="TURBO">     0</i>
   <i type="int" name="IRESTART">     0</i>
   <i type="int" name="NREBOOT">     0</i>
   <i type="int" name="NMIN">     0</i>
   <i name="EREF">      0.00000000</i>
   <separator name="electronic smearing" >
    <i type="int" name="ISMEAR">     1</i>
    <i name="SIGMA">      0.20000000</i>
    <i name="KSPACING">      0.50000000</i>
    <i type="logical" name="KGAMMA"> T  </i>
    <i type="logical" name="KBLOWUP"> T  </i>
   </separator>
   <separator name="electronic projectors" >
    <i type="logical" name="LREAL"> F  </i>
    <v name="ROPT">      0.00000000      0.00000000      0.00000000      0.00000000</v>
    <i type="int" name="LMAXPAW">  -100</i>
    <i type="int" name="LMAXMIX">     2</i>
    <i type="logical" name="NLSPLINE"> F  </i>
   </separator>
   <separator name="electronic startup" >
    <i type="int" name="ISTART">     0</i>
    <i type="int" name="ICHARG">     1</i>
    <i type="int" name="INIWAV">     1</i>
   </separator>
   <separator name="electronic spin" >
    <i type="int" name="ISPIN">     1</i>
    <i type="logical" name="LNONCOLLINEAR"> F  </i>
    <v name="MAGMOM">      1.00000000      1.00000000      1.00000000      1.00000000</v>
    <i name="NUPDOWN">     -1.00000000</i>
    <i type="logical" name="LSORBIT"> F  </i>
    <v name="SAXIS">      0.00000000      0.00000000      1.00000000</v>
    <i type="logical" name="LSPIRAL"> F  </i>
    <v name="QSPIRAL">      0.00000000      0.00000000      0.00000000</v>
    <i type="logical" name="LZEROZ"> F  </i>
   </separator>
   <separator name="electronic exchange-correlation" >
    <i type="logical" name="LASPH"> F  </i>
    <i type="logical" name="LMETAGGA"> F  </i>
   </separator>
   <separator name="electronic convergence" >
    <i type="int" name="NELM">    60</i>
    <i type="int" name="NELMDL">    -5</i>
    <i type="int" name="NELMIN">     2</i>
    <i name="ENINI">    270.00000000</i>
    <separator name="electronic convergence detail" >
     <i type="logical" name="LDIAG"> T  </i>
     <i type="logical" name="LSUBROT"> F  </i>
     <i name="WEIMIN">      0.00000000</i>
     <i name="EBREAK">      0.00000001</i>
     <i name="DEPER">      0.30000000</i>
     <i type="int" name="NRMM">     4</i>
     <i name="TIME">      0.40000000</i>
    </separator>
   </separator>
   <separator name="electronic mixer" >
    <i name="AMIX">      0.40000000</i>
    <i name="BMIX">      1.00000000</i>
    <i name="AMIN">      0.10000000</i>
    <i name="AMIX_MAG">      1.60000000</i>
    <i name="BMIX_MAG">      1.00000000</i>
    <separator name="electronic mixer details" >
     <i type="int" name="IMIX">     4</i>
     <i type="logical" name="MIXFIRST"> F  </i>
     <i type="int" name="MAXMIX">   -45</i>
     <i name="WC">    100.00000000</i>
     <i type="int" name="INIMIX">     1</i>
     <i type="int" name="MIXPRE">     1</i>
     <i type="int" name="MREMOVE">     5</i>
    </separator>
   </separator>
   <separator name="electronic dipolcorrection" >
    <i type="logical" name="LDIPOL"> F  </i>
    <i type="logical" name="LMONO"> F  </i>
    <i type="int" name="IDIPOL">     0</i>
    <i name="EPSILON">      1.00000000</i>
    <v name="DIPOL">   -100.00000000   -100.00000000   -100.00000000</v>
    <i name="EFIELD">      0.00000000</i>
   </separator>
  </separator>
  <separator name="grids" >
   <i type="int" name="NGX">    16</i>
   <i type="int" name="NGY">    16</i>
   <i type="int" name="NGZ">    16</i>
   <i type="int" name="NGXF">    32</i>
   <i type="int" name="NGYF">    32</i>
   <i type="int" name="NGZF">    32</i>
   <i type="logical" name="ADDGRID"> F  </i>
  </separator>
  <separator name="ionic" >
   <i type="int" name="NSW">     0</i>
   <i type="int" name="IBRION">    -1</i>
   <i type="int" name="MDALGO">     0</i>
   <i type="int" name="ISIF">     2</i>
   <i name="PSTRESS">      0.00000000</i>
   <i name="EDIFFG">      0.00001000</i>
   <i type="int" name="NFREE">     0</i>
   <i name="POTIM">      0.50000000</i>
   <i name="SMASS">     -3.00000000</i>
   <i name="SCALEE">      1.00000000</i>
  </separator>
  <separator name="ionic md" >
   <i name="TEBEG">      0.00010000</i>
   <i name="TEEND">      0.00010000</i>
   <i type="int" name="NBLOCK">     1</i>
   <i type="int" name="KBLOCK">     1</i>
   <i type="int" name="NPACO">   256</i>
   <i name="APACO">     16.00000000</i>
  </separator>
  <separator name="symmetry" >
   <i type="int" name="ISYM">     2</i>
   <i name="SYMPREC">      0.00001000</i>
  </separator>
  <separator name="dos" >
   <i type="int" name="LORBIT">     0</i>
   <v name="RWIGS">     -1.00000000     -1.00000000     -1.00000000     -1.00000000</v>
   <i type="int" name="NEDOS">   301</i>
   <i name="EMIN">     10.00000000</i>
   <i name="EMAX">    -10.00000000</i>
   <i name="EFERMI">      0.00000000</i>
  </separator>
  <separator name="writing" >
   <i type="int" name="NWRITE">     2</i>
   <i type="logical" name="LWAVE"> T  </i>
   <i type="logical" name="LDOWNSAMPLE"> F  </i>
   <i type="logical" name="LCHARG"> T  </i>
   <i type="logical" name="LPARD"> F  </i>
   <i type="logical" name="LVTOT"> F  </i>
   <i type="logical" name="LVHAR"> F  </i>
   <i type="logical" name="LELF"> F  </i>
   <i type="logical" name="LOPTICS"> F  </i>
   <v name="STM">      0.00000000      0.00000000      0.00000000      0.00000000      0.00000000      0.00000000      0.00000000</v>
  </separator>
  <separator name="performance" >
   <i type="int" name="NPAR">     1</i>
   <i type="int" name="NSIM">     4</i>
   <i type="int" name="NBLK">    -1</i>
   <i type="logical" name="LPLANE"> T  </i>
   <i type="logical" name="LSCALAPACK"> F  </i>
   <i type="logical" name="LSCAAWARE"> F  </i>
   <i type="logical" name="LSCALU"> F  </i>
   <i type="logical" name="LASYNC"> F  </i>
   <i type="logical" name="LORBITALREAL"> F  </i>
  </separator>
  <separator name="miscellaneous" >
   <i type="int" name="IDIOT">     3</i>
   <i type="int" name="PHON_NSTRUCT">    -1</i>
   <i type="logical" name="LMUSIC"> F  </i>
   <v name="POMASS">    106.42000000    192.22000000    195.08000000     63.54600000</v>
   <v name="DARWINR">      0.00000000      0.00000000      0.00000000      0.00000000</v>
   <v name="DARWINV">      1.00000000      1.00000000      1.00000000      1.00000000</v>
   <i type="logical" name="LCORR"> T  </i>
  </separator>
  <i type="logical" name="GGA_COMPAT"> T  </i>
  <i type="logical" name="LBERRY"> F  </i>
  <i type="int" name="ICORELEVEL">     0</i>
  <i type="logical" name="LDAU"> F  </i>
  <i type="int" name="I_CONSTRAINED_M">     0</i>
  <separator name="electronic exchange-correlation" >
   <i type="string" name="GGA">PE</i>
   <i type="int" name="VOSKOWN">     0</i>
   <i type="logical" name="LHFCALC"> F  </i>
   <i type="string" name="PRECFOCK"></i>
   <i type="logical" name="LSYMGRAD"> F  </i>
   <i type="logical" name="LHFONE"> F  </i>
   <i type="logical" name="LRHFCALC"> F  </i>
   <i type="logical" name="LTHOMAS"> F  </i>
   <i type="logical" name="LMODELHF"> F  </i>
   <i type="logical" name="LFOCKACE"> F  </i>
   <i name="ENCUT4O">     -1.00000000</i>
   <i type="int" name="EXXOEP">     0</i>
   <i type="int" name="FOURORBIT">     0</i>
   <i name="AEXX">      0.00000000</i>
   <i name="HFALPHA">      0.00000000</i>
   <i name="MCALPHA">      0.00000000</i>
   <i name="ALDAX">      1.00000000</i>
   <i name="AGGAX">      1.00000000</i>
   <i name="ALDAC">      1.00000000</i>
   <i name="AGGAC">      1.00000000</i>
   <i type="int" name="NKREDX">     1</i>
   <i type="int" name="NKREDY">     1</i>
   <i type="int" name="NKREDZ">     1</i>
   <i type="logical" name="SHIFTRED"> F  </i>
   <i type="logical" name="ODDONLY"> F  </i>
   <i type="logical" name="EVENONLY"> F  </i>
   <i type="int" name="LMAXFOCK">     0</i>
   <i type="int" name="NMAXFOCKAE">     0</i>
   <i type="logical" name="LFOCKAEDFT"> F  </i>
   <i name="HFSCREEN">      0.00000000</i>
   <i name="HFSCREENC">      0.00000000</i>
   <i type="int" name="NBANDSGWLOW">     0</i>
  </separator>
  <separator name="vdW DFT" >
   <i type="logical" name="LUSE_VDW"> F  </i>
   <i name="Zab_VDW">     -0.84910000</i>
   <i name="PARAM1">      0.12340000</i>
   <i name="PARAM2">      1.00000000</i>
   <i name="PARAM3">      0.00000000</i>
  </separator>
  <separator name="model GW" >
   <i type="int" name="MODEL_GW">     0</i>
   <i name="MODEL_EPS0">      7.20451093</i>
   <i name="MODEL_ALPHA">      1.00000000</i>
  </separator>
  <separator name="linear response parameters" >
   <i type="logical" name="LEPSILON"> F  </i>
   <i type="logical" name="LRPA"> F  </i>
   <i type="logical" name="LNABLA"> F  </i>
   <i type="logical" name="LVEL"> F  </i>
   <i type="int" name="KINTER">     0</i>
   <i name="CSHIFT">      0.10000000</i>
   <i name="OMEGAMAX">     -1.00000000</i>
   <i name="DEG_THRESHOLD">      0.00200000</i>
   <i name="RTIME">     -0.10000000</i>
   <i name="WPLASMAI">      0.00000000</i>
   <v name="DFIELD">      0.00000000      0.00000000      0.00000000</v>
   <v name="WPLASMA">      0.00000000      0.00000000      0.00000000      0.00000000      0.00000000      0.00000000      0.00000000      0.00000000      0.00000000</v>
  </separator>
  <separator name="orbital magnetization" >
   <i type="logical" name="NUCIND"> F  </i>
   <v name="MAGPOS">      0.00000000      0.00000000      0.00000000</v>
   <i type="logical" name="LNICSALL"> T  </i>
   <i type="logical" name="ORBITALMAG"> F  </i>
   <i type="logical" name="LMAGBLOCH"> F  </i>
   <i type="logical" name="LCHIMAG"> F  </i>
   <i type="logical" name="LGAUGE"> T  </i>
   <i type="int" name="MAGATOM">     0</i>
   <v name="MAGDIPOL">      0.00000000      0.00000000      0.00000000</v>
   <v name="AVECCONST">      0.00000000      0.00000000      0.00000000</v>
  </separator>
  <separator name="response functions" >
   <i type="logical" name="LFINITE_TEMPERATURE"> F  </i>
   <i type="logical" name="LADDER"> F  </i>
   <i type="logical" name="LRPAFORCE"> F  </i>
   <i type="logical" name="LFXC"> F  </i>
   <i type="logical" name="LHARTREE"> T  </i>
   <i type="int" name="IBSE">     0</i>
   <v type="int" name="KPOINT">    -1     0     0     0</v>
   <i type="logical" name="LTCTC"> F  </i>
   <i type="logical" name="LTCTE"> F  </i>
   <i type="logical" name="LTETE"> F  </i>
   <i type="logical" name="LTRIPLET"> F  </i>
   <i type="logical" name="LFXCEPS"> F  </i>
   <i type="logical" name="LFXHEG"> F  </i>
   <i type="int" name="NATURALO">     2</i>
   <i type="logical" name="LHOLEGF"> F  </i>
   <i type="logical" name="L2ORDER"> F  </i>
   <i type="logical" name="LDMP1"> F  </i>
   <i type="logical" name="LMP2LT"> F  </i>
   <i type="logical" name="LSMP2LT"> F  </i>
   <i type="logical" name="LGWLF"> F  </i>
   <i name="ENCUTGW">     -2.00000000</i>
   <i name="ENCUTGWSOFT">     -2.00000000</i>
   <i name="ENCUTLF">     -1.00000000</i>
   <i type="logical" name="LESF_SPLINES"> F  </i>
   <i type="int" name="LMAXMP2">    -1</i>
   <i name="SCISSOR">      0.00000000</i>
   <i type="int" name="NOMEGA">     0</i>
   <i type="int" name="NOMEGAR">     0</i>
   <i type="int" name="NBANDSGW">    -1</i>
   <i type="int" name="NBANDSO">    -1</i>
   <i type="int" name="NBANDSV">    -1</i>
   <i type="int" name="NELM">     1</i>
   <i type="int" name="NELMHF">     1</i>
   <i type="int" name="DIM">     3</i>
   <i type="int" name="IESPILON">     4</i>
   <i type="int" name="ANTIRES">     0</i>
   <i name="OMEGAMAX">    -30.00000000</i>
   <i name="OMEGAMIN">    -30.00000000</i>
   <i name="OMEGATL">   -200.00000000</i>
   <i type="int" name="OMEGAGRID">     0</i>
   <i name="CSHIFT">     -0.10000000</i>
   <i type="logical" name="LSELFENERGY"> F  </i>
   <i type="logical" name="LSPECTRAL"> F  </i>
   <i type="logical" name="LSPECTRALGW"> F  </i>
   <i type="logical" name="LSINGLES"> F  </i>
   <i type="logical" name="LFERMIGW"> F  </i>
   <i type="logical" name="ODDONLYGW"> F  </i>
   <i type="logical" name="EVENONLYGW"> F  </i>
   <i type="int" name="NKREDLFX">     1</i>
   <i type="int" name="NKREDLFY">     1</i>
   <i type="int" name="NKREDLFZ">     1</i>
   <i type="int" name="MAXMEM">  2800</i>
   <i type="int" name="TELESCOPE">     0</i>
   <i type="int" name="NTAUPAR">    -1</i>
   <i type="int" name="NOMEGAPAR">    -1</i>
   <i name="DAMP_NEWTON">      0.80000001</i>
   <i name="LAMBDA">      1.00000000</i>
  </separator>
  <separator name="External order field" >
   <i name="OFIELD_KAPPA">      0.00000000</i>
   <v name="OFIELD_K">      0.00000000      0.00000000      0.00000000</v>
   <i name="OFIELD_Q6_NEAR">      0.00000000</i>
   <i name="OFIELD_Q6_FAR">      0.00000000</i>
   <i name="OFIELD_A">      0.00000000</i>
  </separator>
 </parameters>
 <atominfo>
  <atoms>       4 </atoms>
  <types>       4 </types>
  <array name="atoms" >
   <dimension dim="1">ion</dimension>
   <field type="string">element</field>
   <field type="int">atomtype</field>
   <set>
    <rc><c>Pd</c><c>   1</c></rc>
    <rc><c>Ir</c><c>   2</c></rc>
    <rc><c>Pt</c><c>   3</c></rc>
    <rc><c>Cu</c><c>   4</c></rc>
   </set>
  </array>
  <array name="atomtypes" >
   <dimension dim="1">type</dimension>
   <field type="int">atomspertype</field>
   <field type="string">element</field>
   <field>mass</field>
   <field>valence</field>
   <field type="string">pseudopotential</field>
   <set>
    <rc><c>   1</c><c>Pd</c><c>    106.42000000</c><c>     10.00000000</c><c>  PAW_PBE Pd 04Jan2005                  </c></rc>
    <rc><c>   1</c><c>Ir</c><c>    192.22000000</c><c>      9.00000000</c><c>  PAW_PBE Ir 06Sep2000                  </c></rc>
    <rc><c>   1</c><c>Pt</c><c>    195.08000000</c><c>     10.00000000</c><c>  PAW_PBE Pt 04Feb2005                  </c></rc>
    <rc><c>   1</c><c>Cu</c><c>     63.54600000</c><c>     11.00000000</c><c>  PAW_PBE Cu 22Jun2005                  </c></rc>
   </set>
  </array>
 </atominfo>
 <structure name="initialpos" >
  <crystal>
   <varray name="basis" >
    <v>       3.63500000       0.00000000       0.00000000 </v>
    <v>       0.00000000       3.63500000       0.00000000 </v>
    <v>       0.00000000       0.00000000       3.63500000 </v>
   </varray>
   <i name="volume">     48.03007287 </i>
   <varray name="rec_basis" >
    <v>       0.27510316       0.00000000       0.00000000 </v>
    <v>       0.00000000       0.27510316       0.00000000 </v>
    <v>       0.00000000       0.00000000       0.27510316 </v>
   </varray>
  </crystal>
  <varray name="positions" >
   <v>       0.00000000       0.00000000       0.00000000 </v>
   <v>       0.50000000       0.50000000       0.00000000 </v>
   <v>       0.50000000       0.00000000       0.50000000 </v>
   <v>       0.00000000       0.50000000       0.50000000 </v>
  </varray>
 </structure>
 <calculation>
  <scstep>
   <time name="dav">    0.32    0.34</time>
   <time name="total">    0.33    0.35</time>
   <energy>
    <i name="alphaZ">    294.32394985 </i>
    <i name="ewald">  -3641.45145672 </i>
    <i name="hartreedc">   -571.19890525 </i>
    <i name="XCdc">      6.42737968 </i>
    <i name="pawpsdc">   3282.45812088 </i>
    <i name="pawaedc">  -3257.47686163 </i>
    <i name="eentropy">      0.00219434 </i>
    <i name="bandstr">    627.70599174 </i>
    <i name="atom">   3489.78669473 </i>
    <i name="e_fr_energy">    230.57710761 </i>
    <i name="e_wo_entrp">    230.57491326 </i>
    <i name="e_0_energy">    230.57637616 </i>
   </energy>
  </scstep>
  <scstep>
   <time name="dav">    0.31    0.31</time>
   <time name="total">    0.31    0.31</time>
   <energy>
    <i name="e_fr_energy">    -12.36741247 </i>
    <i name="e_wo_entrp">    -12.35884293 </i>
    <i name="e_0_energy">    -12.36455596 </i>
   </energy>
  </scstep>
  <scstep>
   <time name="dav">    0.33    0.33</time>
   <time name="total">    0.34    0.34</time>
   <energy>
    <i name="e_fr_energy">    -23.86443524 </i>
    <i name="e_wo_entrp">    -23.85216259 </i>
    <i name="e_0_energy">    -23.86034436 </i>
   </energy>
  </scstep>
  <scstep>
   <time name="dav">    0.35    0.35</time>
   <time name="total">    0.35    0.35</time>
   <energy>
    <i name="e_fr_energy">    -24.13506392 </i>
    <i name="e_wo_entrp">    -24.12259470 </i>
    <i name="e_0_energy">    -24.13090751 </i>
   </energy>
  </scstep>
  <scstep>
   <time name="dav">    0.46    0.46</time>
   <time name="total">    0.49    0.49</time>
   <energy>
    <i name="e_fr_energy">    -24.14639444 </i>
    <i name="e_wo_entrp">    -24.13392175 </i>
    <i name="e_0_energy">    -24.14223687 </i>
   </energy>
  </scstep>
  <scstep>
   <time name="dav">    0.34    0.34</time>
   <time name="total">    0.38    0.38</time>
   <energy>
    <i name="e_fr_energy">    -25.31407393 </i>
    <i name="e_wo_entrp">    -25.31968728 </i>
    <i name="e_0_energy">    -25.31594504 </i>
   </energy>
  </scstep>
  <scstep>
   <time name="dav">    0.37    0.37</time>
   <time name="total">    0.41    0.41</time>
   <energy>
    <i name="e_fr_energy">    -21.87857934 </i>
    <i name="e_wo_entrp">    -21.86981722 </i>
    <i name="e_0_energy">    -21.87565863 </i>
   </energy>
  </scstep>
  <scstep>
   <time name="dav">    0.38    0.38</time>
   <time name="total">    0.42    0.42</time>
   <energy>
    <i name="e_fr_energy">    -21.91307442 </i>
    <i name="e_wo_entrp">    -21.90571214 </i>
    <i name="e_0_energy">    -21.91062033 </i>
   </energy>
  </scstep>
  <scstep>
   <time name="dav">    0.36    0.36</time>
   <time name="total">    0.39    0.39</time>
   <energy>
    <i name="e_fr_energy">    -21.84622942 </i>
    <i name="e_wo_entrp">    -21.84367302 </i>
    <i name="e_0_energy">    -21.84537729 </i>
   </energy>
  </scstep>
  <scstep>
   <time name="dav">    0.40    0.40</time>
   <time name="total">    0.44    0.44</time>
   <energy>
    <i name="e_fr_energy">    -21.82984916 </i>
    <i name="e_wo_entrp">    -21.82622672 </i>
    <i name="e_0_energy">    -21.82864168 </i>
   </energy>
  </scstep>
  <scstep>
   <time name="dav">    0.36    0.36</time>
   <time name="total">    0.39    0.39</time>
   <energy>
    <i name="e_fr_energy">    -21.82440031 </i>
    <i name="e_wo_entrp">    -21.81807929 </i>
    <i name="e_0_energy">    -21.82229331 </i>
   </energy>
  </scstep>
  <scstep>
   <time name="dav">    0.40    0.40</time>
   <time name="total">    0.43    0.43</time>
   <energy>
    <i name="e_fr_energy">    -21.82441732 </i>
    <i name="e_wo_entrp">    -21.81847058 </i>
    <i name="e_0_energy">    -21.82243508 </i>
   </energy>
  </scstep>
  <scstep>
   <time name="dav">    0.37    0.37</time>
   <time name="total">    0.41    0.41</time>
   <energy>
    <i name="e_fr_energy">    -21.82442273 </i>
    <i name="e_wo_entrp">    -21.81814036 </i>
    <i name="e_0_energy">    -21.82232861 </i>
   </energy>
  </scstep>
  <scstep>
   <time name="dav">    0.39    0.39</time>
   <time name="total">    0.43    0.43</time>
   <energy>
    <i name="e_fr_energy">    -21.82437919 </i>
    <i name="e_wo_entrp">    -21.81820416 </i>
    <i name="e_0_energy">    -21.82232085 </i>
   </energy>
  </scstep>
  <scstep>
   <time name="dav">    0.38    0.38</time>
   <time name="total">    0.42    0.42</time>
   <energy>
    <i name="e_fr_energy">    -21.82437179 </i>
    <i name="e_wo_entrp">    -21.81825886 </i>
    <i name="e_0_energy">    -21.82233414 </i>
   </energy>
  </scstep>
  <scstep>
   <time name="dav">    0.23    0.23</time>
   <time name="total">    0.25    0.25</time>
   <energy>
    <i name="alphaZ">    294.32394985 </i>
    <i name="ewald">  -3641.45145672 </i>
    <i name="hartreedc">   -518.24545522 </i>
    <i name="XCdc">      4.61875213 </i>
    <i name="pawpsdc">   4538.48703822 </i>
    <i name="pawaedc">  -4529.66823878 </i>
    <i name="eentropy">     -0.00611621 </i>
    <i name="bandstr">    340.33046055 </i>
    <i name="atom">   3489.78669473 </i>
    <i name="e_fr_energy">    -21.82437145 </i>
    <i name="e_wo_entrp">    -21.81825524 </i>
    <i name="e_0_energy">    -21.82233271 </i>
   </energy>
  </scstep>
  <structure>
   <crystal>
    <varray name="basis" >
     <v>       3.63500000       0.00000000       0.00000000 </v>
     <v>       0.00000000       3.63500000       0.00000000 </v>
     <v>       0.00000000       0.00000000       3.63500000 </v>
    </varray>
    <i name="volume">     48.03007287 </i>
    <varray name="rec_basis" >
     <v>       0.27510316       0.00000000       0.00000000 </v>
     <v>       0.00000000       0.27510316       0.00000000 </v>
     <v>       0.00000000       0.00000000       0.27510316 </v>
    </varray>
   </crystal>
   <varray name="positions" >
    <v>       0.00000000       0.00000000       0.00000000 </v>
    <v>       0.50000000       0.50000000       0.00000000 </v>
    <v>       0.50000000       0.00000000       0.50000000 </v>
    <v>       0.00000000       0.50000000       0.50000000 </v>
   </varray>
  </structure>
  <varray name="forces" >
   <v>       0.00000000       0.00000000      -0.00000000 </v>
   <v>       0.00000000       0.00000000      -0.00000000 </v>
   <v>       0.00000000       0.00000000      -0.00000000 </v>
   <v>      -0.00000000      -0.00000000       0.00000000 </v>
  </varray>
  <varray name="stress" >
   <v>     603.59865881       0.00000000       0.00000000 </v>
   <v>       0.00000000     621.10845979       0.00000000 </v>
   <v>       0.00000000       0.00000000     601.82863773 </v>
  </varray>
  <energy>
   <i name="e_fr_energy">    -21.82437145 </i>
   <i name="e_wo_entrp">    -21.81825524 </i>
   <i name="e_0_energy">    -21.82233271 </i>
  </energy>
  <time name="totalsc">    6.55    6.57</time>
  <eigenvalues>
   <array>
    <dimension dim="1">band</dimension>
    <dimension dim="2">kpoint</dimension>
    <dimension dim="3">spin</dimension>
    <field>eigene</field>
    <field>occ</field>
    <set>
     <set comment="spin 1">
      <set comment="kpoint 1">
       <r>    1.5547    1.0000 </r>
       <r>    3.7769    1.0000 </r>
       <r>    5.0290    1.0000 </r>
       <r>    5.0517    1.0000 </r>
       <r>    5.1339    1.0000 </r>
       <r>    5.2510    1.0000 </r>
       <r>    5.2679    1.0000 </r>
       <r>    8.5374    1.0000 </r>
       <r>    8.5434    1.0000 </r>
       <r>    8.7040    1.0000 </r>
       <r>   10.2199    1.0000 </r>
       <r>   10.3922    1.0000 </r>
       <r>   11.2907    1.0000 </r>
       <r>   11.5155    1.0000 </r>
       <r>   11.7255    1.0000 </r>
       <r>   12.5633    0.3755 </r>
       <r>   12.8032   -0.0335 </r>
       <r>   13.0388   -0.0010 </r>
       <r>   13.3484   -0.0000 </r>
       <r>   13.9614   -0.0000 </r>
       <r>   14.5029   -0.0000 </r>
       <r>   14.5104   -0.0000 </r>
       <r>   14.5385   -0.0000 </r>
       <r>   14.7634   -0.0000 </r>
       <r>   23.2976    0.0000 </r>
       <r>   23.4964    0.0000 </r>
       <r>   24.1350    0.0000 </r>
       <r>   24.4408    0.0000 </r>
       <r>   24.7244    0.0000 </r>
       <r>   25.2668    0.0000 </r>
      </set>
      <set comment="kpoint 2">
       <r>    2.1052    1.0000 </r>
       <r>    4.1731    1.0000 </r>
       <r>    5.2546    1.0000 </r>
       <r>    5.2627    1.0000 </r>
       <r>    5.5059    1.0000 </r>
       <r>    5.6098    1.0000 </r>
       <r>    5.7038    1.0000 </r>
       <r>    8.2234    1.0000 </r>
       <r>    8.7359    1.0000 </r>
       <r>    8.9220    1.0000 </r>
       <r>   10.0779    1.0000 </r>
       <r>   10.2873    1.0000 </r>
       <r>   10.4734    1.0000 </r>
       <r>   10.6806    1.0000 </r>
       <r>   10.9544    1.0000 </r>
       <r>   11.2749    1.0000 </r>
       <r>   12.2813    1.0353 </r>
       <r>   12.3236    1.0296 </r>
       <r>   12.5588    0.3942 </r>
       <r>   12.7413   -0.0287 </r>
       <r>   13.0684   -0.0005 </r>
       <r>   14.7617   -0.0000 </r>
       <r>   16.8818   -0.0000 </r>
       <r>   16.9032   -0.0000 </r>
       <r>   22.4409    0.0000 </r>
       <r>   23.2418    0.0000 </r>
       <r>   24.6670    0.0000 </r>
       <r>   24.7300    0.0000 </r>
       <r>   25.5992    0.0000 </r>
       <r>   25.6764    0.0000 </r>
      </set>
      <set comment="kpoint 3">
       <r>    2.1731    1.0000 </r>
       <r>    4.2028    1.0000 </r>
       <r>    5.2185    1.0000 </r>
       <r>    5.3332    1.0000 </r>
       <r>    5.4535    1.0000 </r>
       <r>    5.6109    1.0000 </r>
       <r>    5.7127    1.0000 </r>
       <r>    8.4152    1.0000 </r>
       <r>    8.7702    1.0000 </r>
       <r>    8.7721    1.0000 </r>
       <r>    9.9901    1.0000 </r>
       <r>   10.3969    1.0000 </r>
       <r>   10.4549    1.0000 </r>
       <r>   10.5853    1.0000 </r>
       <r>   11.3501    1.0000 </r>
       <r>   11.8340    1.0000 </r>
       <r>   12.2529    1.0316 </r>
       <r>   12.4992    0.6429 </r>
       <r>   12.5110    0.5949 </r>
       <r>   12.6586    0.0689 </r>
       <r>   12.8988   -0.0135 </r>
       <r>   13.0205   -0.0015 </r>
       <r>   17.0381   -0.0000 </r>
       <r>   17.1895   -0.0000 </r>
       <r>   22.1340    0.0000 </r>
       <r>   23.9774    0.0000 </r>
       <r>   24.5634    0.0000 </r>
       <r>   24.5805    0.0000 </r>
       <r>   25.3500    0.0000 </r>
       <r>   25.9524    0.0000 </r>
      </set>
      <set comment="kpoint 4">
       <r>    2.1773    1.0000 </r>
       <r>    4.2164    1.0000 </r>
       <r>    5.4097    1.0000 </r>
       <r>    5.4615    1.0000 </r>
       <r>    5.4826    1.0000 </r>
       <r>    5.4848    1.0000 </r>
       <r>    5.5153    1.0000 </r>
       <r>    8.1987    1.0000 </r>
       <r>    8.7366    1.0000 </r>
       <r>    8.9233    1.0000 </r>
       <r>   10.0033    1.0000 </r>
       <r>   10.3570    1.0000 </r>
       <r>   10.4079    1.0000 </r>
       <r>   10.7778    1.0000 </r>
       <r>   11.0758    1.0000 </r>
       <r>   11.6922    1.0000 </r>
       <r>   12.0553    1.0019 </r>
       <r>   12.3451    1.0180 </r>
       <r>   12.4176    0.9106 </r>
       <r>   12.6132    0.1909 </r>
       <r>   13.0265   -0.0014 </r>
       <r>   13.9401   -0.0000 </r>
       <r>   17.0045   -0.0000 </r>
       <r>   17.1340   -0.0000 </r>
       <r>   21.7487    0.0000 </r>
       <r>   24.1968    0.0000 </r>
       <r>   24.6286    0.0000 </r>
       <r>   24.7115    0.0000 </r>
       <r>   25.5653    0.0000 </r>
       <r>   25.8129    0.0000 </r>
      </set>
      <set comment="kpoint 5">
       <r>    3.3577    1.0000 </r>
       <r>    5.0462    1.0000 </r>
       <r>    5.5341    1.0000 </r>
       <r>    5.7131    1.0000 </r>
       <r>    6.5698    1.0000 </r>
       <r>    6.6168    1.0000 </r>
       <r>    6.7118    1.0000 </r>
       <r>    7.5879    1.0000 </r>
       <r>    8.3486    1.0000 </r>
       <r>    8.4588    1.0000 </r>
       <r>    9.3834    1.0000 </r>
       <r>    9.5052    1.0000 </r>
       <r>    9.5446    1.0000 </r>
       <r>    9.7963    1.0000 </r>
       <r>   10.0354    1.0000 </r>
       <r>   10.4017    1.0000 </r>
       <r>   11.1397    1.0000 </r>
       <r>   11.2109    1.0000 </r>
       <r>   11.2572    1.0000 </r>
       <r>   11.5769    1.0000 </r>
       <r>   12.7395   -0.0279 </r>
       <r>   14.7601   -0.0000 </r>
       <r>   19.9012    0.0000 </r>
       <r>   20.0305    0.0000 </r>
       <r>   21.3505    0.0000 </r>
       <r>   23.0179    0.0000 </r>
       <r>   23.1973    0.0000 </r>
       <r>   23.2039    0.0000 </r>
       <r>   23.8294    0.0000 </r>
       <r>   27.0990    0.0000 </r>
      </set>
      <set comment="kpoint 6">
       <r>    3.7461    1.0000 </r>
       <r>    4.9882    1.0000 </r>
       <r>    5.3545    1.0000 </r>
       <r>    5.7661    1.0000 </r>
       <r>    6.5242    1.0000 </r>
       <r>    6.5698    1.0000 </r>
       <r>    6.8205    1.0000 </r>
       <r>    7.8409    1.0000 </r>
       <r>    8.6993    1.0000 </r>
       <r>    8.7251    1.0000 </r>
       <r>    9.3742    1.0000 </r>
       <r>    9.4742    1.0000 </r>
       <r>    9.4851    1.0000 </r>
       <r>    9.7069    1.0000 </r>
       <r>   10.3661    1.0000 </r>
       <r>   10.7536    1.0000 </r>
       <r>   10.7639    1.0000 </r>
       <r>   10.9609    1.0000 </r>
       <r>   11.1446    1.0000 </r>
       <r>   11.5549    1.0000 </r>
       <r>   12.4068    0.9346 </r>
       <r>   13.0032   -0.0022 </r>
       <r>   20.0269    0.0000 </r>
       <r>   20.1640    0.0000 </r>
       <r>   21.1698    0.0000 </r>
       <r>   22.8346    0.0000 </r>
       <r>   23.0908    0.0000 </r>
       <r>   23.6390    0.0000 </r>
       <r>   25.2900    0.0000 </r>
       <r>   25.7156    0.0000 </r>
      </set>
      <set comment="kpoint 7">
       <r>    3.7812    1.0000 </r>
       <r>    4.9851    1.0000 </r>
       <r>    5.5854    1.0000 </r>
       <r>    6.0593    1.0000 </r>
       <r>    6.4495    1.0000 </r>
       <r>    6.6171    1.0000 </r>
       <r>    6.6175    1.0000 </r>
       <r>    7.4554    1.0000 </r>
       <r>    8.3444    1.0000 </r>
       <r>    8.4745    1.0000 </r>
       <r>    9.3550    1.0000 </r>
       <r>    9.5605    1.0000 </r>
       <r>    9.5749    1.0000 </r>
       <r>    9.7582    1.0000 </r>
       <r>   10.1091    1.0000 </r>
       <r>   10.5746    1.0000 </r>
       <r>   10.8809    1.0000 </r>
       <r>   10.9719    1.0000 </r>
       <r>   11.3994    1.0000 </r>
       <r>   11.6503    1.0000 </r>
       <r>   12.1681    1.0134 </r>
       <r>   13.9132   -0.0000 </r>
       <r>   19.9853    0.0000 </r>
       <r>   20.2678    0.0000 </r>
       <r>   20.6725    0.0000 </r>
       <r>   22.8117    0.0000 </r>
       <r>   23.2368    0.0000 </r>
       <r>   24.2081    0.0000 </r>
       <r>   24.7361    0.0000 </r>
       <r>   26.1807    0.0000 </r>
      </set>
      <set comment="kpoint 8">
       <r>    2.6922    1.0000 </r>
       <r>    4.5801    1.0000 </r>
       <r>    5.5548    1.0000 </r>
       <r>    5.5665    1.0000 </r>
       <r>    5.7694    1.0000 </r>
       <r>    5.7826    1.0000 </r>
       <r>    6.1556    1.0000 </r>
       <r>    8.1282    1.0000 </r>
       <r>    8.8029    1.0000 </r>
       <r>    8.9674    1.0000 </r>
       <r>    9.6537    1.0000 </r>
       <r>    9.9074    1.0000 </r>
       <r>    9.9754    1.0000 </r>
       <r>   10.0514    1.0000 </r>
       <r>   10.6547    1.0000 </r>
       <r>   10.9092    1.0000 </r>
       <r>   11.4423    1.0000 </r>
       <r>   12.1272    1.0072 </r>
       <r>   12.2081    1.0218 </r>
       <r>   12.3166    1.0318 </r>
       <r>   13.2505   -0.0000 </r>
       <r>   14.4358   -0.0000 </r>
       <r>   15.7139   -0.0000 </r>
       <r>   18.5865    0.0000 </r>
       <r>   21.2926    0.0000 </r>
       <r>   23.7838    0.0000 </r>
       <r>   24.5250    0.0000 </r>
       <r>   25.4835    0.0000 </r>
       <r>   25.5729    0.0000 </r>
       <r>   26.5981    0.0000 </r>
      </set>
      <set comment="kpoint 9">
       <r>    2.7212    1.0000 </r>
       <r>    4.6240    1.0000 </r>
       <r>    5.5525    1.0000 </r>
       <r>    5.6011    1.0000 </r>
       <r>    5.7126    1.0000 </r>
       <r>    5.9186    1.0000 </r>
       <r>    6.0784    1.0000 </r>
       <r>    8.1049    1.0000 </r>
       <r>    8.8068    1.0000 </r>
       <r>    8.9684    1.0000 </r>
       <r>    9.6792    1.0000 </r>
       <r>    9.9156    1.0000 </r>
       <r>    9.9542    1.0000 </r>
       <r>   10.0434    1.0000 </r>
       <r>   10.6181    1.0000 </r>
       <r>   11.0994    1.0000 </r>
       <r>   11.5745    1.0000 </r>
       <r>   11.8217    1.0000 </r>
       <r>   12.1370    1.0084 </r>
       <r>   12.1508    1.0104 </r>
       <r>   13.0274   -0.0013 </r>
       <r>   14.3770   -0.0000 </r>
       <r>   16.2817   -0.0000 </r>
       <r>   18.4529    0.0000 </r>
       <r>   21.1282    0.0000 </r>
       <r>   23.8728    0.0000 </r>
       <r>   24.1468    0.0000 </r>
       <r>   25.5802    0.0000 </r>
       <r>   25.6180    0.0000 </r>
       <r>   26.8146    0.0000 </r>
      </set>
      <set comment="kpoint 10">
       <r>    2.6927    1.0000 </r>
       <r>    4.5955    1.0000 </r>
       <r>    5.5658    1.0000 </r>
       <r>    5.5835    1.0000 </r>
       <r>    5.7463    1.0000 </r>
       <r>    5.9152    1.0000 </r>
       <r>    6.0672    1.0000 </r>
       <r>    7.9658    1.0000 </r>
       <r>    8.8802    1.0000 </r>
       <r>    8.9989    1.0000 </r>
       <r>    9.6491    1.0000 </r>
       <r>    9.8839    1.0000 </r>
       <r>    9.8917    1.0000 </r>
       <r>   10.0120    1.0000 </r>
       <r>   10.6219    1.0000 </r>
       <r>   10.7305    1.0000 </r>
       <r>   11.2887    1.0000 </r>
       <r>   12.2410    1.0293 </r>
       <r>   12.3229    1.0298 </r>
       <r>   12.5971    0.2455 </r>
       <r>   13.4054   -0.0000 </r>
       <r>   14.7647   -0.0000 </r>
       <r>   15.2650   -0.0000 </r>
       <r>   18.5621    0.0000 </r>
       <r>   21.2978    0.0000 </r>
       <r>   23.6510    0.0000 </r>
       <r>   24.4191    0.0000 </r>
       <r>   25.6657    0.0000 </r>
       <r>   25.6815    0.0000 </r>
       <r>   26.7420    0.0000 </r>
      </set>
      <set comment="kpoint 11">
       <r>    3.9105    1.0000 </r>
       <r>    5.4364    1.0000 </r>
       <r>    5.8951    1.0000 </r>
       <r>    6.0395    1.0000 </r>
       <r>    6.5345    1.0000 </r>
       <r>    6.7366    1.0000 </r>
       <r>    6.9802    1.0000 </r>
       <r>    7.5197    1.0000 </r>
       <r>    7.8969    1.0000 </r>
       <r>    8.4095    1.0000 </r>
       <r>    8.7307    1.0000 </r>
       <r>    8.8915    1.0000 </r>
       <r>    9.5138    1.0000 </r>
       <r>    9.8510    1.0000 </r>
       <r>   10.0288    1.0000 </r>
       <r>   10.5037    1.0000 </r>
       <r>   10.7347    1.0000 </r>
       <r>   11.4552    1.0000 </r>
       <r>   11.4574    1.0000 </r>
       <r>   12.1567    1.0114 </r>
       <r>   12.9726   -0.0041 </r>
       <r>   13.3545   -0.0000 </r>
       <r>   17.2131   -0.0000 </r>
       <r>   19.3415    0.0000 </r>
       <r>   21.3914    0.0000 </r>
       <r>   22.4527    0.0000 </r>
       <r>   24.2984    0.0000 </r>
       <r>   25.0004    0.0000 </r>
       <r>   26.4959    0.0000 </r>
       <r>   28.0579    0.0000 </r>
      </set>
      <set comment="kpoint 12">
       <r>    4.1437    1.0000 </r>
       <r>    5.4167    1.0000 </r>
       <r>    5.6845    1.0000 </r>
       <r>    6.0318    1.0000 </r>
       <r>    6.4667    1.0000 </r>
       <r>    6.7150    1.0000 </r>
       <r>    7.1184    1.0000 </r>
       <r>    7.7200    1.0000 </r>
       <r>    8.0133    1.0000 </r>
       <r>    8.6162    1.0000 </r>
       <r>    8.7183    1.0000 </r>
       <r>    8.9145    1.0000 </r>
       <r>    9.4994    1.0000 </r>
       <r>    9.8019    1.0000 </r>
       <r>   10.4439    1.0000 </r>
       <r>   10.4942    1.0000 </r>
       <r>   10.6184    1.0000 </r>
       <r>   11.1144    1.0000 </r>
       <r>   11.4590    1.0000 </r>
       <r>   12.1744    1.0146 </r>
       <r>   12.4129    0.9215 </r>
       <r>   12.7245   -0.0198 </r>
       <r>   17.7429   -0.0000 </r>
       <r>   19.3386    0.0000 </r>
       <r>   21.1548    0.0000 </r>
       <r>   22.9234    0.0000 </r>
       <r>   24.0467    0.0000 </r>
       <r>   24.5495    0.0000 </r>
       <r>   26.3201    0.0000 </r>
       <r>   28.0617    0.0000 </r>
      </set>
      <set comment="kpoint 13">
       <r>    4.2084    1.0000 </r>
       <r>    5.4029    1.0000 </r>
       <r>    5.9572    1.0000 </r>
       <r>    6.2224    1.0000 </r>
       <r>    6.4599    1.0000 </r>
       <r>    6.8761    1.0000 </r>
       <r>    6.8966    1.0000 </r>
       <r>    7.3208    1.0000 </r>
       <r>    7.7503    1.0000 </r>
       <r>    8.4780    1.0000 </r>
       <r>    8.8036    1.0000 </r>
       <r>    8.9330    1.0000 </r>
       <r>    9.5486    1.0000 </r>
       <r>    9.8644    1.0000 </r>
       <r>   10.0613    1.0000 </r>
       <r>   10.5236    1.0000 </r>
       <r>   10.9025    1.0000 </r>
       <r>   11.3570    1.0000 </r>
       <r>   11.4564    1.0000 </r>
       <r>   11.8192    1.0000 </r>
       <r>   12.6294    0.1417 </r>
       <r>   12.8591   -0.0218 </r>
       <r>   17.5714   -0.0000 </r>
       <r>   19.4379    0.0000 </r>
       <r>   21.1486    0.0000 </r>
       <r>   22.4433    0.0000 </r>
       <r>   24.0202    0.0000 </r>
       <r>   25.2226    0.0000 </r>
       <r>   26.5991    0.0000 </r>
       <r>   28.0497    0.0000 </r>
      </set>
      <set comment="kpoint 14">
       <r>    4.1994    1.0000 </r>
       <r>    5.3746    1.0000 </r>
       <r>    5.7579    1.0000 </r>
       <r>    6.0510    1.0000 </r>
       <r>    6.4766    1.0000 </r>
       <r>    6.6882    1.0000 </r>
       <r>    7.0909    1.0000 </r>
       <r>    7.7202    1.0000 </r>
       <r>    8.2087    1.0000 </r>
       <r>    8.6036    1.0000 </r>
       <r>    8.6361    1.0000 </r>
       <r>    8.8810    1.0000 </r>
       <r>    9.5067    1.0000 </r>
       <r>    9.8434    1.0000 </r>
       <r>   10.3023    1.0000 </r>
       <r>   10.5442    1.0000 </r>
       <r>   10.6792    1.0000 </r>
       <r>   11.1445    1.0000 </r>
       <r>   11.5480    1.0000 </r>
       <r>   12.0431    1.0014 </r>
       <r>   12.2801    1.0352 </r>
       <r>   12.5653    0.3676 </r>
       <r>   17.6280   -0.0000 </r>
       <r>   19.3994    0.0000 </r>
       <r>   21.1684    0.0000 </r>
       <r>   22.8893    0.0000 </r>
       <r>   23.9660    0.0000 </r>
       <r>   24.8005    0.0000 </r>
       <r>   26.6666    0.0000 </r>
       <r>   28.1371    0.0000 </r>
      </set>
      <set comment="kpoint 15">
       <r>    3.9037    1.0000 </r>
       <r>    5.4609    1.0000 </r>
       <r>    5.8731    1.0000 </r>
       <r>    6.0103    1.0000 </r>
       <r>    6.4685    1.0000 </r>
       <r>    6.7747    1.0000 </r>
       <r>    7.0442    1.0000 </r>
       <r>    7.4820    1.0000 </r>
       <r>    7.7765    1.0000 </r>
       <r>    8.4809    1.0000 </r>
       <r>    8.8010    1.0000 </r>
       <r>    8.9571    1.0000 </r>
       <r>    9.5222    1.0000 </r>
       <r>    9.8678    1.0000 </r>
       <r>    9.9735    1.0000 </r>
       <r>   10.4932    1.0000 </r>
       <r>   11.0759    1.0000 </r>
       <r>   11.0986    1.0000 </r>
       <r>   11.5742    1.0000 </r>
       <r>   12.1736    1.0144 </r>
       <r>   12.9304   -0.0084 </r>
       <r>   13.2939   -0.0000 </r>
       <r>   17.1923   -0.0000 </r>
       <r>   19.4392    0.0000 </r>
       <r>   21.2988    0.0000 </r>
       <r>   22.4119    0.0000 </r>
       <r>   24.1665    0.0000 </r>
       <r>   24.9088    0.0000 </r>
       <r>   26.6548    0.0000 </r>
       <r>   27.9338    0.0000 </r>
      </set>
      <set comment="kpoint 16">
       <r>    4.1633    1.0000 </r>
       <r>    5.3861    1.0000 </r>
       <r>    5.9483    1.0000 </r>
       <r>    6.2420    1.0000 </r>
       <r>    6.4939    1.0000 </r>
       <r>    6.8385    1.0000 </r>
       <r>    6.8681    1.0000 </r>
       <r>    7.3741    1.0000 </r>
       <r>    7.7568    1.0000 </r>
       <r>    8.4163    1.0000 </r>
       <r>    8.7012    1.0000 </r>
       <r>    8.9328    1.0000 </r>
       <r>    9.5437    1.0000 </r>
       <r>    9.8055    1.0000 </r>
       <r>   10.1913    1.0000 </r>
       <r>   10.5498    1.0000 </r>
       <r>   10.6039    1.0000 </r>
       <r>   11.2686    1.0000 </r>
       <r>   11.7565    1.0000 </r>
       <r>   11.7617    1.0000 </r>
       <r>   12.8432   -0.0255 </r>
       <r>   13.0219   -0.0015 </r>
       <r>   17.6882   -0.0000 </r>
       <r>   19.2813    0.0000 </r>
       <r>   21.2432    0.0000 </r>
       <r>   22.5008    0.0000 </r>
       <r>   24.2163    0.0000 </r>
       <r>   25.0516    0.0000 </r>
       <r>   26.1289    0.0000 </r>
       <r>   28.2732    0.0000 </r>
      </set>
      <set comment="kpoint 17">
       <r>    5.2167    1.0000 </r>
       <r>    6.0472    1.0000 </r>
       <r>    6.4772    1.0000 </r>
       <r>    6.7066    1.0000 </r>
       <r>    6.8582    1.0000 </r>
       <r>    7.0545    1.0000 </r>
       <r>    7.2245    1.0000 </r>
       <r>    7.3496    1.0000 </r>
       <r>    7.3875    1.0000 </r>
       <r>    8.1249    1.0000 </r>
       <r>    8.2485    1.0000 </r>
       <r>    8.5933    1.0000 </r>
       <r>    9.4763    1.0000 </r>
       <r>    9.7065    1.0000 </r>
       <r>    9.7416    1.0000 </r>
       <r>   10.0308    1.0000 </r>
       <r>   10.3184    1.0000 </r>
       <r>   10.9441    1.0000 </r>
       <r>   11.4390    1.0000 </r>
       <r>   11.4808    1.0000 </r>
       <r>   12.5089    0.6036 </r>
       <r>   13.6872   -0.0000 </r>
       <r>   15.5935   -0.0000 </r>
       <r>   16.9624   -0.0000 </r>
       <r>   23.3062    0.0000 </r>
       <r>   23.6736    0.0000 </r>
       <r>   25.4160    0.0000 </r>
       <r>   26.1608    0.0000 </r>
       <r>   26.1615    0.0000 </r>
       <r>   26.8749    0.0000 </r>
      </set>
      <set comment="kpoint 18">
       <r>    5.0470    1.0000 </r>
       <r>    5.9275    1.0000 </r>
       <r>    6.2413    1.0000 </r>
       <r>    6.6381    1.0000 </r>
       <r>    6.9462    1.0000 </r>
       <r>    7.0728    1.0000 </r>
       <r>    7.1602    1.0000 </r>
       <r>    7.4461    1.0000 </r>
       <r>    7.4845    1.0000 </r>
       <r>    8.1440    1.0000 </r>
       <r>    8.3772    1.0000 </r>
       <r>    8.5868    1.0000 </r>
       <r>    9.4725    1.0000 </r>
       <r>    9.6974    1.0000 </r>
       <r>    9.8039    1.0000 </r>
       <r>    9.8957    1.0000 </r>
       <r>   10.1691    1.0000 </r>
       <r>   10.8776    1.0000 </r>
       <r>   11.7380    1.0000 </r>
       <r>   11.8163    1.0000 </r>
       <r>   12.5585    0.3953 </r>
       <r>   13.4287   -0.0000 </r>
       <r>   16.3821   -0.0000 </r>
       <r>   17.1319   -0.0000 </r>
       <r>   22.9596    0.0000 </r>
       <r>   23.3446    0.0000 </r>
       <r>   25.0356    0.0000 </r>
       <r>   25.3544    0.0000 </r>
       <r>   26.0873    0.0000 </r>
       <r>   27.2130    0.0000 </r>
      </set>
      <set comment="kpoint 19">
       <r>    5.1623    1.0000 </r>
       <r>    6.1935    1.0000 </r>
       <r>    6.4068    1.0000 </r>
       <r>    6.5680    1.0000 </r>
       <r>    6.8026    1.0000 </r>
       <r>    6.9592    1.0000 </r>
       <r>    6.9994    1.0000 </r>
       <r>    7.2630    1.0000 </r>
       <r>    7.6813    1.0000 </r>
       <r>    8.2854    1.0000 </r>
       <r>    8.4439    1.0000 </r>
       <r>    8.7094    1.0000 </r>
       <r>    9.4107    1.0000 </r>
       <r>    9.7118    1.0000 </r>
       <r>    9.7321    1.0000 </r>
       <r>   10.0422    1.0000 </r>
       <r>   10.7346    1.0000 </r>
       <r>   10.8530    1.0000 </r>
       <r>   11.0850    1.0000 </r>
       <r>   11.3194    1.0000 </r>
       <r>   12.7345   -0.0256 </r>
       <r>   14.1757   -0.0000 </r>
       <r>   15.0058   -0.0000 </r>
       <r>   16.8194   -0.0000 </r>
       <r>   23.2358    0.0000 </r>
       <r>   23.5845    0.0000 </r>
       <r>   25.6565    0.0000 </r>
       <r>   25.9613    0.0000 </r>
       <r>   26.4012    0.0000 </r>
       <r>   26.6532    0.0000 </r>
      </set>
      <set comment="kpoint 20">
       <r>    3.1497    1.0000 </r>
       <r>    4.9011    1.0000 </r>
       <r>    5.6657    1.0000 </r>
       <r>    5.8227    1.0000 </r>
       <r>    5.8907    1.0000 </r>
       <r>    6.3772    1.0000 </r>
       <r>    6.5384    1.0000 </r>
       <r>    7.8997    1.0000 </r>
       <r>    8.8746    1.0000 </r>
       <r>    8.9829    1.0000 </r>
       <r>    9.1791    1.0000 </r>
       <r>    9.3977    1.0000 </r>
       <r>    9.6100    1.0000 </r>
       <r>   10.0167    1.0000 </r>
       <r>   10.1560    1.0000 </r>
       <r>   10.4564    1.0000 </r>
       <r>   11.3081    1.0000 </r>
       <r>   11.5063    1.0000 </r>
       <r>   11.5873    1.0000 </r>
       <r>   12.4026    0.9430 </r>
       <r>   13.4387   -0.0000 </r>
       <r>   15.5366   -0.0000 </r>
       <r>   16.3757   -0.0000 </r>
       <r>   16.7838   -0.0000 </r>
       <r>   21.9726    0.0000 </r>
       <r>   22.4747    0.0000 </r>
       <r>   23.1610    0.0000 </r>
       <r>   25.7752    0.0000 </r>
       <r>   26.1179    0.0000 </r>
       <r>   26.7870    0.0000 </r>
      </set>
      <set comment="kpoint 21">
       <r>    4.1287    1.0000 </r>
       <r>    5.4302    1.0000 </r>
       <r>    5.9755    1.0000 </r>
       <r>    6.3394    1.0000 </r>
       <r>    6.4577    1.0000 </r>
       <r>    6.8056    1.0000 </r>
       <r>    7.4061    1.0000 </r>
       <r>    7.6611    1.0000 </r>
       <r>    8.0527    1.0000 </r>
       <r>    8.2746    1.0000 </r>
       <r>    8.7375    1.0000 </r>
       <r>    8.9221    1.0000 </r>
       <r>    9.1776    1.0000 </r>
       <r>    9.6544    1.0000 </r>
       <r>    9.7395    1.0000 </r>
       <r>   10.3622    1.0000 </r>
       <r>   11.0763    1.0000 </r>
       <r>   11.2025    1.0000 </r>
       <r>   11.7660    1.0000 </r>
       <r>   12.3118    1.0331 </r>
       <r>   12.8824   -0.0167 </r>
       <r>   13.2836   -0.0000 </r>
       <r>   17.8661   -0.0000 </r>
       <r>   17.8891   -0.0000 </r>
       <r>   20.1222    0.0000 </r>
       <r>   20.6802    0.0000 </r>
       <r>   24.9149    0.0000 </r>
       <r>   26.1264    0.0000 </r>
       <r>   26.7909    0.0000 </r>
       <r>   27.1726    0.0000 </r>
      </set>
      <set comment="kpoint 22">
       <r>    4.3294    1.0000 </r>
       <r>    5.3507    1.0000 </r>
       <r>    5.7728    1.0000 </r>
       <r>    6.2922    1.0000 </r>
       <r>    6.5638    1.0000 </r>
       <r>    6.8235    1.0000 </r>
       <r>    7.6112    1.0000 </r>
       <r>    7.7687    1.0000 </r>
       <r>    8.0180    1.0000 </r>
       <r>    8.3998    1.0000 </r>
       <r>    8.8582    1.0000 </r>
       <r>    8.9387    1.0000 </r>
       <r>    9.0832    1.0000 </r>
       <r>    9.6490    1.0000 </r>
       <r>    9.8589    1.0000 </r>
       <r>    9.9641    1.0000 </r>
       <r>   11.1254    1.0000 </r>
       <r>   11.3016    1.0000 </r>
       <r>   11.5525    1.0000 </r>
       <r>   12.1731    1.0143 </r>
       <r>   12.8088   -0.0326 </r>
       <r>   13.0389   -0.0010 </r>
       <r>   17.8781   -0.0000 </r>
       <r>   18.1446    0.0000 </r>
       <r>   19.9111    0.0000 </r>
       <r>   20.7133    0.0000 </r>
       <r>   25.0520    0.0000 </r>
       <r>   26.3407    0.0000 </r>
       <r>   26.8880    0.0000 </r>
       <r>   27.1849    0.0000 </r>
      </set>
      <set comment="kpoint 23">
       <r>    4.3430    1.0000 </r>
       <r>    5.3445    1.0000 </r>
       <r>    5.9512    1.0000 </r>
       <r>    6.3609    1.0000 </r>
       <r>    6.4838    1.0000 </r>
       <r>    7.0429    1.0000 </r>
       <r>    7.2141    1.0000 </r>
       <r>    7.6649    1.0000 </r>
       <r>    7.9917    1.0000 </r>
       <r>    8.2386    1.0000 </r>
       <r>    8.7354    1.0000 </r>
       <r>    8.9298    1.0000 </r>
       <r>    9.1840    1.0000 </r>
       <r>    9.6779    1.0000 </r>
       <r>    9.8012    1.0000 </r>
       <r>   10.1704    1.0000 </r>
       <r>   11.1403    1.0000 </r>
       <r>   11.2742    1.0000 </r>
       <r>   11.6770    1.0000 </r>
       <r>   12.1137    1.0057 </r>
       <r>   12.8280   -0.0289 </r>
       <r>   13.2026   -0.0000 </r>
       <r>   17.8877   -0.0000 </r>
       <r>   18.0654    0.0000 </r>
       <r>   19.8871    0.0000 </r>
       <r>   20.8677    0.0000 </r>
       <r>   24.9447    0.0000 </r>
       <r>   26.1057    0.0000 </r>
       <r>   26.7826    0.0000 </r>
       <r>   27.1995    0.0000 </r>
      </set>
      <set comment="kpoint 24">
       <r>    4.7782    1.0000 </r>
       <r>    5.1808    1.0000 </r>
       <r>    5.6871    1.0000 </r>
       <r>    6.1057    1.0000 </r>
       <r>    7.1388    1.0000 </r>
       <r>    7.5477    1.0000 </r>
       <r>    7.9016    1.0000 </r>
       <r>    8.2332    1.0000 </r>
       <r>    8.3769    1.0000 </r>
       <r>    8.4217    1.0000 </r>
       <r>    8.6836    1.0000 </r>
       <r>    8.9216    1.0000 </r>
       <r>    9.0532    1.0000 </r>
       <r>    9.2263    1.0000 </r>
       <r>    9.4146    1.0000 </r>
       <r>    9.5231    1.0000 </r>
       <r>   10.8542    1.0000 </r>
       <r>   11.4008    1.0000 </r>
       <r>   11.9199    1.0001 </r>
       <r>   12.4068    0.9347 </r>
       <r>   12.5555    0.4079 </r>
       <r>   13.7668   -0.0000 </r>
       <r>   15.3401   -0.0000 </r>
       <r>   16.5364   -0.0000 </r>
       <r>   20.4625    0.0000 </r>
       <r>   22.2021    0.0000 </r>
       <r>   22.7369    0.0000 </r>
       <r>   24.7289    0.0000 </r>
       <r>   27.4750    0.0000 </r>
       <r>   29.1054    0.0000 </r>
      </set>
      <set comment="kpoint 25">
       <r>    4.7519    1.0000 </r>
       <r>    5.2294    1.0000 </r>
       <r>    5.4265    1.0000 </r>
       <r>    6.1025    1.0000 </r>
       <r>    7.1542    1.0000 </r>
       <r>    7.5546    1.0000 </r>
       <r>    7.8734    1.0000 </r>
       <r>    8.2389    1.0000 </r>
       <r>    8.3813    1.0000 </r>
       <r>    8.4649    1.0000 </r>
       <r>    8.6749    1.0000 </r>
       <r>    8.9280    1.0000 </r>
       <r>    9.0753    1.0000 </r>
       <r>    9.2275    1.0000 </r>
       <r>    9.4081    1.0000 </r>
       <r>    9.5024    1.0000 </r>
       <r>   10.9057    1.0000 </r>
       <r>   11.4359    1.0000 </r>
       <r>   12.1037    1.0048 </r>
       <r>   12.3486    1.0155 </r>
       <r>   12.5426    0.4619 </r>
       <r>   13.5708   -0.0000 </r>
       <r>   16.0013   -0.0000 </r>
       <r>   16.8106   -0.0000 </r>
       <r>   20.1112    0.0000 </r>
       <r>   21.8201    0.0000 </r>
       <r>   22.6311    0.0000 </r>
       <r>   24.5495    0.0000 </r>
       <r>   27.6616    0.0000 </r>
       <r>   29.0398    0.0000 </r>
      </set>
      <set comment="kpoint 26">
       <r>    4.7677    1.0000 </r>
       <r>    5.2082    1.0000 </r>
       <r>    5.7353    1.0000 </r>
       <r>    5.9176    1.0000 </r>
       <r>    7.1264    1.0000 </r>
       <r>    7.4318    1.0000 </r>
       <r>    7.8694    1.0000 </r>
       <r>    8.3877    1.0000 </r>
       <r>    8.4901    1.0000 </r>
       <r>    8.5800    1.0000 </r>
       <r>    8.7897    1.0000 </r>
       <r>    8.8660    1.0000 </r>
       <r>    9.0545    1.0000 </r>
       <r>    9.3050    1.0000 </r>
       <r>    9.3578    1.0000 </r>
       <r>    9.4307    1.0000 </r>
       <r>   11.0421    1.0000 </r>
       <r>   11.1359    1.0000 </r>
       <r>   11.6989    1.0000 </r>
       <r>   12.5540    0.4140 </r>
       <r>   12.7234   -0.0190 </r>
       <r>   14.2060   -0.0000 </r>
       <r>   14.7773   -0.0000 </r>
       <r>   16.4539   -0.0000 </r>
       <r>   20.4136    0.0000 </r>
       <r>   22.2998    0.0000 </r>
       <r>   22.7061    0.0000 </r>
       <r>   24.8141    0.0000 </r>
       <r>   27.2773    0.0000 </r>
       <r>   29.1721    0.0000 </r>
      </set>
      <set comment="kpoint 27">
       <r>    4.4454    1.0000 </r>
       <r>    4.5848    1.0000 </r>
       <r>    4.9422    1.0000 </r>
       <r>    5.3237    1.0000 </r>
       <r>    7.7707    1.0000 </r>
       <r>    7.9070    1.0000 </r>
       <r>    7.9930    1.0000 </r>
       <r>    8.4135    1.0000 </r>
       <r>    8.4970    1.0000 </r>
       <r>    8.7887    1.0000 </r>
       <r>    8.8238    1.0000 </r>
       <r>    9.0616    1.0000 </r>
       <r>    9.9118    1.0000 </r>
       <r>    9.9828    1.0000 </r>
       <r>   10.1077    1.0000 </r>
       <r>   10.5566    1.0000 </r>
       <r>   11.3619    1.0000 </r>
       <r>   11.8340    1.0000 </r>
       <r>   11.8983    1.0000 </r>
       <r>   12.5082    0.6062 </r>
       <r>   13.2679   -0.0000 </r>
       <r>   13.8474   -0.0000 </r>
       <r>   14.3804   -0.0000 </r>
       <r>   14.6322   -0.0000 </r>
       <r>   19.8629    0.0000 </r>
       <r>   20.0954    0.0000 </r>
       <r>   21.0102    0.0000 </r>
       <r>   22.6293    0.0000 </r>
       <r>   28.9228    0.0000 </r>
       <r>   29.0151    0.0000 </r>
      </set>
     </set>
    </set>
   </array>
  </eigenvalues>
  <separator name="orbital magnetization" >
   <v name="MAGDIPOLOUT">      0.00000000      0.00000000      0.00000000</v>
  </separator>
  <dos>
   <i name="efermi">     12.53356533 </i>
   <total>
    <array>
     <dimension dim="1">gridpoints</dimension>
     <dimension dim="2">spin</dimension>
     <field>energy</field>
     <field>total</field>
     <field>integrated</field>
     <set>
      <set comment="spin 1">
       <r>    -0.4453     0.0000     0.0000 </r>
       <r>    -0.3399     0.0000     0.0000 </r>
       <r>    -0.2345     0.0000     0.0000 </r>
       <r>    -0.1291    -0.0000    -0.0000 </r>
       <r>    -0.0237    -0.0000    -0.0000 </r>
       <r>     0.0817    -0.0000    -0.0000 </r>
       <r>     0.1871    -0.0000    -0.0000 </r>
       <r>     0.2925    -0.0000    -0.0000 </r>
       <r>     0.3979    -0.0000    -0.0000 </r>
       <r>     0.5033    -0.0000    -0.0000 </r>
       <r>     0.6086    -0.0000    -0.0000 </r>
       <r>     0.7140    -0.0000    -0.0000 </r>
       <r>     0.8194    -0.0000    -0.0000 </r>
       <r>     0.9248    -0.0000    -0.0000 </r>
       <r>     1.0302    -0.0001    -0.0000 </r>
       <r>     1.1356    -0.0008    -0.0001 </r>
       <r>     1.2410    -0.0028    -0.0004 </r>
       <r>     1.3464    -0.0007    -0.0005 </r>
       <r>     1.4518     0.0229     0.0019 </r>
       <r>     1.5572     0.0588     0.0081 </r>
       <r>     1.6626     0.0562     0.0141 </r>
       <r>     1.7679     0.0128     0.0154 </r>
       <r>     1.8733    -0.0181     0.0135 </r>
       <r>     1.9787     0.0303     0.0167 </r>
       <r>     2.0841     0.2125     0.0391 </r>
       <r>     2.1895     0.3696     0.0781 </r>
       <r>     2.2949     0.2656     0.1060 </r>
       <r>     2.4003     0.0361     0.1099 </r>
       <r>     2.5057    -0.0042     0.1094 </r>
       <r>     2.6111     0.3147     0.1426 </r>
       <r>     2.7165     0.7258     0.2191 </r>
       <r>     2.8219     0.6292     0.2854 </r>
       <r>     2.9272     0.1944     0.3059 </r>
       <r>     3.0326     0.1185     0.3184 </r>
       <r>     3.1380     0.4091     0.3615 </r>
       <r>     3.2434     0.5184     0.4161 </r>
       <r>     3.3488     0.3162     0.4494 </r>
       <r>     3.4542     0.1056     0.4606 </r>
       <r>     3.5596     0.0079     0.4614 </r>
       <r>     3.6650     0.0832     0.4702 </r>
       <r>     3.7704     0.3506     0.5071 </r>
       <r>     3.8758     0.5815     0.5684 </r>
       <r>     3.9812     0.6731     0.6393 </r>
       <r>     4.0866     1.1158     0.7569 </r>
       <r>     4.1919     1.9448     0.9619 </r>
       <r>     4.2973     2.2329     1.1972 </r>
       <r>     4.4027     1.8511     1.3923 </r>
       <r>     4.5081     1.5440     1.5550 </r>
       <r>     4.6135     1.6874     1.7329 </r>
       <r>     4.7189     2.0246     1.9462 </r>
       <r>     4.8243     2.1773     2.1757 </r>
       <r>     4.9297     1.9898     2.3854 </r>
       <r>     5.0351     1.7497     2.5698 </r>
       <r>     5.1405     2.1624     2.7977 </r>
       <r>     5.2459     3.5332     3.1701 </r>
       <r>     5.3512     5.0668     3.7041 </r>
       <r>     5.4566     5.6515     4.2997 </r>
       <r>     5.5620     5.2008     4.8478 </r>
       <r>     5.6674     4.9658     5.3712 </r>
       <r>     5.7728     5.3531     5.9353 </r>
       <r>     5.8782     5.7663     6.5430 </r>
       <r>     5.9836     5.9270     7.1677 </r>
       <r>     6.0890     5.2261     7.7185 </r>
       <r>     6.1944     3.8186     8.1209 </r>
       <r>     6.2998     3.2863     8.4673 </r>
       <r>     6.4052     4.3510     8.9258 </r>
       <r>     6.5106     5.4917     9.5046 </r>
       <r>     6.6159     5.0306    10.0348 </r>
       <r>     6.7213     3.9547    10.4516 </r>
       <r>     6.8267     3.7495    10.8468 </r>
       <r>     6.9321     3.8387    11.2513 </r>
       <r>     7.0375     4.0088    11.6738 </r>
       <r>     7.1429     4.2720    12.1240 </r>
       <r>     7.2483     3.7555    12.5198 </r>
       <r>     7.3537     3.1169    12.8483 </r>
       <r>     7.4591     3.3874    13.2053 </r>
       <r>     7.5645     3.8908    13.6154 </r>
       <r>     7.6699     4.2331    14.0615 </r>
       <r>     7.7752     4.7321    14.5602 </r>
       <r>     7.8806     5.2752    15.1162 </r>
       <r>     7.9860     5.2243    15.6668 </r>
       <r>     8.0914     4.4057    16.1311 </r>
       <r>     8.1968     4.1129    16.5646 </r>
       <r>     8.3022     5.3287    17.1262 </r>
       <r>     8.4076     6.9853    17.8624 </r>
       <r>     8.5130     7.0573    18.6062 </r>
       <r>     8.6184     6.0893    19.2479 </r>
       <r>     8.7238     6.8355    19.9683 </r>
       <r>     8.8292     9.1191    20.9294 </r>
       <r>     8.9345    10.2363    22.0082 </r>
       <r>     9.0399     8.6714    22.9221 </r>
       <r>     9.1453     5.8781    23.5416 </r>
       <r>     9.2507     4.1983    23.9841 </r>
       <r>     9.3561     4.4836    24.4566 </r>
       <r>     9.4615     5.9927    25.0882 </r>
       <r>     9.5669     6.8765    25.8129 </r>
       <r>     9.6723     6.7976    26.5293 </r>
       <r>     9.7777     6.8069    27.2467 </r>
       <r>     9.8831     7.2610    28.0119 </r>
       <r>     9.9885     7.5509    28.8077 </r>
       <r>    10.0939     6.5135    29.4942 </r>
       <r>    10.1992     4.2984    29.9472 </r>
       <r>    10.3046     2.7828    30.2405 </r>
       <r>    10.4100     3.1115    30.5684 </r>
       <r>    10.5154     4.2317    31.0144 </r>
       <r>    10.6208     4.4694    31.4854 </r>
       <r>    10.7262     3.7021    31.8756 </r>
       <r>    10.8316     3.1605    32.2087 </r>
       <r>    10.9370     3.4384    32.5711 </r>
       <r>    11.0424     4.3744    33.0321 </r>
       <r>    11.1478     5.4602    33.6076 </r>
       <r>    11.2532     5.8472    34.2238 </r>
       <r>    11.3585     5.9232    34.8481 </r>
       <r>    11.4639     5.9984    35.4802 </r>
       <r>    11.5693     5.4378    36.0533 </r>
       <r>    11.6747     4.5747    36.5355 </r>
       <r>    11.7801     4.1528    36.9731 </r>
       <r>    11.8855     3.5178    37.3439 </r>
       <r>    11.9909     2.6267    37.6207 </r>
       <r>    12.0963     3.0184    37.9388 </r>
       <r>    12.2017     4.2928    38.3912 </r>
       <r>    12.3071     4.7918    38.8962 </r>
       <r>    12.4125     4.8057    39.4027 </r>
       <r>    12.5179     4.9388    39.9232 </r>
       <r>    12.6232     4.6117    40.4093 </r>
       <r>    12.7286     3.8122    40.8110 </r>
       <r>    12.8340     3.4725    41.1770 </r>
       <r>    12.9394     3.3376    41.5288 </r>
       <r>    13.0448     2.7871    41.8225 </r>
       <r>    13.1502     2.2032    42.0547 </r>
       <r>    13.2556     2.2956    42.2966 </r>
       <r>    13.3610     2.5645    42.5669 </r>
       <r>    13.4664     2.1189    42.7902 </r>
       <r>    13.5718     1.3471    42.9322 </r>
       <r>    13.6772     1.0047    43.0381 </r>
       <r>    13.7825     1.1537    43.1597 </r>
       <r>    13.8879     1.1888    43.2850 </r>
       <r>    13.9933     0.7784    43.3670 </r>
       <r>    14.0987     0.4867    43.4183 </r>
       <r>    14.2041     0.7209    43.4943 </r>
       <r>    14.3095     1.0879    43.6089 </r>
       <r>    14.4149     1.2318    43.7387 </r>
       <r>    14.5203     1.0867    43.8533 </r>
       <r>    14.6257     1.0192    43.9607 </r>
       <r>    14.7311     1.2825    44.0958 </r>
       <r>    14.8365     1.2665    44.2293 </r>
       <r>    14.9419     0.7248    44.3057 </r>
       <r>    15.0472     0.2734    44.3345 </r>
       <r>    15.1526     0.1995    44.3556 </r>
       <r>    15.2580     0.4469    44.4026 </r>
       <r>    15.3634     0.7434    44.4810 </r>
       <r>    15.4688     0.8414    44.5697 </r>
       <r>    15.5742     0.8843    44.6629 </r>
       <r>    15.6796     0.7637    44.7434 </r>
       <r>    15.7850     0.4250    44.7881 </r>
       <r>    15.8904     0.2686    44.8165 </r>
       <r>    15.9958     0.4081    44.8595 </r>
       <r>    16.1012     0.4082    44.9025 </r>
       <r>    16.2065     0.3273    44.9370 </r>
       <r>    16.3119     0.7576    45.0168 </r>
       <r>    16.4173     1.4413    45.1687 </r>
       <r>    16.5227     1.4784    45.3245 </r>
       <r>    16.6281     0.9426    45.4239 </r>
       <r>    16.7335     0.9110    45.5199 </r>
       <r>    16.8389     1.4366    45.6713 </r>
       <r>    16.9443     1.4786    45.8271 </r>
       <r>    17.0497     1.1494    45.9483 </r>
       <r>    17.1551     1.0990    46.0641 </r>
       <r>    17.2605     0.9432    46.1635 </r>
       <r>    17.3658     0.4027    46.2059 </r>
       <r>    17.4712     0.1035    46.2168 </r>
       <r>    17.5766     0.3604    46.2548 </r>
       <r>    17.6820     0.8537    46.3448 </r>
       <r>    17.7874     1.5486    46.5080 </r>
       <r>    17.8928     2.2559    46.7458 </r>
       <r>    17.9982     2.1317    46.9704 </r>
       <r>    18.1036     1.4147    47.1195 </r>
       <r>    18.2090     0.7976    47.2036 </r>
       <r>    18.3144     0.3207    47.2374 </r>
       <r>    18.4198     0.2525    47.2640 </r>
       <r>    18.5252     0.5538    47.3224 </r>
       <r>    18.6305     0.6400    47.3898 </r>
       <r>    18.7359     0.3315    47.4248 </r>
       <r>    18.8413     0.0352    47.4285 </r>
       <r>    18.9467    -0.0530    47.4229 </r>
       <r>    19.0521    -0.0669    47.4158 </r>
       <r>    19.1575     0.0449    47.4206 </r>
       <r>    19.2629     0.5495    47.4785 </r>
       <r>    19.3683     1.2303    47.6081 </r>
       <r>    19.4737     1.2631    47.7413 </r>
       <r>    19.5791     0.5453    47.7987 </r>
       <r>    19.6845     0.0415    47.8031 </r>
       <r>    19.7898     0.5088    47.8567 </r>
       <r>    19.8952     1.5868    48.0240 </r>
       <r>    20.0006     2.2719    48.2634 </r>
       <r>    20.1060     2.3100    48.5069 </r>
       <r>    20.2114     1.7304    48.6892 </r>
       <r>    20.3168     0.9699    48.7914 </r>
       <r>    20.4222     0.8450    48.8805 </r>
       <r>    20.5276     0.9835    48.9841 </r>
       <r>    20.6330     1.0722    49.0971 </r>
       <r>    20.7384     1.2458    49.2284 </r>
       <r>    20.8438     1.1420    49.3488 </r>
       <r>    20.9492     0.9242    49.4462 </r>
       <r>    21.0545     1.1151    49.5637 </r>
       <r>    21.1599     1.6751    49.7403 </r>
       <r>    21.2653     2.0086    49.9519 </r>
       <r>    21.3707     1.6245    50.1232 </r>
       <r>    21.4761     0.7504    50.2022 </r>
       <r>    21.5815     0.1045    50.2133 </r>
       <r>    21.6869     0.0951    50.2233 </r>
       <r>    21.7923     0.5067    50.2767 </r>
       <r>    21.8977     0.8165    50.3627 </r>
       <r>    22.0031     0.7789    50.4448 </r>
       <r>    22.1085     0.6747    50.5159 </r>
       <r>    22.2138     0.8411    50.6046 </r>
       <r>    22.3192     1.2365    50.7349 </r>
       <r>    22.4246     1.7283    50.9170 </r>
       <r>    22.5300     2.1039    51.1388 </r>
       <r>    22.6354     2.2381    51.3746 </r>
       <r>    22.7408     2.1332    51.5995 </r>
       <r>    22.8462     1.6805    51.7766 </r>
       <r>    22.9516     1.1843    51.9014 </r>
       <r>    23.0570     1.0127    52.0081 </r>
       <r>    23.1624     1.3134    52.1465 </r>
       <r>    23.2678     1.6184    52.3171 </r>
       <r>    23.3731     1.2363    52.4474 </r>
       <r>    23.4785     0.6224    52.5130 </r>
       <r>    23.5839     0.6119    52.5775 </r>
       <r>    23.6893     0.9371    52.6763 </r>
       <r>    23.7947     1.0026    52.7819 </r>
       <r>    23.9001     0.9828    52.8855 </r>
       <r>    24.0055     1.1573    53.0075 </r>
       <r>    24.1109     1.4005    53.1551 </r>
       <r>    24.2163     1.4188    53.3046 </r>
       <r>    24.3217     1.0856    53.4190 </r>
       <r>    24.4271     0.9351    53.5176 </r>
       <r>    24.5325     1.3845    53.6635 </r>
       <r>    24.6378     1.8900    53.8627 </r>
       <r>    24.7432     2.1346    54.0877 </r>
       <r>    24.8486     2.3740    54.3379 </r>
       <r>    24.9540     2.5743    54.6092 </r>
       <r>    25.0594     2.2784    54.8493 </r>
       <r>    25.1648     1.4146    54.9984 </r>
       <r>    25.2702     0.8135    55.0841 </r>
       <r>    25.3756     0.8415    55.1728 </r>
       <r>    25.4810     1.1937    55.2986 </r>
       <r>    25.5864     1.8127    55.4897 </r>
       <r>    25.6918     2.2148    55.7231 </r>
       <r>    25.7971     1.7297    55.9054 </r>
       <r>    25.9025     0.9606    56.0066 </r>
       <r>    26.0079     1.2227    56.1355 </r>
       <r>    26.1133     2.4113    56.3896 </r>
       <r>    26.2187     2.7332    56.6777 </r>
       <r>    26.3241     1.8541    56.8731 </r>
       <r>    26.4295     1.1095    56.9900 </r>
       <r>    26.5349     1.0212    57.0976 </r>
       <r>    26.6403     1.6667    57.2733 </r>
       <r>    26.7457     2.6968    57.5575 </r>
       <r>    26.8511     2.9369    57.8670 </r>
       <r>    26.9565     1.8449    58.0615 </r>
       <r>    27.0618     1.0070    58.1676 </r>
       <r>    27.1672     1.6400    58.3404 </r>
       <r>    27.2726     2.1796    58.5701 </r>
       <r>    27.3780     1.4786    58.7260 </r>
       <r>    27.4834     0.7393    58.8039 </r>
       <r>    27.5888     0.6139    58.8686 </r>
       <r>    27.6942     0.5790    58.9296 </r>
       <r>    27.7996     0.3694    58.9685 </r>
       <r>    27.9050     0.3613    59.0066 </r>
       <r>    28.0104     0.8010    59.0910 </r>
       <r>    28.1158     1.1308    59.2102 </r>
       <r>    28.2211     0.8919    59.3042 </r>
       <r>    28.3265     0.4348    59.3501 </r>
       <r>    28.4319     0.1248    59.3632 </r>
       <r>    28.5373    -0.0176    59.3613 </r>
       <r>    28.6427    -0.0715    59.3538 </r>
       <r>    28.7481    -0.0495    59.3486 </r>
       <r>    28.8535     0.3003    59.3802 </r>
       <r>    28.9589     1.1529    59.5017 </r>
       <r>    29.0643     1.9410    59.7063 </r>
       <r>    29.1697     1.8221    59.8983 </r>
       <r>    29.2751     0.9223    59.9955 </r>
       <r>    29.3805     0.1591    60.0123 </r>
       <r>    29.4858    -0.0667    60.0053 </r>
       <r>    29.5912    -0.0406    60.0010 </r>
       <r>    29.6966    -0.0086    60.0001 </r>
       <r>    29.8020    -0.0009    60.0000 </r>
       <r>    29.9074    -0.0001    60.0000 </r>
       <r>    30.0128    -0.0000    60.0000 </r>
       <r>    30.1182    -0.0000    60.0000 </r>
       <r>    30.2236    -0.0000    60.0000 </r>
       <r>    30.3290    -0.0000    60.0000 </r>
       <r>    30.4344    -0.0000    60.0000 </r>
       <r>    30.5398     0.0000    60.0000 </r>
       <r>    30.6451     0.0000    60.0000 </r>
       <r>    30.7505     0.0000    60.0000 </r>
       <r>    30.8559     0.0000    60.0000 </r>
       <r>    30.9613     0.0000    60.0000 </r>
       <r>    31.0667     0.0000    60.0000 </r>
       <r>    31.1721     0.0000    60.0000 </r>
      </set>
     </set>
    </array>
   </total>
  </dos>
 </calculation>
 <structure name="finalpos" >
  <crystal>
   <varray name="basis" >
    <v>       3.63500000       0.00000000       0.00000000 </v>
    <v>       0.00000000       3.63500000       0.00000000 </v>
    <v>       0.00000000       0.00000000       3.63500000 </v>
   </varray>
   <i name="volume">     48.03007287 </i>
   <varray name="rec_basis" >
    <v>       0.27510316       0.00000000       0.00000000 </v>
    <v>       0.00000000       0.27510316       0.00000000 </v>
    <v>       0.00000000       0.00000000       0.27510316 </v>
   </varray>
  </crystal>
  <varray name="positions" >
   <v>       0.00000000       0.00000000       0.00000000 </v>
   <v>       0.50000000       0.50000000       0.00000000 </v>
   <v>       0.50000000       0.00000000       0.50000000 </v>
   <v>       0.00000000       0.50000000       0.50000000 </v>
  </varray>
 </structure>
</modeling>
