<?xml version="1.0" encoding="ISO-8859-1"?>
<modeling>
 <generator>
  <i name="program" type="string">vasp </i>
  <i name="version" type="string">6.2.0  </i>
  <i name="subversion" type="string">18Jan21 (build Mar 17 2021 09:06:54) complex                          serial </i>
  <i name="platform" type="string">LinuxIFC </i>
  <i name="date" type="string">2021 08 03 </i>
  <i name="time" type="string">10:20:54 </i>
 </generator>
 <incar>
  <i type="string" name="PREC">normal</i>
  <i type="int" name="ICHARG">     1</i>
  <i type="int" name="IBRION">     1</i>
  <i name="EDIFF">      0.00000100</i>
  <i type="int" name="NSW">     0</i>
  <i type="int" name="ISIF">     2</i>
  <i name="ENCUT">    320.00000000</i>
  <i type="int" name="NBANDS">    30</i>
  <i type="int" name="ISMEAR">     1</i>
  <i name="SIGMA">      0.20000000</i>
  <i type="logical" name="LCHARG"> T  </i>
  <i type="int" name="KPAR">     1</i>
  <i type="int" name="NCORE">     1</i>
  <i type="string" name="GGA">PE</i>
 </incar>
 <primitive_cell>
  <structure name="primitive_cell" >
   <crystal>
    <varray name="basis" >
     <v>       1.87616911      -1.87616911       0.00000000 </v>
     <v>       1.87616911       0.00000000       1.87616911 </v>
     <v>       0.00000000      -1.87616911       1.87616911 </v>
    </varray>
    <i name="volume">     13.20827004 </i>
    <varray name="rec_basis" >
     <v>       0.26650050      -0.26650050      -0.26650050 </v>
     <v>       0.26650050       0.26650050       0.26650050 </v>
     <v>      -0.26650050      -0.26650050       0.26650050 </v>
    </varray>
   </crystal>
   <varray name="positions" >
    <v>       0.00000000       0.00000000       0.00000000 </v>
   </varray>
  </structure>
  <varray name="primitive_index" >
   <v type="int" >        1 </v>
  </varray>
 </primitive_cell>
 <kpoints>
  <generation param="Monkhorst-Pack">
   <v type="int" name="divisions">       9        9        9 </v>
   <v name="usershift">      0.00000000       0.00000000       0.00000000 </v>
   <v name="genvec1">      0.11111111       0.00000000       0.00000000 </v>
   <v name="genvec2">      0.00000000       0.11111111       0.00000000 </v>
   <v name="genvec3">      0.00000000       0.00000000       0.11111111 </v>
   <v name="shift">      0.00000000       0.00000000       0.00000000 </v>
  </generation>
  <varray name="kpointlist" >
   <v>       0.00000000       0.00000000       0.00000000 </v>
   <v>       0.11111111       0.00000000       0.00000000 </v>
   <v>       0.22222222       0.00000000       0.00000000 </v>
   <v>       0.33333333       0.00000000       0.00000000 </v>
   <v>       0.44444444       0.00000000       0.00000000 </v>
   <v>       0.11111111       0.11111111       0.00000000 </v>
   <v>       0.22222222       0.11111111       0.00000000 </v>
   <v>       0.33333333       0.11111111       0.00000000 </v>
   <v>       0.44444444       0.11111111       0.00000000 </v>
   <v>       0.22222222       0.22222222       0.00000000 </v>
   <v>       0.33333333       0.22222222       0.00000000 </v>
   <v>       0.44444444       0.22222222       0.00000000 </v>
   <v>       0.33333333       0.33333333       0.00000000 </v>
   <v>       0.44444444       0.33333333       0.00000000 </v>
   <v>       0.44444444       0.44444444       0.00000000 </v>
   <v>       0.11111111       0.11111111       0.11111111 </v>
   <v>       0.22222222       0.11111111       0.11111111 </v>
   <v>       0.33333333       0.11111111       0.11111111 </v>
   <v>       0.44444444       0.11111111       0.11111111 </v>
   <v>       0.22222222       0.22222222       0.11111111 </v>
   <v>       0.33333333       0.22222222       0.11111111 </v>
   <v>       0.44444444       0.22222222       0.11111111 </v>
   <v>       0.33333333       0.33333333       0.11111111 </v>
   <v>       0.44444444       0.33333333       0.11111111 </v>
   <v>       0.44444444       0.44444444       0.11111111 </v>
   <v>       0.22222222       0.22222222       0.22222222 </v>
   <v>       0.33333333       0.22222222       0.22222222 </v>
   <v>       0.44444444       0.22222222       0.22222222 </v>
   <v>       0.33333333       0.33333333       0.22222222 </v>
   <v>       0.44444444       0.33333333       0.22222222 </v>
   <v>       0.44444444       0.44444444       0.22222222 </v>
   <v>       0.33333333       0.33333333       0.33333333 </v>
   <v>       0.44444444       0.33333333       0.33333333 </v>
   <v>       0.44444444       0.44444444       0.33333333 </v>
   <v>       0.44444444       0.44444444       0.44444444 </v>
  </varray>
  <varray name="weights" >
   <v>       0.00137174 </v>
   <v>       0.00823045 </v>
   <v>       0.00823045 </v>
   <v>       0.00823045 </v>
   <v>       0.00823045 </v>
   <v>       0.01646091 </v>
   <v>       0.03292181 </v>
   <v>       0.03292181 </v>
   <v>       0.03292181 </v>
   <v>       0.01646091 </v>
   <v>       0.03292181 </v>
   <v>       0.03292181 </v>
   <v>       0.01646091 </v>
   <v>       0.03292181 </v>
   <v>       0.01646091 </v>
   <v>       0.01097394 </v>
   <v>       0.03292181 </v>
   <v>       0.03292181 </v>
   <v>       0.03292181 </v>
   <v>       0.03292181 </v>
   <v>       0.06584362 </v>
   <v>       0.06584362 </v>
   <v>       0.03292181 </v>
   <v>       0.06584362 </v>
   <v>       0.03292181 </v>
   <v>       0.01097394 </v>
   <v>       0.03292181 </v>
   <v>       0.03292181 </v>
   <v>       0.03292181 </v>
   <v>       0.06584362 </v>
   <v>       0.03292181 </v>
   <v>       0.01097394 </v>
   <v>       0.03292181 </v>
   <v>       0.03292181 </v>
   <v>       0.01097394 </v>
  </varray>
 </kpoints>
 <parameters>
  <separator name="general" >
   <i type="string" name="SYSTEM">unknown system</i>
   <i type="logical" name="LCOMPAT"> F  </i>
  </separator>
  <separator name="electronic" >
   <i type="string" name="PREC">normal</i>
   <i name="ENMAX">    320.00000000</i>
   <i name="ENAUG">    586.98000000</i>
   <i name="EDIFF">      0.00000100</i>
   <i type="int" name="IALGO">    38</i>
   <i type="int" name="IWAVPR">     0</i>
   <i type="int" name="NBANDS">    30</i>
   <i type="int" name="NBANDSLOW">    -1</i>
   <i type="int" name="NBANDSHIGH">    -1</i>
   <i name="NELECT">     44.00000000</i>
   <i type="int" name="TURBO">     0</i>
   <i type="int" name="IRESTART">     0</i>
   <i type="int" name="NREBOOT">     0</i>
   <i type="int" name="NMIN">     0</i>
   <i name="EREF">      0.00000000</i>
   <separator name="electronic smearing" >
    <i type="int" name="ISMEAR">     1</i>
    <i name="SIGMA">      0.20000000</i>
    <i name="KSPACING">      0.50000000</i>
    <i type="logical" name="KGAMMA"> T  </i>
    <i type="logical" name="KBLOWUP"> T  </i>
   </separator>
   <separator name="electronic projectors" >
    <i type="logical" name="LREAL"> F  </i>
    <v name="ROPT">      0.00000000</v>
    <i type="int" name="LMAXPAW">  -100</i>
    <i type="int" name="LMAXMIX">     2</i>
    <i type="logical" name="NLSPLINE"> F  </i>
   </separator>
   <separator name="electronic startup" >
    <i type="int" name="ISTART">     0</i>
    <i type="int" name="ICHARG">     1</i>
    <i type="int" name="INIWAV">     1</i>
   </separator>
   <separator name="electronic spin" >
    <i type="int" name="ISPIN">     1</i>
    <i type="logical" name="LNONCOLLINEAR"> F  </i>
    <v name="MAGMOM">      1.00000000      1.00000000      1.00000000      1.00000000</v>
    <i name="NUPDOWN">     -1.00000000</i>
    <i type="logical" name="LSORBIT"> F  </i>
    <v name="SAXIS">      0.00000000      0.00000000      1.00000000</v>
    <i type="logical" name="LSPIRAL"> F  </i>
    <v name="QSPIRAL">      0.00000000      0.00000000      0.00000000</v>
    <i type="logical" name="LZEROZ"> F  </i>
   </separator>
   <separator name="electronic exchange-correlation" >
    <i type="logical" name="LASPH"> F  </i>
    <i type="logical" name="LMETAGGA"> F  </i>
   </separator>
   <separator name="electronic convergence" >
    <i type="int" name="NELM">    60</i>
    <i type="int" name="NELMDL">    -5</i>
    <i type="int" name="NELMIN">     2</i>
    <i name="ENINI">    320.00000000</i>
    <separator name="electronic convergence detail" >
     <i type="logical" name="LDIAG"> T  </i>
     <i type="logical" name="LSUBROT"> F  </i>
     <i name="WEIMIN">      0.00000000</i>
     <i name="EBREAK">      0.00000001</i>
     <i name="DEPER">      0.30000000</i>
     <i type="int" name="NRMM">     4</i>
     <i name="TIME">      0.40000000</i>
    </separator>
   </separator>
   <separator name="electronic mixer" >
    <i name="AMIX">      0.40000000</i>
    <i name="BMIX">      1.00000000</i>
    <i name="AMIN">      0.10000000</i>
    <i name="AMIX_MAG">      1.60000000</i>
    <i name="BMIX_MAG">      1.00000000</i>
    <separator name="electronic mixer details" >
     <i type="int" name="IMIX">     4</i>
     <i type="logical" name="MIXFIRST"> F  </i>
     <i type="int" name="MAXMIX">   -45</i>
     <i name="WC">    100.00000000</i>
     <i type="int" name="INIMIX">     1</i>
     <i type="int" name="MIXPRE">     1</i>
     <i type="int" name="MREMOVE">     5</i>
    </separator>
   </separator>
   <separator name="electronic dipolcorrection" >
    <i type="logical" name="LDIPOL"> F  </i>
    <i type="logical" name="LMONO"> F  </i>
    <i type="int" name="IDIPOL">     0</i>
    <i name="EPSILON">      1.00000000</i>
    <v name="DIPOL">   -100.00000000   -100.00000000   -100.00000000</v>
    <i name="EFIELD">      0.00000000</i>
   </separator>
  </separator>
  <separator name="grids" >
   <i type="int" name="NGX">    16</i>
   <i type="int" name="NGY">    16</i>
   <i type="int" name="NGZ">    16</i>
   <i type="int" name="NGXF">    32</i>
   <i type="int" name="NGYF">    32</i>
   <i type="int" name="NGZF">    32</i>
   <i type="logical" name="ADDGRID"> F  </i>
  </separator>
  <separator name="ionic" >
   <i type="int" name="NSW">     0</i>
   <i type="int" name="IBRION">    -1</i>
   <i type="int" name="MDALGO">     0</i>
   <i type="int" name="ISIF">     2</i>
   <i name="PSTRESS">      0.00000000</i>
   <i name="EDIFFG">      0.00001000</i>
   <i type="int" name="NFREE">     0</i>
   <i name="POTIM">      0.50000000</i>
   <i name="SMASS">     -3.00000000</i>
   <i name="SCALEE">      1.00000000</i>
  </separator>
  <separator name="ionic md" >
   <i name="TEBEG">      0.00010000</i>
   <i name="TEEND">      0.00010000</i>
   <i type="int" name="NBLOCK">     1</i>
   <i type="int" name="KBLOCK">     1</i>
   <i type="int" name="NPACO">   256</i>
   <i name="APACO">     16.00000000</i>
  </separator>
  <separator name="symmetry" >
   <i type="int" name="ISYM">     2</i>
   <i name="SYMPREC">      0.00001000</i>
  </separator>
  <separator name="dos" >
   <i type="int" name="LORBIT">     0</i>
   <v name="RWIGS">     -1.00000000</v>
   <i type="int" name="NEDOS">   301</i>
   <i name="EMIN">     10.00000000</i>
   <i name="EMAX">    -10.00000000</i>
   <i name="EFERMI">      0.00000000</i>
  </separator>
  <separator name="writing" >
   <i type="int" name="NWRITE">     2</i>
   <i type="logical" name="LWAVE"> T  </i>
   <i type="logical" name="LDOWNSAMPLE"> F  </i>
   <i type="logical" name="LCHARG"> T  </i>
   <i type="logical" name="LPARD"> F  </i>
   <i type="logical" name="LVTOT"> F  </i>
   <i type="logical" name="LVHAR"> F  </i>
   <i type="logical" name="LELF"> F  </i>
   <i type="logical" name="LOPTICS"> F  </i>
   <v name="STM">      0.00000000      0.00000000      0.00000000      0.00000000      0.00000000      0.00000000      0.00000000</v>
  </separator>
  <separator name="performance" >
   <i type="int" name="NPAR">     1</i>
   <i type="int" name="NSIM">     4</i>
   <i type="int" name="NBLK">    -1</i>
   <i type="logical" name="LPLANE"> T  </i>
   <i type="logical" name="LSCALAPACK"> F  </i>
   <i type="logical" name="LSCAAWARE"> F  </i>
   <i type="logical" name="LSCALU"> F  </i>
   <i type="logical" name="LASYNC"> F  </i>
   <i type="logical" name="LORBITALREAL"> F  </i>
  </separator>
  <separator name="miscellaneous" >
   <i type="int" name="IDIOT">     3</i>
   <i type="int" name="PHON_NSTRUCT">    -1</i>
   <i type="logical" name="LMUSIC"> F  </i>
   <v name="POMASS">     63.54600000</v>
   <v name="DARWINR">      0.00000000</v>
   <v name="DARWINV">      1.00000000</v>
   <i type="logical" name="LCORR"> T  </i>
  </separator>
  <i type="logical" name="GGA_COMPAT"> T  </i>
  <i type="logical" name="LBERRY"> F  </i>
  <i type="int" name="ICORELEVEL">     0</i>
  <i type="logical" name="LDAU"> F  </i>
  <i type="int" name="I_CONSTRAINED_M">     0</i>
  <separator name="electronic exchange-correlation" >
   <i type="string" name="GGA">PE</i>
   <i type="int" name="VOSKOWN">     0</i>
   <i type="logical" name="LHFCALC"> F  </i>
   <i type="string" name="PRECFOCK"></i>
   <i type="logical" name="LSYMGRAD"> F  </i>
   <i type="logical" name="LHFONE"> F  </i>
   <i type="logical" name="LRHFCALC"> F  </i>
   <i type="logical" name="LTHOMAS"> F  </i>
   <i type="logical" name="LMODELHF"> F  </i>
   <i type="logical" name="LFOCKACE"> F  </i>
   <i name="ENCUT4O">     -1.00000000</i>
   <i type="int" name="EXXOEP">     0</i>
   <i type="int" name="FOURORBIT">     0</i>
   <i name="AEXX">      0.00000000</i>
   <i name="HFALPHA">      0.00000000</i>
   <i name="MCALPHA">      0.00000000</i>
   <i name="ALDAX">      1.00000000</i>
   <i name="AGGAX">      1.00000000</i>
   <i name="ALDAC">      1.00000000</i>
   <i name="AGGAC">      1.00000000</i>
   <i type="int" name="NKREDX">     1</i>
   <i type="int" name="NKREDY">     1</i>
   <i type="int" name="NKREDZ">     1</i>
   <i type="logical" name="SHIFTRED"> F  </i>
   <i type="logical" name="ODDONLY"> F  </i>
   <i type="logical" name="EVENONLY"> F  </i>
   <i type="int" name="LMAXFOCK">     0</i>
   <i type="int" name="NMAXFOCKAE">     0</i>
   <i type="logical" name="LFOCKAEDFT"> F  </i>
   <i name="HFSCREEN">      0.00000000</i>
   <i name="HFSCREENC">      0.00000000</i>
   <i type="int" name="NBANDSGWLOW">     0</i>
  </separator>
  <separator name="vdW DFT" >
   <i type="logical" name="LUSE_VDW"> F  </i>
   <i name="Zab_VDW">     -0.84910000</i>
   <i name="PARAM1">      0.12340000</i>
   <i name="PARAM2">      1.00000000</i>
   <i name="PARAM3">      0.00000000</i>
  </separator>
  <separator name="model GW" >
   <i type="int" name="MODEL_GW">     0</i>
   <i name="MODEL_EPS0">      7.92496202</i>
   <i name="MODEL_ALPHA">      1.00000000</i>
  </separator>
  <separator name="linear response parameters" >
   <i type="logical" name="LEPSILON"> F  </i>
   <i type="logical" name="LRPA"> F  </i>
   <i type="logical" name="LNABLA"> F  </i>
   <i type="logical" name="LVEL"> F  </i>
   <i type="int" name="KINTER">     0</i>
   <i name="CSHIFT">      0.10000000</i>
   <i name="OMEGAMAX">     -1.00000000</i>
   <i name="DEG_THRESHOLD">      0.00200000</i>
   <i name="RTIME">     -0.10000000</i>
   <i name="WPLASMAI">      0.00000000</i>
   <v name="DFIELD">      0.00000000      0.00000000      0.00000000</v>
   <v name="WPLASMA">      0.00000000      0.00000000      0.00000000      0.00000000      0.00000000      0.00000000      0.00000000      0.00000000      0.00000000</v>
  </separator>
  <separator name="orbital magnetization" >
   <i type="logical" name="NUCIND"> F  </i>
   <v name="MAGPOS">      0.00000000      0.00000000      0.00000000</v>
   <i type="logical" name="LNICSALL"> T  </i>
   <i type="logical" name="ORBITALMAG"> F  </i>
   <i type="logical" name="LMAGBLOCH"> F  </i>
   <i type="logical" name="LCHIMAG"> F  </i>
   <i type="logical" name="LGAUGE"> T  </i>
   <i type="int" name="MAGATOM">     0</i>
   <v name="MAGDIPOL">      0.00000000      0.00000000      0.00000000</v>
   <v name="AVECCONST">      0.00000000      0.00000000      0.00000000</v>
  </separator>
  <separator name="response functions" >
   <i type="logical" name="LFINITE_TEMPERATURE"> F  </i>
   <i type="logical" name="LADDER"> F  </i>
   <i type="logical" name="LRPAFORCE"> F  </i>
   <i type="logical" name="LFXC"> F  </i>
   <i type="logical" name="LHARTREE"> T  </i>
   <i type="int" name="IBSE">     0</i>
   <v type="int" name="KPOINT">    -1     0     0     0</v>
   <i type="logical" name="LTCTC"> F  </i>
   <i type="logical" name="LTCTE"> F  </i>
   <i type="logical" name="LTETE"> F  </i>
   <i type="logical" name="LTRIPLET"> F  </i>
   <i type="logical" name="LFXCEPS"> F  </i>
   <i type="logical" name="LFXHEG"> F  </i>
   <i type="int" name="NATURALO">     2</i>
   <i type="logical" name="LHOLEGF"> F  </i>
   <i type="logical" name="L2ORDER"> F  </i>
   <i type="logical" name="LDMP1"> F  </i>
   <i type="logical" name="LMP2LT"> F  </i>
   <i type="logical" name="LSMP2LT"> F  </i>
   <i type="logical" name="LGWLF"> F  </i>
   <i name="ENCUTGW">     -2.00000000</i>
   <i name="ENCUTGWSOFT">     -2.00000000</i>
   <i name="ENCUTLF">     -1.00000000</i>
   <i type="logical" name="LESF_SPLINES"> F  </i>
   <i type="int" name="LMAXMP2">    -1</i>
   <i name="SCISSOR">      0.00000000</i>
   <i type="int" name="NOMEGA">     0</i>
   <i type="int" name="NOMEGAR">     0</i>
   <i type="int" name="NBANDSGW">    -1</i>
   <i type="int" name="NBANDSO">    -1</i>
   <i type="int" name="NBANDSV">    -1</i>
   <i type="int" name="NELM">     1</i>
   <i type="int" name="NELMHF">     1</i>
   <i type="int" name="DIM">     3</i>
   <i type="int" name="IESPILON">     4</i>
   <i type="int" name="ANTIRES">     0</i>
   <i name="OMEGAMAX">    -30.00000000</i>
   <i name="OMEGAMIN">    -30.00000000</i>
   <i name="OMEGATL">   -200.00000000</i>
   <i type="int" name="OMEGAGRID">     0</i>
   <i name="CSHIFT">     -0.10000000</i>
   <i type="logical" name="LSELFENERGY"> F  </i>
   <i type="logical" name="LSPECTRAL"> F  </i>
   <i type="logical" name="LSPECTRALGW"> F  </i>
   <i type="logical" name="LSINGLES"> F  </i>
   <i type="logical" name="LFERMIGW"> F  </i>
   <i type="logical" name="ODDONLYGW"> F  </i>
   <i type="logical" name="EVENONLYGW"> F  </i>
   <i type="int" name="NKREDLFX">     1</i>
   <i type="int" name="NKREDLFY">     1</i>
   <i type="int" name="NKREDLFZ">     1</i>
   <i type="int" name="MAXMEM">  2800</i>
   <i type="int" name="TELESCOPE">     0</i>
   <i type="int" name="NTAUPAR">    -1</i>
   <i type="int" name="NOMEGAPAR">    -1</i>
   <i name="DAMP_NEWTON">      0.80000001</i>
   <i name="LAMBDA">      1.00000000</i>
  </separator>
  <separator name="External order field" >
   <i name="OFIELD_KAPPA">      0.00000000</i>
   <v name="OFIELD_K">      0.00000000      0.00000000      0.00000000</v>
   <i name="OFIELD_Q6_NEAR">      0.00000000</i>
   <i name="OFIELD_Q6_FAR">      0.00000000</i>
   <i name="OFIELD_A">      0.00000000</i>
  </separator>
 </parameters>
 <atominfo>
  <atoms>       4 </atoms>
  <types>       1 </types>
  <array name="atoms" >
   <dimension dim="1">ion</dimension>
   <field type="string">element</field>
   <field type="int">atomtype</field>
   <set>
    <rc><c>Cu</c><c>   1</c></rc>
    <rc><c>Cu</c><c>   1</c></rc>
    <rc><c>Cu</c><c>   1</c></rc>
    <rc><c>Cu</c><c>   1</c></rc>
   </set>
  </array>
  <array name="atomtypes" >
   <dimension dim="1">type</dimension>
   <field type="int">atomspertype</field>
   <field type="string">element</field>
   <field>mass</field>
   <field>valence</field>
   <field type="string">pseudopotential</field>
   <set>
    <rc><c>   4</c><c>Cu</c><c>     63.54600000</c><c>     11.00000000</c><c>  PAW_PBE Cu 22Jun2005                  </c></rc>
   </set>
  </array>
 </atominfo>
 <structure name="initialpos" >
  <crystal>
   <varray name="basis" >
    <v>       3.75233822       0.00000000       0.00000000 </v>
    <v>       0.00000000       3.75233822       0.00000000 </v>
    <v>       0.00000000       0.00000000       3.75233822 </v>
   </varray>
   <i name="volume">     52.83308016 </i>
   <varray name="rec_basis" >
    <v>       0.26650050       0.00000000       0.00000000 </v>
    <v>       0.00000000       0.26650050       0.00000000 </v>
    <v>       0.00000000       0.00000000       0.26650050 </v>
   </varray>
  </crystal>
  <varray name="positions" >
   <v>       0.00000000       0.00000000       0.00000000 </v>
   <v>       0.50000000       0.50000000       0.00000000 </v>
   <v>       0.50000000       0.00000000       0.50000000 </v>
   <v>       0.00000000       0.50000000       0.50000000 </v>
  </varray>
 </structure>
 <calculation>
  <scstep>
   <time name="dav">    0.49    0.50</time>
   <time name="total">    0.50    0.52</time>
   <energy>
    <i name="alphaZ">    221.47579804 </i>
    <i name="ewald">  -4257.90279123 </i>
    <i name="hartreedc">  -1536.17563056 </i>
    <i name="XCdc">    181.95951199 </i>
    <i name="pawpsdc">   4912.82663951 </i>
    <i name="pawaedc">  -5336.19386850 </i>
    <i name="eentropy">      0.00247082 </i>
    <i name="bandstr">    536.32602864 </i>
    <i name="atom">   5563.77610493 </i>
    <i name="e_fr_energy">    286.09426363 </i>
    <i name="e_wo_entrp">    286.09179281 </i>
    <i name="e_0_energy">    286.09344002 </i>
   </energy>
  </scstep>
  <scstep>
   <time name="dav">    0.42    0.42</time>
   <time name="total">    0.42    0.42</time>
   <energy>
    <i name="e_fr_energy">      3.13429960 </i>
    <i name="e_wo_entrp">      3.13657126 </i>
    <i name="e_0_energy">      3.13505682 </i>
   </energy>
  </scstep>
  <scstep>
   <time name="dav">    0.45    0.45</time>
   <time name="total">    0.46    0.46</time>
   <energy>
    <i name="e_fr_energy">    -17.71843935 </i>
    <i name="e_wo_entrp">    -17.71532593 </i>
    <i name="e_0_energy">    -17.71740154 </i>
   </energy>
  </scstep>
  <scstep>
   <time name="dav">    0.46    0.46</time>
   <time name="total">    0.46    0.46</time>
   <energy>
    <i name="e_fr_energy">    -18.12947161 </i>
    <i name="e_wo_entrp">    -18.12663994 </i>
    <i name="e_0_energy">    -18.12852772 </i>
   </energy>
  </scstep>
  <scstep>
   <time name="dav">    0.50    0.50</time>
   <time name="total">    0.54    0.54</time>
   <energy>
    <i name="e_fr_energy">    -18.13415430 </i>
    <i name="e_wo_entrp">    -18.13132324 </i>
    <i name="e_0_energy">    -18.13321061 </i>
   </energy>
  </scstep>
  <scstep>
   <time name="dav">    0.44    0.44</time>
   <time name="total">    0.48    0.48</time>
   <energy>
    <i name="e_fr_energy">    -16.49437392 </i>
    <i name="e_wo_entrp">    -16.49509931 </i>
    <i name="e_0_energy">    -16.49461571 </i>
   </energy>
  </scstep>
  <scstep>
   <time name="dav">    0.44    0.44</time>
   <time name="total">    0.49    0.49</time>
   <energy>
    <i name="e_fr_energy">    -14.80984618 </i>
    <i name="e_wo_entrp">    -14.81261990 </i>
    <i name="e_0_energy">    -14.81077075 </i>
   </energy>
  </scstep>
  <scstep>
   <time name="dav">    0.49    0.49</time>
   <time name="total">    0.54    0.54</time>
   <energy>
    <i name="e_fr_energy">    -14.79373317 </i>
    <i name="e_wo_entrp">    -14.79649621 </i>
    <i name="e_0_energy">    -14.79465418 </i>
   </energy>
  </scstep>
  <scstep>
   <time name="dav">    0.44    0.44</time>
   <time name="total">    0.49    0.49</time>
   <energy>
    <i name="e_fr_energy">    -14.78075185 </i>
    <i name="e_wo_entrp">    -14.78354465 </i>
    <i name="e_0_energy">    -14.78168278 </i>
   </energy>
  </scstep>
  <scstep>
   <time name="dav">    0.49    0.49</time>
   <time name="total">    0.54    0.54</time>
   <energy>
    <i name="e_fr_energy">    -14.78085142 </i>
    <i name="e_wo_entrp">    -14.78364109 </i>
    <i name="e_0_energy">    -14.78178131 </i>
   </energy>
  </scstep>
  <scstep>
   <time name="dav">    0.45    0.45</time>
   <time name="total">    0.49    0.49</time>
   <energy>
    <i name="e_fr_energy">    -14.78084967 </i>
    <i name="e_wo_entrp">    -14.78363816 </i>
    <i name="e_0_energy">    -14.78177917 </i>
   </energy>
  </scstep>
  <scstep>
   <time name="dav">    0.31    0.31</time>
   <time name="total">    0.36    0.36</time>
   <energy>
    <i name="e_fr_energy">    -14.78085243 </i>
    <i name="e_wo_entrp">    -14.78364133 </i>
    <i name="e_0_energy">    -14.78178206 </i>
   </energy>
  </scstep>
  <scstep>
   <time name="dav">    0.30    0.30</time>
   <time name="total">    0.31    0.31</time>
   <energy>
    <i name="alphaZ">    221.47579804 </i>
    <i name="ewald">  -4257.90279123 </i>
    <i name="hartreedc">  -1447.37583170 </i>
    <i name="XCdc">    177.84767865 </i>
    <i name="pawpsdc">   5128.61049138 </i>
    <i name="pawaedc">  -5557.76075949 </i>
    <i name="eentropy">      0.00278893 </i>
    <i name="bandstr">    156.54566774 </i>
    <i name="atom">   5563.77610493 </i>
    <i name="e_fr_energy">    -14.78085275 </i>
    <i name="e_wo_entrp">    -14.78364168 </i>
    <i name="e_0_energy">    -14.78178239 </i>
   </energy>
  </scstep>
  <structure>
   <crystal>
    <varray name="basis" >
     <v>       3.75233822       0.00000000       0.00000000 </v>
     <v>       0.00000000       3.75233822       0.00000000 </v>
     <v>       0.00000000       0.00000000       3.75233822 </v>
    </varray>
    <i name="volume">     52.83308016 </i>
    <varray name="rec_basis" >
     <v>       0.26650050       0.00000000       0.00000000 </v>
     <v>       0.00000000       0.26650050       0.00000000 </v>
     <v>       0.00000000       0.00000000       0.26650050 </v>
    </varray>
   </crystal>
   <varray name="positions" >
    <v>       0.00000000       0.00000000       0.00000000 </v>
    <v>       0.50000000       0.50000000       0.00000000 </v>
    <v>       0.50000000       0.00000000       0.50000000 </v>
    <v>       0.00000000       0.50000000       0.50000000 </v>
   </varray>
  </structure>
  <varray name="forces" >
   <v>       0.00000000       0.00000000      -0.00000000 </v>
   <v>       0.00000000       0.00000000      -0.00000000 </v>
   <v>       0.00000000      -0.00000000       0.00000000 </v>
   <v>      -0.00000000      -0.00000000       0.00000000 </v>
  </varray>
  <varray name="stress" >
   <v>    -108.97652400       0.00000000      -0.00000000 </v>
   <v>      -0.00000000    -108.97652400       0.00000000 </v>
   <v>      -0.00000000       0.00000000    -108.97652400 </v>
  </varray>
  <energy>
   <i name="e_fr_energy">    -14.78085275 </i>
   <i name="e_wo_entrp">    -14.78364168 </i>
   <i name="e_0_energy">    -14.78178239 </i>
  </energy>
  <time name="totalsc">    6.51    6.53</time>
  <eigenvalues>
   <array>
    <dimension dim="1">band</dimension>
    <dimension dim="2">kpoint</dimension>
    <dimension dim="3">spin</dimension>
    <field>eigene</field>
    <field>occ</field>
    <set>
     <set comment="spin 1">
      <set comment="kpoint 1">
       <r>   -2.2569    1.0000 </r>
       <r>    2.0139    1.0000 </r>
       <r>    2.0139    1.0000 </r>
       <r>    2.0139    1.0000 </r>
       <r>    2.4022    1.0000 </r>
       <r>    2.4022    1.0000 </r>
       <r>    2.4022    1.0000 </r>
       <r>    3.5716    1.0000 </r>
       <r>    3.5716    1.0000 </r>
       <r>    3.5716    1.0000 </r>
       <r>    4.2661    1.0000 </r>
       <r>    4.2661    1.0000 </r>
       <r>    4.7297    1.0000 </r>
       <r>    4.7297    1.0000 </r>
       <r>    4.7297    1.0000 </r>
       <r>    4.8608    1.0000 </r>
       <r>    4.8608    1.0000 </r>
       <r>    4.8608    1.0000 </r>
       <r>    4.8608    1.0000 </r>
       <r>    4.8608    1.0000 </r>
       <r>    4.8608    1.0000 </r>
       <r>    7.8576   -0.0000 </r>
       <r>    7.8576   -0.0000 </r>
       <r>    7.8576   -0.0000 </r>
       <r>   12.6411    0.0000 </r>
       <r>   12.6411    0.0000 </r>
       <r>   12.6411    0.0000 </r>
       <r>   18.5166    0.0000 </r>
       <r>   18.5166    0.0000 </r>
       <r>   18.5166    0.0000 </r>
      </set>
      <set comment="kpoint 2">
       <r>   -2.1185    1.0000 </r>
       <r>    2.0071    1.0000 </r>
       <r>    2.0743    1.0000 </r>
       <r>    2.0743    1.0000 </r>
       <r>    2.4358    1.0000 </r>
       <r>    2.4379    1.0000 </r>
       <r>    2.4379    1.0000 </r>
       <r>    3.5348    1.0000 </r>
       <r>    3.6017    1.0000 </r>
       <r>    3.6017    1.0000 </r>
       <r>    4.2328    1.0000 </r>
       <r>    4.2798    1.0000 </r>
       <r>    4.6604    1.0000 </r>
       <r>    4.6604    1.0000 </r>
       <r>    4.6861    1.0000 </r>
       <r>    4.6861    1.0000 </r>
       <r>    4.7150    1.0000 </r>
       <r>    4.8098    1.0000 </r>
       <r>    4.8098    1.0000 </r>
       <r>    4.8608    1.0000 </r>
       <r>    4.8608    1.0000 </r>
       <r>    7.0055   -0.0000 </r>
       <r>    8.1847   -0.0000 </r>
       <r>    8.1847   -0.0000 </r>
       <r>   12.6985    0.0000 </r>
       <r>   12.6985    0.0000 </r>
       <r>   13.7784    0.0000 </r>
       <r>   17.6489    0.0000 </r>
       <r>   17.6490    0.0000 </r>
       <r>   17.9061    0.0000 </r>
      </set>
      <set comment="kpoint 3">
       <r>   -1.7079    1.0000 </r>
       <r>    1.9323    1.0000 </r>
       <r>    2.2405    1.0000 </r>
       <r>    2.2405    1.0000 </r>
       <r>    2.5336    1.0000 </r>
       <r>    2.5467    1.0000 </r>
       <r>    2.5467    1.0000 </r>
       <r>    3.4292    1.0000 </r>
       <r>    3.6906    1.0000 </r>
       <r>    3.6906    1.0000 </r>
       <r>    4.1399    1.0000 </r>
       <r>    4.2263    1.0000 </r>
       <r>    4.2263    1.0000 </r>
       <r>    4.3193    1.0000 </r>
       <r>    4.5644    1.0000 </r>
       <r>    4.5644    1.0000 </r>
       <r>    4.6689    1.0000 </r>
       <r>    4.6689    1.0000 </r>
       <r>    4.6740    1.0000 </r>
       <r>    4.8609    1.0000 </r>
       <r>    4.8609    1.0000 </r>
       <r>    5.5435    1.0000 </r>
       <r>    8.9979   -0.0000 </r>
       <r>    8.9979   -0.0000 </r>
       <r>   12.8798    0.0000 </r>
       <r>   12.8798    0.0000 </r>
       <r>   16.0476    0.0000 </r>
       <r>   16.0476    0.0000 </r>
       <r>   16.1410    0.0000 </r>
       <r>   16.6878    0.0000 </r>
      </set>
      <set comment="kpoint 4">
       <r>   -1.0424    1.0000 </r>
       <r>    1.5917    1.0000 </r>
       <r>    2.4603    1.0000 </r>
       <r>    2.4603    1.0000 </r>
       <r>    2.6845    1.0000 </r>
       <r>    2.7314    1.0000 </r>
       <r>    2.7314    1.0000 </r>
       <r>    3.2691    1.0000 </r>
       <r>    3.7587    1.0000 </r>
       <r>    3.7587    1.0000 </r>
       <r>    3.8339    1.0000 </r>
       <r>    3.8339    1.0000 </r>
       <r>    4.0115    1.0000 </r>
       <r>    4.3800    1.0000 </r>
       <r>    4.3953    1.0000 </r>
       <r>    4.3953    1.0000 </r>
       <r>    4.4093    1.0000 </r>
       <r>    4.4676    1.0000 </r>
       <r>    4.4676    1.0000 </r>
       <r>    4.6115    1.0000 </r>
       <r>    4.8611    1.0000 </r>
       <r>    4.8611    1.0000 </r>
       <r>   10.0927   -0.0000 </r>
       <r>   10.0927   -0.0000 </r>
       <r>   13.2112    0.0000 </r>
       <r>   13.2112    0.0000 </r>
       <r>   14.3903    0.0000 </r>
       <r>   14.3903    0.0000 </r>
       <r>   15.4792    0.0000 </r>
       <r>   15.4792    0.0000 </r>
      </set>
      <set comment="kpoint 5">
       <r>   -0.1653    1.0000 </r>
       <r>    0.8080    1.0000 </r>
       <r>    2.6318    1.0000 </r>
       <r>    2.6318    1.0000 </r>
       <r>    2.8723    1.0000 </r>
       <r>    2.9949    1.0000 </r>
       <r>    2.9949    1.0000 </r>
       <r>    3.0753    1.0000 </r>
       <r>    3.3395    1.0000 </r>
       <r>    3.3395    1.0000 </r>
       <r>    3.9014    1.0000 </r>
       <r>    3.9373    1.0000 </r>
       <r>    4.0227    1.0000 </r>
       <r>    4.0227    1.0000 </r>
       <r>    4.2418    1.0000 </r>
       <r>    4.2418    1.0000 </r>
       <r>    4.2567    1.0000 </r>
       <r>    4.2567    1.0000 </r>
       <r>    4.4550    1.0000 </r>
       <r>    4.5354    1.0000 </r>
       <r>    4.8612    1.0000 </r>
       <r>    4.8612    1.0000 </r>
       <r>   11.3793   -0.0000 </r>
       <r>   11.3793   -0.0000 </r>
       <r>   12.8202    0.0000 </r>
       <r>   12.8202    0.0000 </r>
       <r>   13.7313    0.0000 </r>
       <r>   13.7313    0.0000 </r>
       <r>   14.4807    0.0000 </r>
       <r>   14.4807    0.0000 </r>
      </set>
      <set comment="kpoint 6">
       <r>   -1.9810    1.0000 </r>
       <r>    2.0705    1.0000 </r>
       <r>    2.0705    1.0000 </r>
       <r>    2.1321    1.0000 </r>
       <r>    2.4706    1.0000 </r>
       <r>    2.4706    1.0000 </r>
       <r>    2.4718    1.0000 </r>
       <r>    3.5153    1.0000 </r>
       <r>    3.6157    1.0000 </r>
       <r>    3.6263    1.0000 </r>
       <r>    4.2244    1.0000 </r>
       <r>    4.2741    1.0000 </r>
       <r>    4.5243    1.0000 </r>
       <r>    4.5649    1.0000 </r>
       <r>    4.5649    1.0000 </r>
       <r>    4.6462    1.0000 </r>
       <r>    4.7002    1.0000 </r>
       <r>    4.7002    1.0000 </r>
       <r>    4.8097    1.0000 </r>
       <r>    4.8097    1.0000 </r>
       <r>    4.8276    1.0000 </r>
       <r>    7.3215   -0.0000 </r>
       <r>    7.3215   -0.0000 </r>
       <r>    8.4812   -0.0000 </r>
       <r>   12.7579    0.0000 </r>
       <r>   13.8629    0.0000 </r>
       <r>   13.8629    0.0000 </r>
       <r>   16.0315    0.0000 </r>
       <r>   17.8297    0.0000 </r>
       <r>   17.8311    0.0000 </r>
      </set>
      <set comment="kpoint 7">
       <r>   -1.5733    1.0000 </r>
       <r>    2.0051    1.0000 </r>
       <r>    2.2452    1.0000 </r>
       <r>    2.2907    1.0000 </r>
       <r>    2.5647    1.0000 </r>
       <r>    2.5736    1.0000 </r>
       <r>    2.5757    1.0000 </r>
       <r>    3.4225    1.0000 </r>
       <r>    3.6957    1.0000 </r>
       <r>    3.6964    1.0000 </r>
       <r>    4.1286    1.0000 </r>
       <r>    4.1486    1.0000 </r>
       <r>    4.1570    1.0000 </r>
       <r>    4.3152    1.0000 </r>
       <r>    4.3492    1.0000 </r>
       <r>    4.5329    1.0000 </r>
       <r>    4.5743    1.0000 </r>
       <r>    4.6627    1.0000 </r>
       <r>    4.6682    1.0000 </r>
       <r>    4.8092    1.0000 </r>
       <r>    4.8102    1.0000 </r>
       <r>    5.9104    1.0277 </r>
       <r>    8.0587   -0.0000 </r>
       <r>    9.2461   -0.0000 </r>
       <r>   12.9437    0.0000 </r>
       <r>   14.1260    0.0000 </r>
       <r>   14.3011    0.0000 </r>
       <r>   16.2173    0.0000 </r>
       <r>   16.2441    0.0000 </r>
       <r>   16.8445    0.0000 </r>
      </set>
      <set comment="kpoint 8">
       <r>   -0.9134    1.0000 </r>
       <r>    1.6802    1.0000 </r>
       <r>    2.4790    1.0000 </r>
       <r>    2.5048    1.0000 </r>
       <r>    2.7103    1.0000 </r>
       <r>    2.7391    1.0000 </r>
       <r>    2.7537    1.0000 </r>
       <r>    3.2711    1.0000 </r>
       <r>    3.6724    1.0000 </r>
       <r>    3.7297    1.0000 </r>
       <r>    3.7845    1.0000 </r>
       <r>    3.8359    1.0000 </r>
       <r>    4.0083    1.0000 </r>
       <r>    4.0608    1.0000 </r>
       <r>    4.3751    1.0000 </r>
       <r>    4.3910    1.0000 </r>
       <r>    4.4060    1.0000 </r>
       <r>    4.4668    1.0000 </r>
       <r>    4.5580    1.0000 </r>
       <r>    4.8066    1.0000 </r>
       <r>    4.8083    1.0000 </r>
       <r>    4.9472    1.0000 </r>
       <r>    9.0037   -0.0000 </r>
       <r>   10.3058   -0.0000 </r>
       <r>   12.7079    0.0000 </r>
       <r>   13.3023    0.0000 </r>
       <r>   14.5600    0.0000 </r>
       <r>   14.5919    0.0000 </r>
       <r>   15.6152    0.0000 </r>
       <r>   17.3608    0.0000 </r>
      </set>
      <set comment="kpoint 9">
       <r>   -0.0455    1.0000 </r>
       <r>    0.9138    1.0000 </r>
       <r>    2.6693    1.0000 </r>
       <r>    2.6805    1.0000 </r>
       <r>    2.8910    1.0000 </r>
       <r>    2.9633    1.0000 </r>
       <r>    3.0069    1.0000 </r>
       <r>    3.0859    1.0000 </r>
       <r>    3.2743    1.0000 </r>
       <r>    3.3355    1.0000 </r>
       <r>    3.7804    1.0000 </r>
       <r>    3.7822    1.0000 </r>
       <r>    4.0232    1.0000 </r>
       <r>    4.1202    1.0000 </r>
       <r>    4.2414    1.0000 </r>
       <r>    4.2495    1.0000 </r>
       <r>    4.2623    1.0000 </r>
       <r>    4.3329    1.0000 </r>
       <r>    4.4893    1.0000 </r>
       <r>    4.6183    1.0000 </r>
       <r>    4.8066    1.0000 </r>
       <r>    4.8074    1.0000 </r>
       <r>   10.0916   -0.0000 </r>
       <r>   11.3208   -0.0000 </r>
       <r>   11.5700   -0.0000 </r>
       <r>   12.9971    0.0000 </r>
       <r>   13.8293    0.0000 </r>
       <r>   14.5941    0.0000 </r>
       <r>   15.2928    0.0000 </r>
       <r>   16.2287    0.0000 </r>
      </set>
      <set comment="kpoint 10">
       <r>   -1.1752    1.0000 </r>
       <r>    2.2072    1.0000 </r>
       <r>    2.2072    1.0000 </r>
       <r>    2.4267    1.0000 </r>
       <r>    2.6549    1.0000 </r>
       <r>    2.6589    1.0000 </r>
       <r>    2.6589    1.0000 </r>
       <r>    3.3752    1.0000 </r>
       <r>    3.7149    1.0000 </r>
       <r>    3.7411    1.0000 </r>
       <r>    3.8914    1.0000 </r>
       <r>    3.8914    1.0000 </r>
       <r>    3.9443    1.0000 </r>
       <r>    4.1232    1.0000 </r>
       <r>    4.3581    1.0000 </r>
       <r>    4.4417    1.0000 </r>
       <r>    4.5542    1.0000 </r>
       <r>    4.5542    1.0000 </r>
       <r>    4.6666    1.0000 </r>
       <r>    4.6666    1.0000 </r>
       <r>    4.7305    1.0000 </r>
       <r>    6.5951   -0.0102 </r>
       <r>    6.5951   -0.0102 </r>
       <r>    9.9219   -0.0000 </r>
       <r>   12.4438    0.0000 </r>
       <r>   13.1742    0.0000 </r>
       <r>   16.5579    0.0000 </r>
       <r>   16.5579    0.0000 </r>
       <r>   16.7113    0.0000 </r>
       <r>   16.7113    0.0000 </r>
      </set>
      <set comment="kpoint 11">
       <r>   -0.5334    1.0000 </r>
       <r>    1.9271    1.0000 </r>
       <r>    2.4854    1.0000 </r>
       <r>    2.6139    1.0000 </r>
       <r>    2.7762    1.0000 </r>
       <r>    2.7872    1.0000 </r>
       <r>    2.8175    1.0000 </r>
       <r>    3.2648    1.0000 </r>
       <r>    3.4755    1.0000 </r>
       <r>    3.6376    1.0000 </r>
       <r>    3.6403    1.0000 </r>
       <r>    3.7222    1.0000 </r>
       <r>    3.8568    1.0000 </r>
       <r>    4.0733    1.0000 </r>
       <r>    4.3117    1.0000 </r>
       <r>    4.3960    1.0000 </r>
       <r>    4.4592    1.0000 </r>
       <r>    4.4653    1.0000 </r>
       <r>    4.4788    1.0000 </r>
       <r>    4.6647    1.0000 </r>
       <r>    4.6861    1.0000 </r>
       <r>    5.5030    1.0000 </r>
       <r>    7.4107   -0.0000 </r>
       <r>   10.8497   -0.0000 </r>
       <r>   10.9060   -0.0000 </r>
       <r>   13.5424    0.0000 </r>
       <r>   15.0539    0.0000 </r>
       <r>   16.0137    0.0000 </r>
       <r>   17.0946    0.0000 </r>
       <r>   17.4933    0.0000 </r>
      </set>
      <set comment="kpoint 12">
       <r>    0.3038    1.0000 </r>
       <r>    1.2154    1.0000 </r>
       <r>    2.7390    1.0000 </r>
       <r>    2.8152    1.0000 </r>
       <r>    2.8746    1.0000 </r>
       <r>    2.9450    1.0000 </r>
       <r>    3.0397    1.0000 </r>
       <r>    3.1122    1.0000 </r>
       <r>    3.1292    1.0000 </r>
       <r>    3.3197    1.0000 </r>
       <r>    3.5730    1.0000 </r>
       <r>    3.6544    1.0000 </r>
       <r>    4.0311    1.0000 </r>
       <r>    4.1271    1.0000 </r>
       <r>    4.2146    1.0000 </r>
       <r>    4.2425    1.0000 </r>
       <r>    4.2496    1.0000 </r>
       <r>    4.2896    1.0000 </r>
       <r>    4.6550    1.0000 </r>
       <r>    4.6643    1.0000 </r>
       <r>    4.6690    1.0000 </r>
       <r>    4.9321    1.0000 </r>
       <r>    8.3628   -0.0000 </r>
       <r>    9.4944   -0.0000 </r>
       <r>   12.1169    0.0000 </r>
       <r>   13.5095    0.0000 </r>
       <r>   14.1216    0.0000 </r>
       <r>   14.9402    0.0000 </r>
       <r>   17.8547    0.0000 </r>
       <r>   18.5201    0.0000 </r>
      </set>
      <set comment="kpoint 13">
       <r>    0.0727    1.0000 </r>
       <r>    2.2711    1.0000 </r>
       <r>    2.2711    1.0000 </r>
       <r>    2.7073    1.0000 </r>
       <r>    2.8801    1.0000 </r>
       <r>    2.9136    1.0000 </r>
       <r>    2.9136    1.0000 </r>
       <r>    3.2234    1.0000 </r>
       <r>    3.3460    1.0000 </r>
       <r>    3.3460    1.0000 </r>
       <r>    3.4804    1.0000 </r>
       <r>    3.6702    1.0000 </r>
       <r>    3.9283    1.0000 </r>
       <r>    4.0209    1.0000 </r>
       <r>    4.2119    1.0000 </r>
       <r>    4.3136    1.0000 </r>
       <r>    4.3136    1.0000 </r>
       <r>    4.4663    1.0000 </r>
       <r>    4.4663    1.0000 </r>
       <r>    4.5751    1.0000 </r>
       <r>    4.6677    1.0000 </r>
       <r>    6.1490    0.7465 </r>
       <r>    6.1490    0.7465 </r>
       <r>    9.2528   -0.0000 </r>
       <r>   11.8147    0.0000 </r>
       <r>   13.9748    0.0000 </r>
       <r>   15.8356    0.0000 </r>
       <r>   15.8356    0.0000 </r>
       <r>   16.6737    0.0000 </r>
       <r>   16.6737    0.0000 </r>
      </set>
      <set comment="kpoint 14">
       <r>    0.8463    1.0000 </r>
       <r>    1.6585    1.0000 </r>
       <r>    2.5912    1.0000 </r>
       <r>    2.7322    1.0000 </r>
       <r>    3.0037    1.0000 </r>
       <r>    3.0275    1.0000 </r>
       <r>    3.0838    1.0000 </r>
       <r>    3.1351    1.0000 </r>
       <r>    3.1387    1.0000 </r>
       <r>    3.2825    1.0000 </r>
       <r>    3.4182    1.0000 </r>
       <r>    3.5673    1.0000 </r>
       <r>    4.0376    1.0000 </r>
       <r>    4.0656    1.0000 </r>
       <r>    4.1342    1.0000 </r>
       <r>    4.1652    1.0000 </r>
       <r>    4.1749    1.0000 </r>
       <r>    4.2545    1.0000 </r>
       <r>    4.4766    1.0000 </r>
       <r>    4.5076    1.0000 </r>
       <r>    4.9392    1.0000 </r>
       <r>    5.3685    1.0000 </r>
       <r>    6.9401   -0.0000 </r>
       <r>    7.9544   -0.0000 </r>
       <r>   12.9655    0.0000 </r>
       <r>   14.3154    0.0000 </r>
       <r>   14.6248    0.0000 </r>
       <r>   15.5209    0.0000 </r>
       <r>   16.8648    0.0000 </r>
       <r>   17.5807    0.0000 </r>
      </set>
      <set comment="kpoint 15">
       <r>    1.5023    1.0000 </r>
       <r>    2.1333    1.0000 </r>
       <r>    2.1333    1.0000 </r>
       <r>    2.5041    1.0000 </r>
       <r>    3.1248    1.0000 </r>
       <r>    3.1248    1.0000 </r>
       <r>    3.1459    1.0000 </r>
       <r>    3.1866    1.0000 </r>
       <r>    3.2159    1.0000 </r>
       <r>    3.3115    1.0000 </r>
       <r>    3.3115    1.0000 </r>
       <r>    3.4745    1.0000 </r>
       <r>    3.9807    1.0000 </r>
       <r>    4.0434    1.0000 </r>
       <r>    4.0506    1.0000 </r>
       <r>    4.0506    1.0000 </r>
       <r>    4.1498    1.0000 </r>
       <r>    4.2925    1.0000 </r>
       <r>    4.2925    1.0000 </r>
       <r>    4.3746    1.0000 </r>
       <r>    5.3342    1.0000 </r>
       <r>    5.9468    1.0343 </r>
       <r>    5.9468    1.0343 </r>
       <r>    6.7752   -0.0002 </r>
       <r>   14.0627    0.0000 </r>
       <r>   15.3591    0.0000 </r>
       <r>   15.3710    0.0000 </r>
       <r>   15.3710    0.0000 </r>
       <r>   16.3429    0.0000 </r>
       <r>   16.3429    0.0000 </r>
      </set>
      <set comment="kpoint 16">
       <r>   -1.8445    1.0000 </r>
       <r>    2.1302    1.0000 </r>
       <r>    2.1302    1.0000 </r>
       <r>    2.1302    1.0000 </r>
       <r>    2.5034    1.0000 </r>
       <r>    2.5034    1.0000 </r>
       <r>    2.5034    1.0000 </r>
       <r>    3.4986    1.0000 </r>
       <r>    3.6368    1.0000 </r>
       <r>    3.6368    1.0000 </r>
       <r>    4.2450    1.0000 </r>
       <r>    4.2450    1.0000 </r>
       <r>    4.4462    1.0000 </r>
       <r>    4.4462    1.0000 </r>
       <r>    4.4462    1.0000 </r>
       <r>    4.5989    1.0000 </r>
       <r>    4.5989    1.0000 </r>
       <r>    4.5989    1.0000 </r>
       <r>    4.8157    1.0000 </r>
       <r>    4.8157    1.0000 </r>
       <r>    4.8157    1.0000 </r>
       <r>    7.5951   -0.0000 </r>
       <r>    7.5951   -0.0000 </r>
       <r>    7.5951   -0.0000 </r>
       <r>   13.9497    0.0000 </r>
       <r>   13.9497    0.0000 </r>
       <r>   13.9497    0.0000 </r>
       <r>   16.2001    0.0000 </r>
       <r>   16.2001    0.0000 </r>
       <r>   16.2001    0.0000 </r>
      </set>
      <set comment="kpoint 17">
       <r>   -1.4402    1.0000 </r>
       <r>    2.0718    1.0000 </r>
       <r>    2.2945    1.0000 </r>
       <r>    2.2945    1.0000 </r>
       <r>    2.5953    1.0000 </r>
       <r>    2.6024    1.0000 </r>
       <r>    2.6024    1.0000 </r>
       <r>    3.4177    1.0000 </r>
       <r>    3.6965    1.0000 </r>
       <r>    3.7004    1.0000 </r>
       <r>    4.0704    1.0000 </r>
       <r>    4.0704    1.0000 </r>
       <r>    4.1708    1.0000 </r>
       <r>    4.2122    1.0000 </r>
       <r>    4.3034    1.0000 </r>
       <r>    4.4750    1.0000 </r>
       <r>    4.5002    1.0000 </r>
       <r>    4.5002    1.0000 </r>
       <r>    4.7739    1.0000 </r>
       <r>    4.7966    1.0000 </r>
       <r>    4.7966    1.0000 </r>
       <r>    6.1702    0.6660 </r>
       <r>    8.2721   -0.0000 </r>
       <r>    8.2721   -0.0000 </r>
       <r>   14.2192    0.0000 </r>
       <r>   14.2192    0.0000 </r>
       <r>   14.4633    0.0000 </r>
       <r>   14.4633    0.0000 </r>
       <r>   16.3481    0.0000 </r>
       <r>   16.6920    0.0000 </r>
      </set>
      <set comment="kpoint 18">
       <r>   -0.7867    1.0000 </r>
       <r>    1.7599    1.0000 </r>
       <r>    2.5178    1.0000 </r>
       <r>    2.5178    1.0000 </r>
       <r>    2.7375    1.0000 </r>
       <r>    2.7605    1.0000 </r>
       <r>    2.7605    1.0000 </r>
       <r>    3.2765    1.0000 </r>
       <r>    3.6577    1.0000 </r>
       <r>    3.6577    1.0000 </r>
       <r>    3.7666    1.0000 </r>
       <r>    3.8062    1.0000 </r>
       <r>    3.8811    1.0000 </r>
       <r>    4.1202    1.0000 </r>
       <r>    4.3062    1.0000 </r>
       <r>    4.3614    1.0000 </r>
       <r>    4.3614    1.0000 </r>
       <r>    4.3910    1.0000 </r>
       <r>    4.7001    1.0000 </r>
       <r>    4.7796    1.0000 </r>
       <r>    4.7796    1.0000 </r>
       <r>    5.1228    1.0000 </r>
       <r>    9.1735   -0.0000 </r>
       <r>    9.1735   -0.0000 </r>
       <r>   12.8896    0.0000 </r>
       <r>   12.8896    0.0000 </r>
       <r>   14.6961    0.0000 </r>
       <r>   14.6961    0.0000 </r>
       <r>   17.4740    0.0000 </r>
       <r>   17.5067    0.0000 </r>
      </set>
      <set comment="kpoint 19">
       <r>    0.0704    1.0000 </r>
       <r>    1.0127    1.0000 </r>
       <r>    2.7164    1.0000 </r>
       <r>    2.7164    1.0000 </r>
       <r>    2.9129    1.0000 </r>
       <r>    2.9413    1.0000 </r>
       <r>    2.9413    1.0000 </r>
       <r>    3.1003    1.0000 </r>
       <r>    3.3132    1.0000 </r>
       <r>    3.3132    1.0000 </r>
       <r>    3.7076    1.0000 </r>
       <r>    3.7358    1.0000 </r>
       <r>    3.9504    1.0000 </r>
       <r>    4.1230    1.0000 </r>
       <r>    4.2378    1.0000 </r>
       <r>    4.2378    1.0000 </r>
       <r>    4.2452    1.0000 </r>
       <r>    4.4955    1.0000 </r>
       <r>    4.5579    1.0000 </r>
       <r>    4.6031    1.0000 </r>
       <r>    4.7721    1.0000 </r>
       <r>    4.7721    1.0000 </r>
       <r>   10.2080   -0.0000 </r>
       <r>   10.2080   -0.0000 </r>
       <r>   11.5295   -0.0000 </r>
       <r>   11.5295   -0.0000 </r>
       <r>   15.4048    0.0000 </r>
       <r>   15.4048    0.0000 </r>
       <r>   16.3600    0.0000 </r>
       <r>   16.3600    0.0000 </r>
      </set>
      <set comment="kpoint 20">
       <r>   -1.0469    1.0000 </r>
       <r>    2.2533    1.0000 </r>
       <r>    2.2533    1.0000 </r>
       <r>    2.4252    1.0000 </r>
       <r>    2.6847    1.0000 </r>
       <r>    2.6882    1.0000 </r>
       <r>    2.6882    1.0000 </r>
       <r>    3.3791    1.0000 </r>
       <r>    3.7122    1.0000 </r>
       <r>    3.7265    1.0000 </r>
       <r>    3.8491    1.0000 </r>
       <r>    3.8491    1.0000 </r>
       <r>    3.8784    1.0000 </r>
       <r>    4.1734    1.0000 </r>
       <r>    4.3366    1.0000 </r>
       <r>    4.3702    1.0000 </r>
       <r>    4.3904    1.0000 </r>
       <r>    4.3904    1.0000 </r>
       <r>    4.7572    1.0000 </r>
       <r>    4.7572    1.0000 </r>
       <r>    4.7577    1.0000 </r>
       <r>    6.7666   -0.0003 </r>
       <r>    6.7666   -0.0003 </r>
       <r>    8.8381   -0.0000 </r>
       <r>   12.6376    0.0000 </r>
       <r>   14.5088    0.0000 </r>
       <r>   14.9365    0.0000 </r>
       <r>   14.9365    0.0000 </r>
       <r>   16.6658    0.0000 </r>
       <r>   16.6658    0.0000 </r>
      </set>
      <set comment="kpoint 21">
       <r>   -0.4144    1.0000 </r>
       <r>    1.9765    1.0000 </r>
       <r>    2.4957    1.0000 </r>
       <r>    2.5974    1.0000 </r>
       <r>    2.8066    1.0000 </r>
       <r>    2.8217    1.0000 </r>
       <r>    2.8357    1.0000 </r>
       <r>    3.2819    1.0000 </r>
       <r>    3.4951    1.0000 </r>
       <r>    3.6052    1.0000 </r>
       <r>    3.6176    1.0000 </r>
       <r>    3.7166    1.0000 </r>
       <r>    3.7971    1.0000 </r>
       <r>    4.1651    1.0000 </r>
       <r>    4.2253    1.0000 </r>
       <r>    4.2508    1.0000 </r>
       <r>    4.2909    1.0000 </r>
       <r>    4.4586    1.0000 </r>
       <r>    4.6765    1.0000 </r>
       <r>    4.7119    1.0000 </r>
       <r>    4.7120    1.0000 </r>
       <r>    5.5957    1.0001 </r>
       <r>    7.5369   -0.0000 </r>
       <r>    9.5983   -0.0000 </r>
       <r>   11.1036   -0.0000 </r>
       <r>   13.3555    0.0000 </r>
       <r>   15.0147    0.0000 </r>
       <r>   15.6890    0.0000 </r>
       <r>   17.2061    0.0000 </r>
       <r>   17.9386    0.0000 </r>
      </set>
      <set comment="kpoint 22">
       <r>    0.4061    1.0000 </r>
       <r>    1.2909    1.0000 </r>
       <r>    2.7240    1.0000 </r>
       <r>    2.7773    1.0000 </r>
       <r>    2.8734    1.0000 </r>
       <r>    2.9385    1.0000 </r>
       <r>    2.9808    1.0000 </r>
       <r>    3.1412    1.0000 </r>
       <r>    3.2834    1.0000 </r>
       <r>    3.3694    1.0000 </r>
       <r>    3.5622    1.0000 </r>
       <r>    3.6458    1.0000 </r>
       <r>    3.9044    1.0000 </r>
       <r>    4.0519    1.0000 </r>
       <r>    4.1624    1.0000 </r>
       <r>    4.1830    1.0000 </r>
       <r>    4.2971    1.0000 </r>
       <r>    4.5215    1.0000 </r>
       <r>    4.6289    1.0000 </r>
       <r>    4.6845    1.0000 </r>
       <r>    4.6846    1.0000 </r>
       <r>    4.9261    1.0000 </r>
       <r>    8.4551   -0.0000 </r>
       <r>    9.4989   -0.0000 </r>
       <r>   10.8677   -0.0000 </r>
       <r>   11.9837    0.0000 </r>
       <r>   15.7592    0.0000 </r>
       <r>   16.6873    0.0000 </r>
       <r>   16.7469    0.0000 </r>
       <r>   17.9070    0.0000 </r>
      </set>
      <set comment="kpoint 23">
       <r>    0.1759    1.0000 </r>
       <r>    2.2577    1.0000 </r>
       <r>    2.2577    1.0000 </r>
       <r>    2.6362    1.0000 </r>
       <r>    2.9279    1.0000 </r>
       <r>    2.9656    1.0000 </r>
       <r>    2.9656    1.0000 </r>
       <r>    3.2613    1.0000 </r>
       <r>    3.3845    1.0000 </r>
       <r>    3.3845    1.0000 </r>
       <r>    3.5103    1.0000 </r>
       <r>    3.6705    1.0000 </r>
       <r>    3.8126    1.0000 </r>
       <r>    4.1294    1.0000 </r>
       <r>    4.1525    1.0000 </r>
       <r>    4.1525    1.0000 </r>
       <r>    4.1623    1.0000 </r>
       <r>    4.6067    1.0000 </r>
       <r>    4.6067    1.0000 </r>
       <r>    4.6327    1.0000 </r>
       <r>    4.6410    1.0000 </r>
       <r>    6.2125    0.4909 </r>
       <r>    6.2125    0.4909 </r>
       <r>    9.2089   -0.0000 </r>
       <r>   10.6543   -0.0000 </r>
       <r>   14.0916    0.0000 </r>
       <r>   14.0916    0.0000 </r>
       <r>   15.5631    0.0000 </r>
       <r>   17.6987    0.0000 </r>
       <r>   18.6408    0.0000 </r>
      </set>
      <set comment="kpoint 24">
       <r>    0.9201    1.0000 </r>
       <r>    1.6850    1.0000 </r>
       <r>    2.4944    1.0000 </r>
       <r>    2.6143    1.0000 </r>
       <r>    3.0474    1.0000 </r>
       <r>    3.0975    1.0000 </r>
       <r>    3.0983    1.0000 </r>
       <r>    3.1988    1.0000 </r>
       <r>    3.2848    1.0000 </r>
       <r>    3.3953    1.0000 </r>
       <r>    3.4366    1.0000 </r>
       <r>    3.5732    1.0000 </r>
       <r>    3.8704    1.0000 </r>
       <r>    3.9936    1.0000 </r>
       <r>    4.0499    1.0000 </r>
       <r>    4.0703    1.0000 </r>
       <r>    4.2572    1.0000 </r>
       <r>    4.4425    1.0000 </r>
       <r>    4.5619    1.0000 </r>
       <r>    4.5725    1.0000 </r>
       <r>    4.9097    1.0000 </r>
       <r>    5.3634    1.0000 </r>
       <r>    6.9902   -0.0000 </r>
       <r>    7.9907   -0.0000 </r>
       <r>   11.5451   -0.0000 </r>
       <r>   12.7086    0.0000 </r>
       <r>   15.0711    0.0000 </r>
       <r>   16.2761    0.0000 </r>
       <r>   16.3563    0.0000 </r>
       <r>   17.3940    0.0000 </r>
      </set>
      <set comment="kpoint 25">
       <r>    1.5245    1.0000 </r>
       <r>    2.0842    1.0000 </r>
       <r>    2.0842    1.0000 </r>
       <r>    2.3937    1.0000 </r>
       <r>    3.2226    1.0000 </r>
       <r>    3.2483    1.0000 </r>
       <r>    3.2486    1.0000 </r>
       <r>    3.2486    1.0000 </r>
       <r>    3.3453    1.0000 </r>
       <r>    3.3453    1.0000 </r>
       <r>    3.3678    1.0000 </r>
       <r>    3.4908    1.0000 </r>
       <r>    3.8584    1.0000 </r>
       <r>    3.9366    1.0000 </r>
       <r>    3.9366    1.0000 </r>
       <r>    3.9493    1.0000 </r>
       <r>    4.2837    1.0000 </r>
       <r>    4.4103    1.0000 </r>
       <r>    4.4103    1.0000 </r>
       <r>    4.4633    1.0000 </r>
       <r>    5.3072    1.0000 </r>
       <r>    5.9464    1.0342 </r>
       <r>    5.9464    1.0342 </r>
       <r>    6.7927   -0.0002 </r>
       <r>   12.4969    0.0000 </r>
       <r>   13.6735    0.0000 </r>
       <r>   13.6735    0.0000 </r>
       <r>   14.8639    0.0000 </r>
       <r>   17.2016    0.0000 </r>
       <r>   18.2900    0.0000 </r>
      </set>
      <set comment="kpoint 26">
       <r>   -0.6692    1.0000 </r>
       <r>    2.3661    1.0000 </r>
       <r>    2.3661    1.0000 </r>
       <r>    2.3661    1.0000 </r>
       <r>    2.7815    1.0000 </r>
       <r>    2.7815    1.0000 </r>
       <r>    2.7815    1.0000 </r>
       <r>    3.3745    1.0000 </r>
       <r>    3.7111    1.0000 </r>
       <r>    3.7111    1.0000 </r>
       <r>    3.7111    1.0000 </r>
       <r>    3.7113    1.0000 </r>
       <r>    3.7113    1.0000 </r>
       <r>    4.2204    1.0000 </r>
       <r>    4.2204    1.0000 </r>
       <r>    4.2204    1.0000 </r>
       <r>    4.2921    1.0000 </r>
       <r>    4.2921    1.0000 </r>
       <r>    4.7826    1.0000 </r>
       <r>    4.7826    1.0000 </r>
       <r>    4.7826    1.0000 </r>
       <r>    7.2250   -0.0000 </r>
       <r>    7.2250   -0.0000 </r>
       <r>    7.2250   -0.0000 </r>
       <r>   13.1097    0.0000 </r>
       <r>   13.1097    0.0000 </r>
       <r>   13.1097    0.0000 </r>
       <r>   16.9923    0.0000 </r>
       <r>   16.9923    0.0000 </r>
       <r>   16.9923    0.0000 </r>
      </set>
      <set comment="kpoint 27">
       <r>   -0.0680    1.0000 </r>
       <r>    2.0947    1.0000 </r>
       <r>    2.4897    1.0000 </r>
       <r>    2.4897    1.0000 </r>
       <r>    2.9225    1.0000 </r>
       <r>    2.9225    1.0000 </r>
       <r>    2.9345    1.0000 </r>
       <r>    3.3294    1.0000 </r>
       <r>    3.5378    1.0000 </r>
       <r>    3.5378    1.0000 </r>
       <r>    3.5520    1.0000 </r>
       <r>    3.6974    1.0000 </r>
       <r>    3.7299    1.0000 </r>
       <r>    4.0555    1.0000 </r>
       <r>    4.1144    1.0000 </r>
       <r>    4.1144    1.0000 </r>
       <r>    4.3074    1.0000 </r>
       <r>    4.4355    1.0000 </r>
       <r>    4.7440    1.0000 </r>
       <r>    4.7440    1.0000 </r>
       <r>    4.7613    1.0000 </r>
       <r>    5.9014    1.0256 </r>
       <r>    7.8733   -0.0000 </r>
       <r>    7.8733   -0.0000 </r>
       <r>   11.5517   -0.0000 </r>
       <r>   11.5517   -0.0000 </r>
       <r>   13.8500    0.0000 </r>
       <r>   17.4695    0.0000 </r>
       <r>   17.5469    0.0000 </r>
       <r>   17.5469    0.0000 </r>
      </set>
      <set comment="kpoint 28">
       <r>    0.6961    1.0000 </r>
       <r>    1.4912    1.0000 </r>
       <r>    2.5772    1.0000 </r>
       <r>    2.5772    1.0000 </r>
       <r>    3.0083    1.0000 </r>
       <r>    3.0083    1.0000 </r>
       <r>    3.0995    1.0000 </r>
       <r>    3.2354    1.0000 </r>
       <r>    3.4608    1.0000 </r>
       <r>    3.4608    1.0000 </r>
       <r>    3.5306    1.0000 </r>
       <r>    3.6192    1.0000 </r>
       <r>    3.7955    1.0000 </r>
       <r>    3.9073    1.0000 </r>
       <r>    4.0400    1.0000 </r>
       <r>    4.0400    1.0000 </r>
       <r>    4.5196    1.0000 </r>
       <r>    4.5752    1.0000 </r>
       <r>    4.6890    1.0000 </r>
       <r>    4.7013    1.0000 </r>
       <r>    4.7013    1.0000 </r>
       <r>    5.0174    1.0000 </r>
       <r>    8.5706   -0.0000 </r>
       <r>    8.5706   -0.0000 </r>
       <r>   10.3961   -0.0000 </r>
       <r>   10.3961   -0.0000 </r>
       <r>   14.8336    0.0000 </r>
       <r>   16.0426    0.0000 </r>
       <r>   18.3328    0.0000 </r>
       <r>   18.3328    0.0000 </r>
      </set>
      <set comment="kpoint 29">
       <r>    0.4692    1.0000 </r>
       <r>    2.2176    1.0000 </r>
       <r>    2.2176    1.0000 </r>
       <r>    2.4453    1.0000 </r>
       <r>    3.0649    1.0000 </r>
       <r>    3.1080    1.0000 </r>
       <r>    3.1080    1.0000 </r>
       <r>    3.3856    1.0000 </r>
       <r>    3.4916    1.0000 </r>
       <r>    3.4916    1.0000 </r>
       <r>    3.5801    1.0000 </r>
       <r>    3.6659    1.0000 </r>
       <r>    3.7016    1.0000 </r>
       <r>    3.9599    1.0000 </r>
       <r>    3.9599    1.0000 </r>
       <r>    3.9731    1.0000 </r>
       <r>    4.3464    1.0000 </r>
       <r>    4.5710    1.0000 </r>
       <r>    4.7174    1.0000 </r>
       <r>    4.7307    1.0000 </r>
       <r>    4.7307    1.0000 </r>
       <r>    6.4107   -0.0253 </r>
       <r>    6.4107   -0.0253 </r>
       <r>    8.2214   -0.0000 </r>
       <r>   10.2305   -0.0000 </r>
       <r>   12.2655    0.0000 </r>
       <r>   12.2655    0.0000 </r>
       <r>   15.8256    0.0000 </r>
       <r>   18.1221    0.0000 </r>
       <r>   20.3898    0.0000 </r>
      </set>
      <set comment="kpoint 30">
       <r>    1.1180    1.0000 </r>
       <r>    1.7454    1.0000 </r>
       <r>    2.3116    1.0000 </r>
       <r>    2.3840    1.0000 </r>
       <r>    3.1715    1.0000 </r>
       <r>    3.2012    1.0000 </r>
       <r>    3.3042    1.0000 </r>
       <r>    3.4011    1.0000 </r>
       <r>    3.4982    1.0000 </r>
       <r>    3.5449    1.0000 </r>
       <r>    3.5830    1.0000 </r>
       <r>    3.6074    1.0000 </r>
       <r>    3.7319    1.0000 </r>
       <r>    3.8241    1.0000 </r>
       <r>    3.8950    1.0000 </r>
       <r>    3.9004    1.0000 </r>
       <r>    4.4689    1.0000 </r>
       <r>    4.6435    1.0000 </r>
       <r>    4.6710    1.0000 </r>
       <r>    4.6740    1.0000 </r>
       <r>    4.8237    1.0000 </r>
       <r>    5.3741    1.0000 </r>
       <r>    7.1010   -0.0000 </r>
       <r>    7.8978   -0.0000 </r>
       <r>   10.0999   -0.0000 </r>
       <r>   10.9773   -0.0000 </r>
       <r>   13.2222    0.0000 </r>
       <r>   14.4098    0.0000 </r>
       <r>   18.9344    0.0000 </r>
       <r>   19.9626    0.0000 </r>
      </set>
      <set comment="kpoint 31">
       <r>    1.5768    1.0000 </r>
       <r>    1.9831    1.0000 </r>
       <r>    1.9831    1.0000 </r>
       <r>    2.1894    1.0000 </r>
       <r>    3.3190    1.0000 </r>
       <r>    3.3959    1.0000 </r>
       <r>    3.3959    1.0000 </r>
       <r>    3.5257    1.0000 </r>
       <r>    3.5759    1.0000 </r>
       <r>    3.6017    1.0000 </r>
       <r>    3.6017    1.0000 </r>
       <r>    3.6894    1.0000 </r>
       <r>    3.7098    1.0000 </r>
       <r>    3.7807    1.0000 </r>
       <r>    3.7807    1.0000 </r>
       <r>    3.7940    1.0000 </r>
       <r>    4.4647    1.0000 </r>
       <r>    4.5779    1.0000 </r>
       <r>    4.5779    1.0000 </r>
       <r>    4.6017    1.0000 </r>
       <r>    5.2222    1.0000 </r>
       <r>    5.9416    1.0336 </r>
       <r>    5.9416    1.0336 </r>
       <r>    6.7968   -0.0001 </r>
       <r>   10.8026   -0.0000 </r>
       <r>   11.8728    0.0000 </r>
       <r>   11.8728    0.0000 </r>
       <r>   13.0193    0.0000 </r>
       <r>   19.7779    0.0000 </r>
       <r>   20.8473    0.0000 </r>
      </set>
      <set comment="kpoint 32">
       <r>    0.9001    1.0000 </r>
       <r>    2.1683    1.0000 </r>
       <r>    2.1683    1.0000 </r>
       <r>    2.1683    1.0000 </r>
       <r>    3.2579    1.0000 </r>
       <r>    3.2579    1.0000 </r>
       <r>    3.2579    1.0000 </r>
       <r>    3.6038    1.0000 </r>
       <r>    3.6429    1.0000 </r>
       <r>    3.6429    1.0000 </r>
       <r>    3.6638    1.0000 </r>
       <r>    3.6638    1.0000 </r>
       <r>    3.6638    1.0000 </r>
       <r>    3.8216    1.0000 </r>
       <r>    3.8216    1.0000 </r>
       <r>    3.8216    1.0000 </r>
       <r>    4.5173    1.0000 </r>
       <r>    4.5173    1.0000 </r>
       <r>    4.7587    1.0000 </r>
       <r>    4.7587    1.0000 </r>
       <r>    4.7587    1.0000 </r>
       <r>    6.7362   -0.0006 </r>
       <r>    6.7362   -0.0006 </r>
       <r>    6.7362   -0.0006 </r>
       <r>   10.7840   -0.0000 </r>
       <r>   10.7840   -0.0000 </r>
       <r>   10.7840   -0.0000 </r>
       <r>   14.1902    0.0000 </r>
       <r>   20.9550    0.0000 </r>
       <r>   20.9550    0.0000 </r>
      </set>
      <set comment="kpoint 33">
       <r>    1.3784    1.0000 </r>
       <r>    1.8133    1.0000 </r>
       <r>    2.1362    1.0000 </r>
       <r>    2.1362    1.0000 </r>
       <r>    3.3305    1.0000 </r>
       <r>    3.3305    1.0000 </r>
       <r>    3.4495    1.0000 </r>
       <r>    3.5800    1.0000 </r>
       <r>    3.6444    1.0000 </r>
       <r>    3.7064    1.0000 </r>
       <r>    3.7493    1.0000 </r>
       <r>    3.7493    1.0000 </r>
       <r>    3.7499    1.0000 </r>
       <r>    3.7801    1.0000 </r>
       <r>    3.8396    1.0000 </r>
       <r>    3.8396    1.0000 </r>
       <r>    4.6534    1.0000 </r>
       <r>    4.7246    1.0000 </r>
       <r>    4.7246    1.0000 </r>
       <r>    4.7334    1.0000 </r>
       <r>    4.7372    1.0000 </r>
       <r>    5.5118    1.0000 </r>
       <r>    7.0701   -0.0000 </r>
       <r>    7.0701   -0.0000 </r>
       <r>    9.8448   -0.0000 </r>
       <r>    9.8448   -0.0000 </r>
       <r>   11.6641   -0.0000 </r>
       <r>   12.8024    0.0000 </r>
       <r>   21.7353    0.0000 </r>
       <r>   21.7353    0.0000 </r>
      </set>
      <set comment="kpoint 34">
       <r>    1.6418    1.0000 </r>
       <r>    1.8908    1.0000 </r>
       <r>    1.8908    1.0000 </r>
       <r>    1.9948    1.0000 </r>
       <r>    3.4305    1.0000 </r>
       <r>    3.4703    1.0000 </r>
       <r>    3.4703    1.0000 </r>
       <r>    3.5588    1.0000 </r>
       <r>    3.6055    1.0000 </r>
       <r>    3.6478    1.0000 </r>
       <r>    3.6478    1.0000 </r>
       <r>    3.6620    1.0000 </r>
       <r>    4.0616    1.0000 </r>
       <r>    4.0616    1.0000 </r>
       <r>    4.0731    1.0000 </r>
       <r>    4.1415    1.0000 </r>
       <r>    4.6159    1.0000 </r>
       <r>    4.7027    1.0000 </r>
       <r>    4.7027    1.0000 </r>
       <r>    4.7041    1.0000 </r>
       <r>    5.0725    1.0000 </r>
       <r>    5.9224    1.0302 </r>
       <r>    5.9224    1.0302 </r>
       <r>    6.5753   -0.0135 </r>
       <r>    9.7370   -0.0000 </r>
       <r>   10.4596   -0.0000 </r>
       <r>   10.4596   -0.0000 </r>
       <r>   11.4771   -0.0000 </r>
       <r>   22.5435    0.0000 </r>
       <r>   23.5329    0.0000 </r>
      </set>
      <set comment="kpoint 35">
       <r>    1.7240    1.0000 </r>
       <r>    1.8385    1.0000 </r>
       <r>    1.8385    1.0000 </r>
       <r>    1.8385    1.0000 </r>
       <r>    3.5176    1.0000 </r>
       <r>    3.5176    1.0000 </r>
       <r>    3.5176    1.0000 </r>
       <r>    3.5606    1.0000 </r>
       <r>    3.5606    1.0000 </r>
       <r>    3.5803    1.0000 </r>
       <r>    3.5803    1.0000 </r>
       <r>    3.5803    1.0000 </r>
       <r>    4.4530    1.0000 </r>
       <r>    4.4530    1.0000 </r>
       <r>    4.4530    1.0000 </r>
       <r>    4.7137    1.0000 </r>
       <r>    4.7137    1.0000 </r>
       <r>    4.7442    1.0000 </r>
       <r>    4.7442    1.0000 </r>
       <r>    4.7442    1.0000 </r>
       <r>    5.0554    1.0000 </r>
       <r>    5.8887    1.0227 </r>
       <r>    5.8887    1.0227 </r>
       <r>    5.8887    1.0227 </r>
       <r>    9.6352   -0.0000 </r>
       <r>    9.6352   -0.0000 </r>
       <r>    9.6352   -0.0000 </r>
       <r>   10.3079   -0.0000 </r>
       <r>   25.2929    0.0000 </r>
       <r>   25.2929    0.0000 </r>
      </set>
     </set>
    </set>
   </array>
  </eigenvalues>
  <separator name="orbital magnetization" >
   <v name="MAGDIPOLOUT">      0.00000000      0.00000000      0.00000000</v>
  </separator>
  <dos>
   <i name="efermi">      6.21034231 </i>
   <total>
    <array>
     <dimension dim="1">gridpoints</dimension>
     <dimension dim="2">spin</dimension>
     <field>energy</field>
     <field>total</field>
     <field>integrated</field>
     <set>
      <set comment="spin 1">
       <r>    -4.2569     0.0000     0.0000 </r>
       <r>    -4.1518     0.0000     0.0000 </r>
       <r>    -4.0466     0.0000     0.0000 </r>
       <r>    -3.9414    -0.0000    -0.0000 </r>
       <r>    -3.8363    -0.0000    -0.0000 </r>
       <r>    -3.7311    -0.0000    -0.0000 </r>
       <r>    -3.6259    -0.0000    -0.0000 </r>
       <r>    -3.5208    -0.0000    -0.0000 </r>
       <r>    -3.4156    -0.0000    -0.0000 </r>
       <r>    -3.3104    -0.0000    -0.0000 </r>
       <r>    -3.2053    -0.0000    -0.0000 </r>
       <r>    -3.1001    -0.0000    -0.0000 </r>
       <r>    -2.9949    -0.0000    -0.0000 </r>
       <r>    -2.8898    -0.0000    -0.0000 </r>
       <r>    -2.7846    -0.0000    -0.0000 </r>
       <r>    -2.6794    -0.0002    -0.0000 </r>
       <r>    -2.5743    -0.0009    -0.0001 </r>
       <r>    -2.4691    -0.0027    -0.0004 </r>
       <r>    -2.3639    -0.0022    -0.0006 </r>
       <r>    -2.2588     0.0137     0.0008 </r>
       <r>    -2.1536     0.0633     0.0075 </r>
       <r>    -2.0484     0.1403     0.0222 </r>
       <r>    -1.9433     0.1924     0.0424 </r>
       <r>    -1.8381     0.1787     0.0612 </r>
       <r>    -1.7329     0.1638     0.0785 </r>
       <r>    -1.6278     0.2595     0.1057 </r>
       <r>    -1.5226     0.4132     0.1492 </r>
       <r>    -1.4174     0.4159     0.1929 </r>
       <r>    -1.3123     0.2442     0.2186 </r>
       <r>    -1.2071     0.1642     0.2359 </r>
       <r>    -1.1020     0.3161     0.2691 </r>
       <r>    -0.9968     0.5086     0.3226 </r>
       <r>    -0.8916     0.5620     0.3817 </r>
       <r>    -0.7865     0.4888     0.4331 </r>
       <r>    -0.6813     0.3709     0.4721 </r>
       <r>    -0.5761     0.3917     0.5133 </r>
       <r>    -0.4710     0.6078     0.5773 </r>
       <r>    -0.3658     0.6509     0.6457 </r>
       <r>    -0.2606     0.3753     0.6852 </r>
       <r>    -0.1555     0.2904     0.7157 </r>
       <r>    -0.0503     0.5997     0.7788 </r>
       <r>     0.0549     0.8400     0.8671 </r>
       <r>     0.1600     0.7726     0.9484 </r>
       <r>     0.2652     0.6941     1.0214 </r>
       <r>     0.3704     0.8425     1.1100 </r>
       <r>     0.4755     0.8811     1.2026 </r>
       <r>     0.5807     0.5476     1.2602 </r>
       <r>     0.6859     0.3223     1.2941 </r>
       <r>     0.7910     0.6162     1.3589 </r>
       <r>     0.8962     1.1782     1.4828 </r>
       <r>     1.0014     1.3966     1.6297 </r>
       <r>     1.1065     1.2069     1.7566 </r>
       <r>     1.2117     1.0771     1.8699 </r>
       <r>     1.3169     1.0381     1.9791 </r>
       <r>     1.4220     0.9936     2.0835 </r>
       <r>     1.5272     1.2694     2.2170 </r>
       <r>     1.6324     1.9908     2.4264 </r>
       <r>     1.7375     2.5641     2.6961 </r>
       <r>     1.8427     2.6666     2.9765 </r>
       <r>     1.9479     3.0607     3.2984 </r>
       <r>     2.0530     4.1169     3.7313 </r>
       <r>     2.1582     5.1774     4.2758 </r>
       <r>     2.2634     5.6480     4.8698 </r>
       <r>     2.3685     5.8564     5.4857 </r>
       <r>     2.4737     7.0874     6.2311 </r>
       <r>     2.5789     9.1064     7.1887 </r>
       <r>     2.6840    10.3380     8.2760 </r>
       <r>     2.7892    10.4673     9.3768 </r>
       <r>     2.8944    10.0307    10.4316 </r>
       <r>     2.9995     9.7724    11.4594 </r>
       <r>     3.1047    10.1157    12.5232 </r>
       <r>     3.2099    11.4321    13.7255 </r>
       <r>     3.3150    13.5663    15.1522 </r>
       <r>     3.4202    15.2085    16.7516 </r>
       <r>     3.5254    16.8733    18.5261 </r>
       <r>     3.6305    19.4274    20.5692 </r>
       <r>     3.7357    20.0509    22.6779 </r>
       <r>     3.8409    17.0033    24.4661 </r>
       <r>     3.9460    13.5667    25.8928 </r>
       <r>     4.0512    13.4645    27.3088 </r>
       <r>     4.1564    15.8415    28.9748 </r>
       <r>     4.2615    17.0932    30.7724 </r>
       <r>     4.3667    16.2223    32.4785 </r>
       <r>     4.4719    15.7319    34.1329 </r>
       <r>     4.5770    17.9650    36.0223 </r>
       <r>     4.6822    21.4040    38.2732 </r>
       <r>     4.7874    20.2366    40.4014 </r>
       <r>     4.8925    12.6421    41.7310 </r>
       <r>     4.9977     4.8736    42.2435 </r>
       <r>     5.1029     1.2607    42.3761 </r>
       <r>     5.2080     0.6960    42.4493 </r>
       <r>     5.3132     1.3813    42.5945 </r>
       <r>     5.4184     2.0040    42.8053 </r>
       <r>     5.5235     1.7892    42.9935 </r>
       <r>     5.6287     1.0513    43.1040 </r>
       <r>     5.7338     0.5360    43.1604 </r>
       <r>     5.8390     1.1804    43.2845 </r>
       <r>     5.9442     2.4228    43.5393 </r>
       <r>     6.0493     2.3644    43.7880 </r>
       <r>     6.1545     1.4563    43.9411 </r>
       <r>     6.2597     0.9972    44.0460 </r>
       <r>     6.3648     0.7826    44.1283 </r>
       <r>     6.4700     0.6649    44.1982 </r>
       <r>     6.5752     0.7336    44.2754 </r>
       <r>     6.6803     1.0811    44.3891 </r>
       <r>     6.7855     1.5238    44.5493 </r>
       <r>     6.8907     1.6142    44.7191 </r>
       <r>     6.9958     1.6365    44.8912 </r>
       <r>     7.1010     1.7044    45.0704 </r>
       <r>     7.2062     1.3175    45.2090 </r>
       <r>     7.3113     0.8015    45.2933 </r>
       <r>     7.4165     0.6997    45.3669 </r>
       <r>     7.5217     0.8468    45.4559 </r>
       <r>     7.6268     0.7515    45.5350 </r>
       <r>     7.7320     0.5035    45.5879 </r>
       <r>     7.8372     0.8958    45.6821 </r>
       <r>     7.9423     1.6711    45.8579 </r>
       <r>     8.0475     1.6750    46.0340 </r>
       <r>     8.1527     1.1430    46.1542 </r>
       <r>     8.2578     1.0205    46.2615 </r>
       <r>     8.3630     1.1975    46.3875 </r>
       <r>     8.4682     1.2832    46.5224 </r>
       <r>     8.5733     1.1172    46.6399 </r>
       <r>     8.6785     0.6465    46.7079 </r>
       <r>     8.7837     0.2827    46.7376 </r>
       <r>     8.8888     0.2989    46.7691 </r>
       <r>     8.9940     0.4901    46.8206 </r>
       <r>     9.0992     0.7969    46.9044 </r>
       <r>     9.2043     1.1255    47.0228 </r>
       <r>     9.3095     1.0251    47.1306 </r>
       <r>     9.4147     0.7874    47.2134 </r>
       <r>     9.5198     1.0888    47.3279 </r>
       <r>     9.6250     1.4011    47.4753 </r>
       <r>     9.7302     1.2007    47.6015 </r>
       <r>     9.8353     0.8876    47.6949 </r>
       <r>     9.9405     0.7335    47.7720 </r>
       <r>    10.0457     0.9072    47.8674 </r>
       <r>    10.1508     1.4018    48.0149 </r>
       <r>    10.2560     1.6717    48.1907 </r>
       <r>    10.3612     1.5841    48.3573 </r>
       <r>    10.4663     1.2920    48.4931 </r>
       <r>    10.5715     0.7825    48.5754 </r>
       <r>    10.6767     0.5471    48.6330 </r>
       <r>    10.7818     1.0522    48.7436 </r>
       <r>    10.8870     1.7366    48.9262 </r>
       <r>    10.9922     1.7423    49.1095 </r>
       <r>    11.0973     1.1689    49.2324 </r>
       <r>    11.2025     0.5850    49.2939 </r>
       <r>    11.3077     0.3703    49.3329 </r>
       <r>    11.4128     0.8758    49.4250 </r>
       <r>    11.5180     1.9026    49.6251 </r>
       <r>    11.6232     2.1797    49.8543 </r>
       <r>    11.7283     1.3334    49.9945 </r>
       <r>    11.8335     0.7772    50.0762 </r>
       <r>    11.9387     0.9167    50.1727 </r>
       <r>    12.0438     0.9402    50.2715 </r>
       <r>    12.1490     0.7388    50.3492 </r>
       <r>    12.2542     0.6482    50.4174 </r>
       <r>    12.3593     0.5712    50.4775 </r>
       <r>    12.4645     0.4674    50.5266 </r>
       <r>    12.5696     0.6482    50.5948 </r>
       <r>    12.6748     1.2304    50.7242 </r>
       <r>    12.7800     1.7976    50.9132 </r>
       <r>    12.8851     1.9930    51.1228 </r>
       <r>    12.9903     1.8589    51.3183 </r>
       <r>    13.0955     1.5111    51.4772 </r>
       <r>    13.2006     1.3437    51.6185 </r>
       <r>    13.3058     1.3706    51.7627 </r>
       <r>    13.4110     1.1678    51.8855 </r>
       <r>    13.5161     0.8781    51.9779 </r>
       <r>    13.6213     0.8514    52.0674 </r>
       <r>    13.7265     1.0270    52.1754 </r>
       <r>    13.8316     1.2028    52.3019 </r>
       <r>    13.9368     1.2665    52.4351 </r>
       <r>    14.0420     1.3980    52.5821 </r>
       <r>    14.1471     1.6773    52.7585 </r>
       <r>    14.2523     1.7535    52.9429 </r>
       <r>    14.3575     1.7688    53.1289 </r>
       <r>    14.4626     2.0435    53.3438 </r>
       <r>    14.5678     2.1933    53.5745 </r>
       <r>    14.6730     1.8236    53.7663 </r>
       <r>    14.7781     1.3095    53.9040 </r>
       <r>    14.8833     1.4047    54.0517 </r>
       <r>    14.9885     1.9345    54.2552 </r>
       <r>    15.0936     1.8266    54.4472 </r>
       <r>    15.1988     1.0421    54.5568 </r>
       <r>    15.3040     0.7650    54.6373 </r>
       <r>    15.4091     1.1691    54.7602 </r>
       <r>    15.5143     1.4103    54.9086 </r>
       <r>    15.6195     1.4393    55.0599 </r>
       <r>    15.7246     1.5502    55.2229 </r>
       <r>    15.8298     1.4417    55.3746 </r>
       <r>    15.9350     1.0378    55.4837 </r>
       <r>    16.0401     0.8876    55.5770 </r>
       <r>    16.1453     1.3234    55.7162 </r>
       <r>    16.2505     2.2508    55.9529 </r>
       <r>    16.3556     2.7034    56.2372 </r>
       <r>    16.4608     1.8970    56.4367 </r>
       <r>    16.5660     1.2884    56.5722 </r>
       <r>    16.6711     2.0534    56.7882 </r>
       <r>    16.7763     2.5665    57.0581 </r>
       <r>    16.8815     1.7425    57.2413 </r>
       <r>    16.9866     0.8163    57.3272 </r>
       <r>    17.0918     0.6623    57.3968 </r>
       <r>    17.1970     0.9244    57.4941 </r>
       <r>    17.3021     1.1899    57.6192 </r>
       <r>    17.4073     1.6704    57.7949 </r>
       <r>    17.5125     2.1899    58.0252 </r>
       <r>    17.6176     1.9268    58.2278 </r>
       <r>    17.7228     1.2129    58.3554 </r>
       <r>    17.8280     1.1771    58.4792 </r>
       <r>    17.9331     1.5342    58.6405 </r>
       <r>    18.0383     1.2257    58.7694 </r>
       <r>    18.1435     0.6215    58.8348 </r>
       <r>    18.2486     0.5730    58.8950 </r>
       <r>    18.3538     0.8045    58.9796 </r>
       <r>    18.4590     0.7503    59.0585 </r>
       <r>    18.5641     0.5573    59.1171 </r>
       <r>    18.6693     0.4061    59.1598 </r>
       <r>    18.7745     0.2777    59.1891 </r>
       <r>    18.8796     0.3695    59.2279 </r>
       <r>    18.9848     0.5163    59.2822 </r>
       <r>    19.0900     0.3380    59.3178 </r>
       <r>    19.1951     0.0611    59.3242 </r>
       <r>    19.3003    -0.0279    59.3212 </r>
       <r>    19.4054    -0.0208    59.3191 </r>
       <r>    19.5106    -0.0196    59.3170 </r>
       <r>    19.6158     0.0081    59.3178 </r>
       <r>    19.7209     0.1412    59.3327 </r>
       <r>    19.8261     0.3703    59.3716 </r>
       <r>    19.9313     0.5802    59.4327 </r>
       <r>    20.0364     0.5525    59.4908 </r>
       <r>    20.1416     0.2505    59.5171 </r>
       <r>    20.2468     0.0625    59.5237 </r>
       <r>    20.3519     0.1639    59.5409 </r>
       <r>    20.4571     0.2501    59.5672 </r>
       <r>    20.5623     0.1299    59.5809 </r>
       <r>    20.6674     0.0206    59.5830 </r>
       <r>    20.7726     0.1301    59.5967 </r>
       <r>    20.8778     0.3460    59.6331 </r>
       <r>    20.9829     0.3771    59.6728 </r>
       <r>    21.0881     0.1900    59.6927 </r>
       <r>    21.1933     0.0249    59.6954 </r>
       <r>    21.2984    -0.0208    59.6932 </r>
       <r>    21.4036    -0.0281    59.6902 </r>
       <r>    21.5088    -0.0185    59.6883 </r>
       <r>    21.6139     0.1388    59.7029 </r>
       <r>    21.7191     0.4443    59.7496 </r>
       <r>    21.8243     0.5091    59.8031 </r>
       <r>    21.9294     0.2297    59.8273 </r>
       <r>    22.0346     0.0069    59.8280 </r>
       <r>    22.1398    -0.0296    59.8249 </r>
       <r>    22.2449    -0.0209    59.8227 </r>
       <r>    22.3501     0.0030    59.8230 </r>
       <r>    22.4553     0.1159    59.8352 </r>
       <r>    22.5604     0.2551    59.8620 </r>
       <r>    22.6656     0.2212    59.8853 </r>
       <r>    22.7708     0.0686    59.8925 </r>
       <r>    22.8759    -0.0087    59.8916 </r>
       <r>    22.9811    -0.0103    59.8905 </r>
       <r>    23.0863    -0.0043    59.8901 </r>
       <r>    23.1914    -0.0095    59.8891 </r>
       <r>    23.2966    -0.0106    59.8879 </r>
       <r>    23.4018     0.0575    59.8940 </r>
       <r>    23.5069     0.2095    59.9160 </r>
       <r>    23.6121     0.2608    59.9435 </r>
       <r>    23.7173     0.1297    59.9571 </r>
       <r>    23.8224     0.0093    59.9581 </r>
       <r>    23.9276    -0.0133    59.9567 </r>
       <r>    24.0328    -0.0047    59.9562 </r>
       <r>    24.1379    -0.0007    59.9561 </r>
       <r>    24.2431    -0.0000    59.9561 </r>
       <r>    24.3483    -0.0000    59.9561 </r>
       <r>    24.4534    -0.0000    59.9561 </r>
       <r>    24.5586    -0.0000    59.9561 </r>
       <r>    24.6638    -0.0000    59.9561 </r>
       <r>    24.7689    -0.0003    59.9561 </r>
       <r>    24.8741    -0.0022    59.9558 </r>
       <r>    24.9793    -0.0078    59.9550 </r>
       <r>    25.0844    -0.0019    59.9548 </r>
       <r>    25.1896     0.0626    59.9614 </r>
       <r>    25.2948     0.1615    59.9784 </r>
       <r>    25.3999     0.1590    59.9951 </r>
       <r>    25.5051     0.0591    60.0013 </r>
       <r>    25.6103    -0.0028    60.0010 </r>
       <r>    25.7154    -0.0076    60.0002 </r>
       <r>    25.8206    -0.0020    60.0000 </r>
       <r>    25.9258    -0.0002    60.0000 </r>
       <r>    26.0309    -0.0000    60.0000 </r>
       <r>    26.1361    -0.0000    60.0000 </r>
       <r>    26.2412    -0.0000    60.0000 </r>
       <r>    26.3464    -0.0000    60.0000 </r>
       <r>    26.4516    -0.0000    60.0000 </r>
       <r>    26.5567    -0.0000    60.0000 </r>
       <r>    26.6619     0.0000    60.0000 </r>
       <r>    26.7671     0.0000    60.0000 </r>
       <r>    26.8722     0.0000    60.0000 </r>
       <r>    26.9774     0.0000    60.0000 </r>
       <r>    27.0826     0.0000    60.0000 </r>
       <r>    27.1877     0.0000    60.0000 </r>
       <r>    27.2929     0.0000    60.0000 </r>
      </set>
     </set>
    </array>
   </total>
  </dos>
 </calculation>
 <structure name="finalpos" >
  <crystal>
   <varray name="basis" >
    <v>       3.75233822       0.00000000       0.00000000 </v>
    <v>       0.00000000       3.75233822       0.00000000 </v>
    <v>       0.00000000       0.00000000       3.75233822 </v>
   </varray>
   <i name="volume">     52.83308016 </i>
   <varray name="rec_basis" >
    <v>       0.26650050       0.00000000       0.00000000 </v>
    <v>       0.00000000       0.26650050       0.00000000 </v>
    <v>       0.00000000       0.00000000       0.26650050 </v>
   </varray>
  </crystal>
  <varray name="positions" >
   <v>       0.00000000       0.00000000       0.00000000 </v>
   <v>       0.50000000       0.50000000       0.00000000 </v>
   <v>       0.50000000       0.00000000       0.50000000 </v>
   <v>       0.00000000       0.50000000       0.50000000 </v>
  </varray>
 </structure>
</modeling>
