unknown system                          
   1.00000000000000     
     3.635000    0.000000    0.000000
     0.000000    3.635000    0.000000
     0.000000    0.000000    3.635000
   Cu
     4
Direct
  0.000000  0.000000  0.000000
  0.500000  0.500000  0.000000
  0.500000  0.000000  0.500000
  0.000000  0.500000  0.500000
 
   32   32   32
  845.10      796.48      666.02      491.95      317.57      175.89      82.666      36.197      20.759      15.227    
  11.620      9.3796      8.0832      7.4363      7.0361      6.6589      6.4765      6.6589      7.0361      7.4363    
  8.0832      9.3796      11.620      15.227      20.759      36.197      82.666      175.89      317.57      491.95    
  666.02      796.48      796.48      750.46      626.98      462.27      297.51      164.16      77.110      34.350    
  20.367      15.029      11.546      9.3962      8.1600      7.5480      7.1754      6.8271      6.6589      6.8271    
  7.1754      7.5480      8.1600      9.3962      11.546      15.029      20.367      34.350      77.110      164.16    
  297.51      462.27      626.98      750.46      666.02      626.98      522.25      382.81      244.10      133.29    
  62.827      29.803      19.349      14.485      11.348      9.4369      8.3436      7.7975      7.4692      7.1754    
  7.0361      7.1754      7.4692      7.7975      8.3436      9.4369      11.348      14.485      19.349      29.803    
  62.827      133.29      244.10      382.81      522.25      626.98      491.95      462.27      382.81      277.60    
  174.33      94.069      45.620      24.789      17.912      13.730      11.100      9.5131      8.5919      8.1020    
  7.7975      7.5480      7.4363      7.5480      7.7975      8.1020      8.5919      9.5131      11.100      13.730    
  17.912      24.789      45.620      94.069      174.33      277.60      382.81      462.27      317.57      297.51    
  244.10      174.33      107.70      58.534      31.444      21.023      16.251      12.941      10.911      9.7008    
  8.9896      8.5919      8.3436      8.1600      8.0832      8.1600      8.3436      8.5919      8.9896      9.7008    
  10.911      12.941      16.251      21.023      31.444      58.534      107.70      174.33      244.10      297.51    
  175.89      164.16      133.29      94.069      58.534      34.623      23.151      18.219      14.652      12.292    
  10.900      10.116      9.7008      9.5131      9.4369      9.3962      9.3796      9.3962      9.4369      9.5131    
  9.7008      10.116      10.900      12.292      14.652      18.219      23.151      34.623      58.534      94.069    
  133.29      164.16      82.666      77.110      62.827      45.620      31.444      23.151      18.952      15.708    
  13.362      11.927      11.185      10.900      10.911      11.100      11.348      11.546      11.620      11.546    
  11.348      11.100      10.911      10.900      11.185      11.927      13.362      15.708      18.952      23.151    
  31.444      45.620      62.827      77.110      36.197      34.350      29.803      24.789      21.023      18.219    
  15.708      13.773      12.543      11.968      11.927      12.292      12.941      13.730      14.485      15.029    
  15.227      15.029      14.485      13.730      12.941      12.292      11.927      11.968      12.543      13.773    
  15.708      18.219      21.023      24.789      29.803      34.350      20.759      20.367      19.349      17.912    
  16.251      14.652      13.362      12.543      12.264      12.543      13.362      14.652      16.251      17.912    
  19.349      20.367      20.759      20.367      19.349      17.912      16.251      14.652      13.362      12.543    
  12.264      12.543      13.362      14.652      16.251      17.912      19.349      20.367      15.227      15.029    
  14.485      13.730      12.941      12.292      11.927      11.968      12.543      13.773      15.708      18.219    
  21.023      24.789      29.803      34.350      36.197      34.350      29.803      24.789      21.023      18.219    
  15.708      13.773      12.543      11.968      11.927      12.292      12.941      13.730      14.485      15.029    
  11.620      11.546      11.348      11.100      10.911      10.900      11.185      11.927      13.362      15.708    
  18.952      23.151      31.444      45.620      62.827      77.110      82.666      77.110      62.827      45.620    
  31.444      23.151      18.952      15.708      13.362      11.927      11.185      10.900      10.911      11.100    
  11.348      11.546      9.3796      9.3962      9.4369      9.5131      9.7008      10.116      10.900      12.292    
  14.652      18.219      23.151      34.623      58.534      94.069      133.29      164.16      175.89      164.16    
  133.29      94.069      58.534      34.623      23.151      18.219      14.652      12.292      10.900      10.116    
  9.7008      9.5131      9.4369      9.3962      8.0832      8.1600      8.3436      8.5919      8.9896      9.7008    
  10.911      12.941      16.251      21.023      31.444      58.534      107.70      174.33      244.10      297.51    
  317.57      297.51      244.10      174.33      107.70      58.534      31.444      21.023      16.251      12.941    
  10.911      9.7008      8.9896      8.5919      8.3436      8.1600      7.4363      7.5480      7.7975      8.1020    
  8.5919      9.5131      11.100      13.730      17.912      24.789      45.620      94.069      174.33      277.60    
  382.81      462.27      491.95      462.27      382.81      277.60      174.33      94.069      45.620      24.789    
  17.912      13.730      11.100      9.5131      8.5919      8.1020      7.7975      7.5480      7.0361      7.1754    
  7.4692      7.7975      8.3436      9.4369      11.348      14.485      19.349      29.803      62.827      133.29    
  244.10      382.81      522.25      626.98      666.02      626.98      522.25      382.81      244.10      133.29    
  62.827      29.803      19.349      14.485      11.348      9.4369      8.3436      7.7975      7.4692      7.1754    
  6.6589      6.8271      7.1754      7.5480      8.1600      9.3962      11.546      15.029      20.367      34.350    
  77.110      164.16      297.51      462.27      626.98      750.46      796.48      750.46      626.98      462.27    
  297.51      164.16      77.110      34.350      20.367      15.029      11.546      9.3962      8.1600      7.5480    
  7.1754      6.8271      6.4765      6.6589      7.0361      7.4363      8.0832      9.3796      11.620      15.227    
  20.759      36.197      82.666      175.89      317.57      491.95      666.02      796.48      845.10      796.48    
  666.02      491.95      317.57      175.89      82.666      36.197      20.759      15.227      11.620      9.3796    
  8.0832      7.4363      7.0361      6.6589      6.6589      6.8271      7.1754      7.5480      8.1600      9.3962    
  11.546      15.029      20.367      34.350      77.110      164.16      297.51      462.27      626.98      750.46    
  796.48      750.46      626.98      462.27      297.51      164.16      77.110      34.350      20.367      15.029    
  11.546      9.3962      8.1600      7.5480      7.1754      6.8271      7.0361      7.1754      7.4692      7.7975    
  8.3436      9.4369      11.348      14.485      19.349      29.803      62.827      133.29      244.10      382.81    
  522.25      626.98      666.02      626.98      522.25      382.81      244.10      133.29      62.827      29.803    
  19.349      14.485      11.348      9.4369      8.3436      7.7975      7.4692      7.1754      7.4363      7.5480    
  7.7975      8.1020      8.5919      9.5131      11.100      13.730      17.912      24.789      45.620      94.069    
  174.33      277.60      382.81      462.27      491.95      462.27      382.81      277.60      174.33      94.069    
  45.620      24.789      17.912      13.730      11.100      9.5131      8.5919      8.1020      7.7975      7.5480    
  8.0832      8.1600      8.3436      8.5919      8.9896      9.7008      10.911      12.941      16.251      21.023    
  31.444      58.534      107.70      174.33      244.10      297.51      317.57      297.51      244.10      174.33    
  107.70      58.534      31.444      21.023      16.251      12.941      10.911      9.7008      8.9896      8.5919    
  8.3436      8.1600      9.3796      9.3962      9.4369      9.5131      9.7008      10.116      10.900      12.292    
  14.652      18.219      23.151      34.623      58.534      94.069      133.29      164.16      175.89      164.16    
  133.29      94.069      58.534      34.623      23.151      18.219      14.652      12.292      10.900      10.116    
  9.7008      9.5131      9.4369      9.3962      11.620      11.546      11.348      11.100      10.911      10.900    
  11.185      11.927      13.362      15.708      18.952      23.151      31.444      45.620      62.827      77.110    
  82.666      77.110      62.827      45.620      31.444      23.151      18.952      15.708      13.362      11.927    
  11.185      10.900      10.911      11.100      11.348      11.546      15.227      15.029      14.485      13.730    
  12.941      12.292      11.927      11.968      12.543      13.773      15.708      18.219      21.023      24.789    
  29.803      34.350      36.197      34.350      29.803      24.789      21.023      18.219      15.708      13.773    
  12.543      11.968      11.927      12.292      12.941      13.730      14.485      15.029      20.759      20.367    
  19.349      17.912      16.251      14.652      13.362      12.543      12.264      12.543      13.362      14.652    
  16.251      17.912      19.349      20.367      20.759      20.367      19.349      17.912      16.251      14.652    
  13.362      12.543      12.264      12.543      13.362      14.652      16.251      17.912      19.349      20.367    
  36.197      34.350      29.803      24.789      21.023      18.219      15.708      13.773      12.543      11.968    
  11.927      12.292      12.941      13.730      14.485      15.029      15.227      15.029      14.485      13.730    
  12.941      12.292      11.927      11.968      12.543      13.773      15.708      18.219      21.023      24.789    
  29.803      34.350      82.666      77.110      62.827      45.620      31.444      23.151      18.952      15.708    
  13.362      11.927      11.185      10.900      10.911      11.100      11.348      11.546      11.620      11.546    
  11.348      11.100      10.911      10.900      11.185      11.927      13.362      15.708      18.952      23.151    
  31.444      45.620      62.827      77.110      175.89      164.16      133.29      94.069      58.534      34.623    
  23.151      18.219      14.652      12.292      10.900      10.116      9.7008      9.5131      9.4369      9.3962    
  9.3796      9.3962      9.4369      9.5131      9.7008      10.116      10.900      12.292      14.652      18.219    
  23.151      34.623      58.534      94.069      133.29      164.16      317.57      297.51      244.10      174.33    
  107.70      58.534      31.444      21.023      16.251      12.941      10.911      9.7008      8.9896      8.5919    
  8.3436      8.1600      8.0832      8.1600      8.3436      8.5919      8.9896      9.7008      10.911      12.941    
  16.251      21.023      31.444      58.534      107.70      174.33      244.10      297.51      491.95      462.27    
  382.81      277.60      174.33      94.069      45.620      24.789      17.912      13.730      11.100      9.5131    
  8.5919      8.1020      7.7975      7.5480      7.4363      7.5480      7.7975      8.1020      8.5919      9.5131    
  11.100      13.730      17.912      24.789      45.620      94.069      174.33      277.60      382.81      462.27    
  666.02      626.98      522.25      382.81      244.10      133.29      62.827      29.803      19.349      14.485    
  11.348      9.4369      8.3436      7.7975      7.4692      7.1754      7.0361      7.1754      7.4692      7.7975    
  8.3436      9.4369      11.348      14.485      19.349      29.803      62.827      133.29      244.10      382.81    
  522.25      626.98      796.48      750.46      626.98      462.27      297.51      164.16      77.110      34.350    
  20.367      15.029      11.546      9.3962      8.1600      7.5480      7.1754      6.8271      6.6589      6.8271    
  7.1754      7.5480      8.1600      9.3962      11.546      15.029      20.367      34.350      77.110      164.16    
  297.51      462.27      626.98      750.46      796.48      750.46      626.98      462.27      297.51      164.16    
  77.110      34.350      20.367      15.029      11.546      9.3962      8.1600      7.5480      7.1754      6.8271    
  6.6589      6.8271      7.1754      7.5480      8.1600      9.3962      11.546      15.029      20.367      34.350    
  77.110      164.16      297.51      462.27      626.98      750.46      750.46      706.90      590.03      434.21    
  278.61      153.17      71.964      32.674      20.001      14.836      11.473      9.4097      8.2303      7.6508    
  7.3036      6.9822      6.8271      6.9822      7.3036      7.6508      8.2303      9.4097      11.473      14.836    
  20.001      32.674      71.964      153.17      278.61      434.21      590.03      706.90      626.98      590.03    
  490.96      359.14      228.31      124.29      58.771      28.564      19.030      14.306      11.278      9.4438    
  8.3996      7.8813      7.5747      7.3036      7.1754      7.3036      7.5747      7.8813      8.3996      9.4438    
  11.278      14.306      19.030      28.564      58.771      124.29      228.31      359.14      490.96      590.03    
  462.27      434.21      359.14      259.88      162.75      87.735      42.965      24.049      17.624      13.572    
  11.036      9.5129      8.6323      8.1666      7.8813      7.6508      7.5480      7.6508      7.8813      8.1666    
  8.6323      9.5129      11.036      13.572      17.624      24.049      42.965      87.735      162.75      259.88    
  359.14      434.21      297.51      278.61      228.31      162.75      100.44      54.837      30.068      20.622    
  16.007      12.808      10.853      9.6909      9.0105      8.6323      8.3996      8.2303      8.1600      8.2303    
  8.3996      8.6323      9.0105      9.6909      10.853      12.808      16.007      20.622      30.068      54.837    
  100.44      162.75      228.31      278.61      164.16      153.17      124.29      87.735      54.837      32.954    
  22.587      17.910      14.456      12.181      10.842      10.089      9.6909      9.5129      9.4438      9.4097    
  9.3962      9.4097      9.4438      9.5129      9.6909      10.089      10.842      12.181      14.456      17.910    
  22.587      32.954      54.837      87.735      124.29      153.17      77.110      71.964      58.771      42.965    
  30.068      22.587      18.621      15.474      13.212      11.830      11.116      10.842      10.853      11.036    
  11.278      11.473      11.546      11.473      11.278      11.036      10.853      10.842      11.116      11.830    
  13.212      15.474      18.621      22.587      30.068      42.965      58.771      71.964      34.350      32.674    
  28.564      24.049      20.622      17.910      15.474      13.607      12.423      11.871      11.830      12.181    
  12.808      13.572      14.306      14.836      15.029      14.836      14.306      13.572      12.808      12.181    
  11.830      11.871      12.423      13.607      15.474      17.910      20.622      24.049      28.564      32.674    
  20.367      20.001      19.030      17.624      16.007      14.456      13.212      12.423      12.155      12.423    
  13.212      14.456      16.007      17.624      19.030      20.001      20.367      20.001      19.030      17.624    
  16.007      14.456      13.212      12.423      12.155      12.423      13.212      14.456      16.007      17.624    
  19.030      20.001      15.029      14.836      14.306      13.572      12.808      12.181      11.830      11.871    
  12.423      13.607      15.474      17.910      20.622      24.049      28.564      32.674      34.350      32.674    
  28.564      24.049      20.622      17.910      15.474      13.607      12.423      11.871      11.830      12.181    
  12.808      13.572      14.306      14.836      11.546      11.473      11.278      11.036      10.853      10.842    
  11.116      11.830      13.212      15.474      18.621      22.587      30.068      42.965      58.771      71.964    
  77.110      71.964      58.771      42.965      30.068      22.587      18.621      15.474      13.212      11.830    
  11.116      10.842      10.853      11.036      11.278      11.473      9.3962      9.4097      9.4438      9.5129    
  9.6909      10.089      10.842      12.181      14.456      17.910      22.587      32.954      54.837      87.735    
  124.29      153.17      164.16      153.17      124.29      87.735      54.837      32.954      22.587      17.910    
  14.456      12.181      10.842      10.089      9.6909      9.5129      9.4438      9.4097      8.1600      8.2303    
  8.3996      8.6323      9.0105      9.6909      10.853      12.808      16.007      20.622      30.068      54.837    
  100.44      162.75      228.31      278.61      297.51      278.61      228.31      162.75      100.44      54.837    
  30.068      20.622      16.007      12.808      10.853      9.6909      9.0105      8.6323      8.3996      8.2303    
  7.5480      7.6508      7.8813      8.1666      8.6323      9.5129      11.036      13.572      17.624      24.049    
  42.965      87.735      162.75      259.88      359.14      434.21      462.27      434.21      359.14      259.88    
  162.75      87.735      42.965      24.049      17.624      13.572      11.036      9.5129      8.6323      8.1666    
  7.8813      7.6508      7.1754      7.3036      7.5747      7.8813      8.3996      9.4438      11.278      14.306    
  19.030      28.564      58.771      124.29      228.31      359.14      490.96      590.03      626.98      590.03    
  490.96      359.14      228.31      124.29      58.771      28.564      19.030      14.306      11.278      9.4438    
  8.3996      7.8813      7.5747      7.3036      6.8271      6.9822      7.3036      7.6508      8.2303      9.4097    
  11.473      14.836      20.001      32.674      71.964      153.17      278.61      434.21      590.03      706.90    
  750.46      706.90      590.03      434.21      278.61      153.17      71.964      32.674      20.001      14.836    
  11.473      9.4097      8.2303      7.6508      7.3036      6.9822      6.6589      6.8271      7.1754      7.5480    
  8.1600      9.3962      11.546      15.029      20.367      34.350      77.110      164.16      297.51      462.27    
  626.98      750.46      796.48      750.46      626.98      462.27      297.51      164.16      77.110      34.350    
  20.367      15.029      11.546      9.3962      8.1600      7.5480      7.1754      6.8271      6.8271      6.9822    
  7.3036      7.6508      8.2303      9.4097      11.473      14.836      20.001      32.674      71.964      153.17    
  278.61      434.21      590.03      706.90      750.46      706.90      590.03      434.21      278.61      153.17    
  71.964      32.674      20.001      14.836      11.473      9.4097      8.2303      7.6508      7.3036      6.9822    
  7.1754      7.3036      7.5747      7.8813      8.3996      9.4438      11.278      14.306      19.030      28.564    
  58.771      124.29      228.31      359.14      490.96      590.03      626.98      590.03      490.96      359.14    
  228.31      124.29      58.771      28.564      19.030      14.306      11.278      9.4438      8.3996      7.8813    
  7.5747      7.3036      7.5480      7.6508      7.8813      8.1666      8.6323      9.5129      11.036      13.572    
  17.624      24.049      42.965      87.735      162.75      259.88      359.14      434.21      462.27      434.21    
  359.14      259.88      162.75      87.735      42.965      24.049      17.624      13.572      11.036      9.5129    
  8.6323      8.1666      7.8813      7.6508      8.1600      8.2303      8.3996      8.6323      9.0105      9.6909    
  10.853      12.808      16.007      20.622      30.068      54.837      100.44      162.75      228.31      278.61    
  297.51      278.61      228.31      162.75      100.44      54.837      30.068      20.622      16.007      12.808    
  10.853      9.6909      9.0105      8.6323      8.3996      8.2303      9.3962      9.4097      9.4438      9.5129    
  9.6909      10.089      10.842      12.181      14.456      17.910      22.587      32.954      54.837      87.735    
  124.29      153.17      164.16      153.17      124.29      87.735      54.837      32.954      22.587      17.910    
  14.456      12.181      10.842      10.089      9.6909      9.5129      9.4438      9.4097      11.546      11.473    
  11.278      11.036      10.853      10.842      11.116      11.830      13.212      15.474      18.621      22.587    
  30.068      42.965      58.771      71.964      77.110      71.964      58.771      42.965      30.068      22.587    
  18.621      15.474      13.212      11.830      11.116      10.842      10.853      11.036      11.278      11.473    
  15.029      14.836      14.306      13.572      12.808      12.181      11.830      11.871      12.423      13.607    
  15.474      17.910      20.622      24.049      28.564      32.674      34.350      32.674      28.564      24.049    
  20.622      17.910      15.474      13.607      12.423      11.871      11.830      12.181      12.808      13.572    
  14.306      14.836      20.367      20.001      19.030      17.624      16.007      14.456      13.212      12.423    
  12.155      12.423      13.212      14.456      16.007      17.624      19.030      20.001      20.367      20.001    
  19.030      17.624      16.007      14.456      13.212      12.423      12.155      12.423      13.212      14.456    
  16.007      17.624      19.030      20.001      34.350      32.674      28.564      24.049      20.622      17.910    
  15.474      13.607      12.423      11.871      11.830      12.181      12.808      13.572      14.306      14.836    
  15.029      14.836      14.306      13.572      12.808      12.181      11.830      11.871      12.423      13.607    
  15.474      17.910      20.622      24.049      28.564      32.674      77.110      71.964      58.771      42.965    
  30.068      22.587      18.621      15.474      13.212      11.830      11.116      10.842      10.853      11.036    
  11.278      11.473      11.546      11.473      11.278      11.036      10.853      10.842      11.116      11.830    
  13.212      15.474      18.621      22.587      30.068      42.965      58.771      71.964      164.16      153.17    
  124.29      87.735      54.837      32.954      22.587      17.910      14.456      12.181      10.842      10.089    
  9.6909      9.5129      9.4438      9.4097      9.3962      9.4097      9.4438      9.5129      9.6909      10.089    
  10.842      12.181      14.456      17.910      22.587      32.954      54.837      87.735      124.29      153.17    
  297.51      278.61      228.31      162.75      100.44      54.837      30.068      20.622      16.007      12.808    
  10.853      9.6909      9.0105      8.6323      8.3996      8.2303      8.1600      8.2303      8.3996      8.6323    
  9.0105      9.6909      10.853      12.808      16.007      20.622      30.068      54.837      100.44      162.75    
  228.31      278.61      462.27      434.21      359.14      259.88      162.75      87.735      42.965      24.049    
  17.624      13.572      11.036      9.5129      8.6323      8.1666      7.8813      7.6508      7.5480      7.6508    
  7.8813      8.1666      8.6323      9.5129      11.036      13.572      17.624      24.049      42.965      87.735    
  162.75      259.88      359.14      434.21      626.98      590.03      490.96      359.14      228.31      124.29    
  58.771      28.564      19.030      14.306      11.278      9.4438      8.3996      7.8813      7.5747      7.3036    
  7.1754      7.3036      7.5747      7.8813      8.3996      9.4438      11.278      14.306      19.030      28.564    
  58.771      124.29      228.31      359.14      490.96      590.03      750.46      706.90      590.03      434.21    
  278.61      153.17      71.964      32.674      20.001      14.836      11.473      9.4097      8.2303      7.6508    
  7.3036      6.9822      6.8271      6.9822      7.3036      7.6508      8.2303      9.4097      11.473      14.836    
  20.001      32.674      71.964      153.17      278.61      434.21      590.03      706.90      666.02      626.98    
  522.25      382.81      244.10      133.29      62.827      29.803      19.349      14.485      11.348      9.4369    
  8.3436      7.7975      7.4692      7.1754      7.0361      7.1754      7.4692      7.7975      8.3436      9.4369    
  11.348      14.485      19.349      29.803      62.827      133.29      244.10      382.81      522.25      626.98    
  626.98      590.03      490.96      359.14      228.31      124.29      58.771      28.564      19.030      14.306    
  11.278      9.4438      8.3996      7.8813      7.5747      7.3036      7.1754      7.3036      7.5747      7.8813    
  8.3996      9.4438      11.278      14.306      19.030      28.564      58.771      124.29      228.31      359.14    
  490.96      590.03      522.25      490.96      407.12      295.93      186.43      100.77      48.456      25.545    
  18.132      13.816      11.095      9.4637      8.5378      8.0737      7.8028      7.5747      7.4692      7.5747    
  7.8028      8.0737      8.5378      9.4637      11.095      13.816      18.132      25.545      48.456      100.77    
  186.43      295.93      407.12      490.96      382.81      359.14      295.93      212.77      132.27      71.351    
  36.318      22.242      16.818      13.142      10.870      9.5175      8.7376      8.3230      8.0737      7.8813    
  7.7975      7.8813      8.0737      8.3230      8.7376      9.5175      10.870      13.142      16.818      22.242    
  36.318      71.351      132.27      212.77      295.93      359.14      244.10      228.31      186.43      132.27    
  81.556      45.448      26.692      19.545      15.327      12.447      10.703      9.6720      9.0711      8.7376    
  8.5378      8.3996      8.3436      8.3996      8.5378      8.7376      9.0711      9.6720      10.703      12.447    
  15.327      19.545      26.692      45.448      81.556      132.27      186.43      228.31      133.29      124.29    
  100.77      71.351      45.448      28.832      21.165      17.043      13.915      11.882      10.690      10.023    
  9.6720      9.5175      9.4637      9.4438      9.4369      9.4438      9.4637      9.5175      9.6720      10.023    
  10.690      11.882      13.915      17.043      21.165      28.832      45.448      71.351      100.77      124.29    
  62.827      58.771      48.456      36.318      26.692      21.165      17.687      14.822      12.795      11.567    
  10.933      10.690      10.703      10.870      11.095      11.278      11.348      11.278      11.095      10.870    
  10.703      10.690      10.933      11.567      12.795      14.822      17.687      21.165      26.692      36.318    
  48.456      58.771      29.803      28.564      25.545      22.242      19.545      17.043      14.822      13.145    
  12.091      11.602      11.567      11.882      12.447      13.142      13.816      14.306      14.485      14.306    
  13.816      13.142      12.447      11.882      11.567      11.602      12.091      13.145      14.822      17.043    
  19.545      22.242      25.545      28.564      19.349      19.030      18.132      16.818      15.327      13.915    
  12.795      12.091      11.853      12.091      12.795      13.915      15.327      16.818      18.132      19.030    
  19.349      19.030      18.132      16.818      15.327      13.915      12.795      12.091      11.853      12.091    
  12.795      13.915      15.327      16.818      18.132      19.030      14.485      14.306      13.816      13.142    
  12.447      11.882      11.567      11.602      12.091      13.145      14.822      17.043      19.545      22.242    
  25.545      28.564      29.803      28.564      25.545      22.242      19.545      17.043      14.822      13.145    
  12.091      11.602      11.567      11.882      12.447      13.142      13.816      14.306      11.348      11.278    
  11.095      10.870      10.703      10.690      10.933      11.567      12.795      14.822      17.687      21.165    
  26.692      36.318      48.456      58.771      62.827      58.771      48.456      36.318      26.692      21.165    
  17.687      14.822      12.795      11.567      10.933      10.690      10.703      10.870      11.095      11.278    
  9.4369      9.4438      9.4637      9.5175      9.6720      10.023      10.690      11.882      13.915      17.043    
  21.165      28.832      45.448      71.351      100.77      124.29      133.29      124.29      100.77      71.351    
  45.448      28.832      21.165      17.043      13.915      11.882      10.690      10.023      9.6720      9.5175    
  9.4637      9.4438      8.3436      8.3996      8.5378      8.7376      9.0711      9.6720      10.703      12.447    
  15.327      19.545      26.692      45.448      81.556      132.27      186.43      228.31      244.10      228.31    