unknown system                          
   1.00000000000000     
     3.635000    0.000000    0.000000
     0.000000    3.635000    0.000000
     0.000000    0.000000    3.635000
   Cu
     4
Direct
  0.000000  0.000000  0.000000
  0.500000  0.500000  0.000000
  0.500000  0.000000  0.500000
  0.000000  0.500000  0.500000
 
   32   32   32
 0.84509920253E+03 0.79647755352E+03 0.66602045786E+03 0.49194761365E+03 0.31757077487E+03
 0.17588598048E+03 0.82666458925E+02 0.36196682989E+02 0.20759195667E+02 0.15226503586E+02
 0.11620240202E+02 0.93796013457E+01 0.80831679842E+01 0.74362805230E+01 0.70360834002E+01
 0.66588681287E+01 0.64765217364E+01 0.66588681286E+01 0.70360834002E+01 0.74362805230E+01
 0.80831679842E+01 0.93796013457E+01 0.11620240202E+02 0.15226503586E+02 0.20759195667E+02
 0.36196682989E+02 0.82666458925E+02 0.17588598048E+03 0.31757077487E+03 0.49194761365E+03
 0.66602045786E+03 0.79647755352E+03 0.79647755352E+03 0.75045731794E+03 0.62697746585E+03
 0.46226874154E+03 0.29751310284E+03 0.16415566047E+03 0.77109632716E+02 0.34349553579E+02
 0.20366545572E+02 0.15028769521E+02 0.11545971547E+02 0.93961969037E+01 0.81599937238E+01
 0.75479800895E+01 0.71753663879E+01 0.68271158435E+01 0.66588681286E+01 0.68271158435E+01
 0.71753663879E+01 0.75479800895E+01 0.81599937238E+01 0.93961969037E+01 0.11545971547E+02
 0.15028769521E+02 0.20366545572E+02 0.34349553579E+02 0.77109632716E+02 0.16415566047E+03
 0.29751310284E+03 0.46226874154E+03 0.62697746585E+03 0.75045731794E+03 0.66602045786E+03
 0.62697746585E+03 0.52225254697E+03 0.38280824952E+03 0.24410005019E+03 0.13328797836E+03
 0.62827201191E+02 0.29803210533E+02 0.19348545313E+02 0.14485348372E+02 0.11347820256E+02
 0.94369185344E+01 0.83435926204E+01 0.77974911722E+01 0.74691528252E+01 0.71753663879E+01
 0.70360834002E+01 0.71753663879E+01 0.74691528252E+01 0.77974911722E+01 0.83435926204E+01
 0.94369185344E+01 0.11347820256E+02 0.14485348372E+02 0.19348545313E+02 0.29803210533E+02
 0.62827201191E+02 0.13328797836E+03 0.24410005019E+03 0.38280824952E+03 0.52225254697E+03
 0.62697746585E+03 0.49194761365E+03 0.46226874154E+03 0.38280824952E+03 0.27759550500E+03
 0.17432573605E+03 0.94069187518E+02 0.45619726667E+02 0.24789022443E+02 0.17911531211E+02
 0.13730224901E+02 0.11099624199E+02 0.95131014967E+01 0.85919029342E+01 0.81020189026E+01
 0.77974911722E+01 0.75479800895E+01 0.74362805230E+01 0.75479800895E+01 0.77974911722E+01
 0.81020189026E+01 0.85919029342E+01 0.95131014967E+01 0.11099624200E+02 0.13730224901E+02
 0.17911531211E+02 0.24789022443E+02 0.45619726667E+02 0.94069187518E+02 0.17432573605E+03
 0.27759550500E+03 0.38280824952E+03 0.46226874154E+03 0.31757077487E+03 0.29751310284E+03
 0.24410005019E+03 0.17432573605E+03 0.10770105566E+03 0.58534056152E+02 0.31444470044E+02
 0.21023317902E+02 0.16251364195E+02 0.12941116447E+02 0.10911438974E+02 0.97007969079E+01
 0.89895652214E+01 0.85919029342E+01 0.83435926204E+01 0.81599937238E+01 0.80831679842E+01
 0.81599937238E+01 0.83435926204E+01 0.85919029342E+01 0.89895652214E+01 0.97007969079E+01
 0.10911438974E+02 0.12941116447E+02 0.16251364195E+02 0.21023317902E+02 0.31444470044E+02
 0.58534056152E+02 0.10770105566E+03 0.17432573605E+03 0.24410005019E+03 0.29751310284E+03
 0.17588598048E+03 0.16415566047E+03 0.13328797836E+03 0.94069187518E+02 0.58534056152E+02
 0.34622975330E+02 0.23151158121E+02 0.18218598856E+02 0.14651977981E+02 0.12292201068E+02
 0.10900481365E+02 0.10116330626E+02 0.97007969079E+01 0.95131014967E+01 0.94369185344E+01
 0.93961969037E+01 0.93796013457E+01 0.93961969037E+01 0.94369185344E+01 0.95131014967E+01
 0.97007969079E+01 0.10116330626E+02 0.10900481365E+02 0.12292201068E+02 0.14651977981E+02
 0.18218598856E+02 0.23151158121E+02 0.34622975330E+02 0.58534056152E+02 0.94069187518E+02
 0.13328797836E+03 0.16415566047E+03 0.82666458925E+02 0.77109632716E+02 0.62827201191E+02
 0.45619726667E+02 0.31444470044E+02 0.23151158121E+02 0.18952143804E+02 0.15707727801E+02
 0.13362331540E+02 0.11927159432E+02 0.11184990707E+02 0.10900481365E+02 0.10911438974E+02
 0.11099624199E+02 0.11347820256E+02 0.11545971547E+02 0.11620240202E+02 0.11545971547E+02
 0.11347820256E+02 0.11099624199E+02 0.10911438974E+02 0.10900481365E+02 0.11184990707E+02
 0.11927159432E+02 0.13362331540E+02 0.15707727801E+02 0.18952143804E+02 0.23151158121E+02
 0.31444470044E+02 0.45619726667E+02 0.62827201191E+02 0.77109632716E+02 0.36196682989E+02
 0.34349553579E+02 0.29803210533E+02 0.24789022443E+02 0.21023317902E+02 0.18218598856E+02
 0.15707727801E+02 0.13773211919E+02 0.12542578931E+02 0.11968364708E+02 0.11927159432E+02
 0.12292201068E+02 0.12941116447E+02 0.13730224901E+02 0.14485348372E+02 0.15028769521E+02
 0.15226503586E+02 0.15028769521E+02 0.14485348372E+02 0.13730224901E+02 0.12941116447E+02
 0.12292201068E+02 0.11927159432E+02 0.11968364708E+02 0.12542578931E+02 0.13773211919E+02
 0.15707727801E+02 0.18218598856E+02 0.21023317902E+02 0.24789022443E+02 0.29803210533E+02
 0.34349553579E+02 0.20759195667E+02 0.20366545572E+02 0.19348545313E+02 0.17911531211E+02
 0.16251364195E+02 0.14651977981E+02 0.13362331540E+02 0.12542578931E+02 0.12263720916E+02
 0.12542578931E+02 0.13362331540E+02 0.14651977981E+02 0.16251364195E+02 0.17911531211E+02
 0.19348545313E+02 0.20366545572E+02 0.20759195667E+02 0.20366545572E+02 0.19348545313E+02
 0.17911531211E+02 0.16251364195E+02 0.14651977981E+02 0.13362331540E+02 0.12542578931E+02
 0.12263720916E+02 0.12542578931E+02 0.13362331540E+02 0.14651977981E+02 0.16251364195E+02
 0.17911531211E+02 0.19348545313E+02 0.20366545572E+02 0.15226503586E+02 0.15028769521E+02
 0.14485348372E+02 0.13730224901E+02 0.12941116447E+02 0.12292201068E+02 0.11927159432E+02
 0.11968364708E+02 0.12542578931E+02 0.13773211919E+02 0.15707727801E+02 0.18218598856E+02
 0.21023317902E+02 0.24789022443E+02 0.29803210533E+02 0.34349553579E+02 0.36196682989E+02
 0.34349553579E+02 0.29803210533E+02 0.24789022443E+02 0.21023317902E+02 0.18218598856E+02
 0.15707727801E+02 0.13773211919E+02 0.12542578931E+02 0.11968364708E+02 0.11927159432E+02
 0.12292201068E+02 0.12941116447E+02 0.13730224901E+02 0.14485348372E+02 0.15028769521E+02
 0.11620240202E+02 0.11545971547E+02 0.11347820256E+02 0.11099624199E+02 0.10911438974E+02
 0.10900481365E+02 0.11184990707E+02 0.11927159432E+02 0.13362331540E+02 0.15707727801E+02
 0.18952143804E+02 0.23151158121E+02 0.31444470044E+02 0.45619726667E+02 0.62827201191E+02
 0.77109632716E+02 0.82666458925E+02 0.77109632716E+02 0.62827201191E+02 0.45619726667E+02
 0.31444470044E+02 0.23151158121E+02 0.18952143804E+02 0.15707727801E+02 0.13362331540E+02
 0.11927159432E+02 0.11184990707E+02 0.10900481365E+02 0.10911438974E+02 0.11099624199E+02
 0.11347820256E+02 0.11545971547E+02 0.93796013457E+01 0.93961969037E+01 0.94369185344E+01
 0.95131014967E+01 0.97007969079E+01 0.10116330626E+02 0.10900481365E+02 0.12292201068E+02
 0.14651977981E+02 0.18218598856E+02 0.23151158121E+02 0.34622975330E+02 0.58534056152E+02
 0.94069187518E+02 0.13328797836E+03 0.16415566047E+03 0.17588598048E+03 0.16415566047E+03
 0.13328797836E+03 0.94069187518E+02 0.58534056152E+02 0.34622975330E+02 0.23151158121E+02
 0.18218598856E+02 0.14651977981E+02 0.12292201068E+02 0.10900481365E+02 0.10116330626E+02
 0.97007969079E+01 0.95131014967E+01 0.94369185344E+01 0.93961969037E+01 0.80831679842E+01
 0.81599937238E+01 0.83435926204E+01 0.85919029342E+01 0.89895652213E+01 0.97007969079E+01
 0.10911438974E+02 0.12941116447E+02 0.16251364195E+02 0.21023317902E+02 0.31444470044E+02
 0.58534056152E+02 0.10770105566E+03 0.17432573605E+03 0.24410005019E+03 0.29751310284E+03
 0.31757077487E+03 0.29751310284E+03 0.24410005019E+03 0.17432573605E+03 0.10770105566E+03
 0.58534056152E+02 0.31444470044E+02 0.21023317902E+02 0.16251364195E+02 0.12941116447E+02
 0.10911438974E+02 0.97007969079E+01 0.89895652214E+01 0.85919029342E+01 0.83435926204E+01
 0.81599937238E+01 0.74362805230E+01 0.75479800895E+01 0.77974911722E+01 0.81020189026E+01
 0.85919029342E+01 0.95131014967E+01 0.11099624199E+02 0.13730224901E+02 0.17911531211E+02
 0.24789022443E+02 0.45619726667E+02 0.94069187518E+02 0.17432573605E+03 0.27759550500E+03
 0.38280824952E+03 0.46226874154E+03 0.49194761365E+03 0.46226874154E+03 0.38280824952E+03
 0.27759550500E+03 0.17432573605E+03 0.94069187518E+02 0.45619726667E+02 0.24789022443E+02
 0.17911531211E+02 0.13730224901E+02 0.11099624199E+02 0.95131014967E+01 0.85919029342E+01
 0.81020189026E+01 0.77974911722E+01 0.75479800895E+01 0.70360834002E+01 0.71753663879E+01
 0.74691528252E+01 0.77974911722E+01 0.83435926204E+01 0.94369185344E+01 0.11347820256E+02
 0.14485348372E+02 0.19348545313E+02 0.29803210533E+02 0.62827201191E+02 0.13328797836E+03
 0.24410005019E+03 0.38280824952E+03 0.52225254697E+03 0.62697746585E+03 0.66602045786E+03
 0.62697746585E+03 0.52225254697E+03 0.38280824952E+03 0.24410005019E+03 0.13328797836E+03
 0.62827201191E+02 0.29803210533E+02 0.19348545313E+02 0.14485348372E+02 0.11347820256E+02
 0.94369185344E+01 0.83435926204E+01 0.77974911722E+01 0.74691528252E+01 0.71753663879E+01
 0.66588681287E+01 0.68271158435E+01 0.71753663879E+01 0.75479800895E+01 0.81599937238E+01
 0.93961969037E+01 0.11545971547E+02 0.15028769521E+02 0.20366545572E+02 0.34349553579E+02
 0.77109632716E+02 0.16415566047E+03 0.29751310284E+03 0.46226874154E+03 0.62697746585E+03
 0.75045731794E+03 0.79647755352E+03 0.75045731794E+03 0.62697746585E+03 0.46226874154E+03
 0.29751310284E+03 0.16415566047E+03 0.77109632716E+02 0.34349553579E+02 0.20366545572E+02
 0.15028769521E+02 0.11545971547E+02 0.93961969037E+01 0.81599937238E+01 0.75479800895E+01
 0.71753663879E+01 0.68271158435E+01 0.64765217364E+01 0.66588681286E+01 0.70360834002E+01
 0.74362805230E+01 0.80831679842E+01 0.93796013457E+01 0.11620240202E+02 0.15226503586E+02
 0.20759195667E+02 0.36196682989E+02 0.82666458925E+02 0.17588598048E+03 0.31757077487E+03
 0.49194761365E+03 0.66602045786E+03 0.79647755352E+03 0.84509920253E+03 0.79647755352E+03
 0.66602045786E+03 0.49194761365E+03 0.31757077487E+03 0.17588598048E+03 0.82666458925E+02
 0.36196682989E+02 0.20759195667E+02 0.15226503586E+02 0.11620240202E+02 0.93796013457E+01
 0.80831679842E+01 0.74362805230E+01 0.70360834002E+01 0.66588681286E+01 0.66588681286E+01
 0.68271158435E+01 0.71753663879E+01 0.75479800895E+01 0.81599937238E+01 0.93961969037E+01
 0.11545971547E+02 0.15028769521E+02 0.20366545572E+02 0.34349553579E+02 0.77109632716E+02
 0.16415566047E+03 0.29751310284E+03 0.46226874154E+03 0.62697746585E+03 0.75045731794E+03
 0.79647755352E+03 0.75045731794E+03 0.62697746585E+03 0.46226874154E+03 0.29751310284E+03
 0.16415566047E+03 0.77109632716E+02 0.34349553579E+02 0.20366545572E+02 0.15028769521E+02
 0.11545971547E+02 0.93961969037E+01 0.81599937238E+01 0.75479800895E+01 0.71753663879E+01
 0.68271158435E+01 0.70360834002E+01 0.71753663879E+01 0.74691528252E+01 0.77974911722E+01
 0.83435926204E+01 0.94369185344E+01 0.11347820256E+02 0.14485348372E+02 0.19348545313E+02
 0.29803210533E+02 0.62827201191E+02 0.13328797836E+03 0.24410005019E+03 0.38280824952E+03
 0.52225254697E+03 0.62697746585E+03 0.66602045786E+03 0.62697746585E+03 0.52225254697E+03
 0.38280824952E+03 0.24410005019E+03 0.13328797836E+03 0.62827201191E+02 0.29803210533E+02
 0.19348545313E+02 0.14485348372E+02 0.11347820256E+02 0.94369185344E+01 0.83435926204E+01
 0.77974911722E+01 0.74691528252E+01 0.71753663879E+01 0.74362805230E+01 0.75479800895E+01
 0.77974911722E+01 0.81020189026E+01 0.85919029342E+01 0.95131014967E+01 0.11099624199E+02
 0.13730224901E+02 0.17911531211E+02 0.24789022443E+02 0.45619726667E+02 0.94069187518E+02
 0.17432573605E+03 0.27759550500E+03 0.38280824952E+03 0.46226874154E+03 0.49194761365E+03
 0.46226874154E+03 0.38280824952E+03 0.27759550500E+03 0.17432573605E+03 0.94069187518E+02
 0.45619726667E+02 0.24789022443E+02 0.17911531211E+02 0.13730224901E+02 0.11099624199E+02
 0.95131014967E+01 0.85919029342E+01 0.81020189026E+01 0.77974911722E+01 0.75479800895E+01
 0.80831679842E+01 0.81599937238E+01 0.83435926204E+01 0.85919029342E+01 0.89895652214E+01
 0.97007969079E+01 0.10911438974E+02 0.12941116447E+02 0.16251364195E+02 0.21023317902E+02
 0.31444470044E+02 0.58534056152E+02 0.10770105566E+03 0.17432573605E+03 0.24410005019E+03
 0.29751310284E+03 0.31757077487E+03 0.29751310284E+03 0.24410005019E+03 0.17432573605E+03
 0.10770105566E+03 0.58534056152E+02 0.31444470044E+02 0.21023317902E+02 0.16251364195E+02
 0.12941116447E+02 0.10911438974E+02 0.97007969079E+01 0.89895652214E+01 0.85919029342E+01
 0.83435926204E+01 0.81599937238E+01 0.93796013457E+01 0.93961969037E+01 0.94369185344E+01
 0.95131014967E+01 0.97007969079E+01 0.10116330626E+02 0.10900481365E+02 0.12292201068E+02
 0.14651977981E+02 0.18218598856E+02 0.23151158121E+02 0.34622975330E+02 0.58534056152E+02
 0.94069187518E+02 0.13328797836E+03 0.16415566047E+03 0.17588598048E+03 0.16415566047E+03
 0.13328797836E+03 0.94069187518E+02 0.58534056152E+02 0.34622975330E+02 0.23151158121E+02
 0.18218598856E+02 0.14651977981E+02 0.12292201068E+02 0.10900481365E+02 0.10116330626E+02
 0.97007969079E+01 0.95131014967E+01 0.94369185344E+01 0.93961969037E+01 0.11620240202E+02
 0.11545971547E+02 0.11347820256E+02 0.11099624199E+02 0.10911438974E+02 0.10900481365E+02
 0.11184990707E+02 0.11927159432E+02 0.13362331540E+02 0.15707727801E+02 0.18952143804E+02
 0.23151158121E+02 0.31444470044E+02 0.45619726667E+02 0.62827201191E+02 0.77109632716E+02
 0.82666458925E+02 0.77109632716E+02 0.62827201191E+02 0.45619726667E+02 0.31444470044E+02
 0.23151158121E+02 0.18952143804E+02 0.15707727801E+02 0.13362331540E+02 0.11927159432E+02
 0.11184990707E+02 0.10900481365E+02 0.10911438974E+02 0.11099624199E+02 0.11347820256E+02
 0.11545971547E+02 0.15226503586E+02 0.15028769521E+02 0.14485348372E+02 0.13730224901E+02
 0.12941116447E+02 0.12292201068E+02 0.11927159432E+02 0.11968364708E+02 0.12542578931E+02
 0.13773211919E+02 0.15707727801E+02 0.18218598856E+02 0.21023317902E+02 0.24789022443E+02
 0.29803210533E+02 0.34349553579E+02 0.36196682989E+02 0.34349553579E+02 0.29803210533E+02
 0.24789022443E+02 0.21023317902E+02 0.18218598856E+02 0.15707727801E+02 0.13773211919E+02
 0.12542578931E+02 0.11968364708E+02 0.11927159432E+02 0.12292201068E+02 0.12941116447E+02
 0.13730224901E+02 0.14485348372E+02 0.15028769521E+02 0.20759195667E+02 0.20366545572E+02
 0.19348545313E+02 0.17911531211E+02 0.16251364195E+02 0.14651977981E+02 0.13362331540E+02
 0.12542578931E+02 0.12263720916E+02 0.12542578931E+02 0.13362331540E+02 0.14651977981E+02
 0.16251364195E+02 0.17911531211E+02 0.19348545313E+02 0.20366545572E+02 0.20759195667E+02
 0.20366545572E+02 0.19348545313E+02 0.17911531211E+02 0.16251364195E+02 0.14651977981E+02
 0.13362331540E+02 0.12542578931E+02 0.12263720916E+02 0.12542578931E+02 0.13362331540E+02
 0.14651977981E+02 0.16251364195E+02 0.17911531211E+02 0.19348545313E+02 0.20366545572E+02
 0.36196682989E+02 0.34349553579E+02 0.29803210533E+02 0.24789022443E+02 0.21023317902E+02
 0.18218598856E+02 0.15707727801E+02 0.13773211919E+02 0.12542578931E+02 0.11968364708E+02
 0.11927159432E+02 0.12292201068E+02 0.12941116447E+02 0.13730224901E+02 0.14485348372E+02
 0.15028769521E+02 0.15226503586E+02 0.15028769521E+02 0.14485348372E+02 0.13730224901E+02
 0.12941116447E+02 0.12292201068E+02 0.11927159432E+02 0.11968364708E+02 0.12542578931E+02
 0.13773211919E+02 0.15707727801E+02 0.18218598856E+02 0.21023317902E+02 0.24789022443E+02
 0.29803210533E+02 0.34349553579E+02 0.82666458925E+02 0.77109632716E+02 0.62827201191E+02
 0.45619726667E+02 0.31444470044E+02 0.23151158121E+02 0.18952143804E+02 0.15707727801E+02
 0.13362331540E+02 0.11927159432E+02 0.11184990707E+02 0.10900481365E+02 0.10911438974E+02
 0.11099624199E+02 0.11347820256E+02 0.11545971547E+02 0.11620240202E+02 0.11545971547E+02
 0.11347820256E+02 0.11099624199E+02 0.10911438974E+02 0.10900481365E+02 0.11184990707E+02
 0.11927159432E+02 0.13362331540E+02 0.15707727801E+02 0.18952143804E+02 0.23151158121E+02
 0.31444470044E+02 0.45619726667E+02 0.62827201191E+02 0.77109632716E+02 0.17588598048E+03
 0.16415566047E+03 0.13328797836E+03 0.94069187518E+02 0.58534056152E+02 0.34622975330E+02
 0.23151158121E+02 0.18218598856E+02 0.14651977981E+02 0.12292201068E+02 0.10900481365E+02
 0.10116330626E+02 0.97007969079E+01 0.95131014967E+01 0.94369185344E+01 0.93961969037E+01
 0.93796013457E+01 0.93961969037E+01 0.94369185344E+01 0.95131014967E+01 0.97007969079E+01
 0.10116330626E+02 0.10900481365E+02 0.12292201068E+02 0.14651977981E+02 0.18218598856E+02
 0.23151158121E+02 0.34622975330E+02 0.58534056152E+02 0.94069187518E+02 0.13328797836E+03
 0.16415566047E+03 0.31757077487E+03 0.29751310284E+03 0.24410005019E+03 0.17432573605E+03
 0.10770105566E+03 0.58534056152E+02 0.31444470044E+02 0.21023317902E+02 0.16251364195E+02
 0.12941116447E+02 0.10911438974E+02 0.97007969079E+01 0.89895652214E+01 0.85919029342E+01
 0.83435926204E+01 0.81599937238E+01 0.80831679842E+01 0.81599937238E+01 0.83435926204E+01
 0.85919029342E+01 0.89895652213E+01 0.97007969079E+01 0.10911438974E+02 0.12941116447E+02
 0.16251364195E+02 0.21023317902E+02 0.31444470044E+02 0.58534056152E+02 0.10770105566E+03
 0.17432573605E+03 0.24410005019E+03 0.29751310284E+03 0.49194761365E+03 0.46226874154E+03
 0.38280824952E+03 0.27759550500E+03 0.17432573605E+03 0.94069187518E+02 0.45619726667E+02
 0.24789022443E+02 0.17911531211E+02 0.13730224901E+02 0.11099624199E+02 0.95131014967E+01
 0.85919029342E+01 0.81020189026E+01 0.77974911722E+01 0.75479800895E+01 0.74362805230E+01
 0.75479800895E+01 0.77974911722E+01 0.81020189026E+01 0.85919029342E+01 0.95131014967E+01
 0.11099624199E+02 0.13730224901E+02 0.17911531211E+02 0.24789022443E+02 0.45619726667E+02
 0.94069187518E+02 0.17432573605E+03 0.27759550500E+03 0.38280824952E+03 0.46226874154E+03
 0.66602045786E+03 0.62697746585E+03 0.52225254697E+03 0.38280824952E+03 0.24410005019E+03
 0.13328797836E+03 0.62827201191E+02 0.29803210533E+02 0.19348545313E+02 0.14485348372E+02
 0.11347820256E+02 0.94369185344E+01 0.83435926204E+01 0.77974911722E+01 0.74691528252E+01
 0.71753663879E+01 0.70360834002E+01 0.71753663879E+01 0.74691528252E+01 0.77974911722E+01
 0.83435926204E+01 0.94369185344E+01 0.11347820256E+02 0.14485348372E+02 0.19348545313E+02
 0.29803210533E+02 0.62827201191E+02 0.13328797836E+03 0.24410005019E+03 0.38280824952E+03
 0.52225254697E+03 0.62697746585E+03 0.79647755352E+03 0.75045731794E+03 0.62697746585E+03
 0.46226874154E+03 0.29751310284E+03 0.16415566047E+03 0.77109632716E+02 0.34349553579E+02
 0.20366545572E+02 0.15028769521E+02 0.11545971547E+02 0.93961969037E+01 0.81599937238E+01
 0.75479800895E+01 0.71753663879E+01 0.68271158435E+01 0.66588681287E+01 0.68271158435E+01
 0.71753663879E+01 0.75479800895E+01 0.81599937238E+01 0.93961969037E+01 0.11545971547E+02
 0.15028769521E+02 0.20366545572E+02 0.34349553579E+02 0.77109632716E+02 0.16415566047E+03
 0.29751310284E+03 0.46226874154E+03 0.62697746585E+03 0.75045731794E+03 0.79647755352E+03
 0.75045731794E+03 0.62697746585E+03 0.46226874154E+03 0.29751310284E+03 0.16415566047E+03
 0.77109632716E+02 0.34349553579E+02 0.20366545572E+02 0.15028769521E+02 0.11545971547E+02
 0.93961969037E+01 0.81599937238E+01 0.75479800895E+01 0.71753663879E+01 0.68271158435E+01
 0.66588681287E+01 0.68271158435E+01 0.71753663879E+01 0.75479800895E+01 0.81599937238E+01
 0.93961969037E+01 0.11545971547E+02 0.15028769521E+02 0.20366545572E+02 0.34349553579E+02
 0.77109632716E+02 0.16415566047E+03 0.29751310284E+03 0.46226874154E+03 0.62697746585E+03
 0.75045731794E+03 0.75045731794E+03 0.70689986624E+03 0.59003246317E+03 0.43421389983E+03
 0.27860663399E+03 0.15316540513E+03 0.71963706385E+02 0.32674165082E+02 0.20000843866E+02
 0.14835679434E+02 0.11472727818E+02 0.94097398780E+01 0.82303334697E+01 0.76507594435E+01
 0.73036163063E+01 0.69822413255E+01 0.68271158435E+01 0.69822413255E+01 0.73036163063E+01
 0.76507594435E+01 0.82303334697E+01 0.94097398780E+01 0.11472727818E+02 0.14835679434E+02
 0.20000843866E+02 0.32674165082E+02 0.71963706385E+02 0.15316540513E+03 0.27860663399E+03
 0.43421389983E+03 0.59003246317E+03 0.70689986624E+03 0.62697746585E+03 0.59003246317E+03
 0.49095634503E+03 0.35914020655E+03 0.22830679982E+03 0.12429028180E+03 0.58770750870E+02
 0.28563508403E+02 0.19029660324E+02 0.14305944086E+02 0.11278158647E+02 0.94438148607E+01
 0.83995561716E+01 0.78812954965E+01 0.75746960273E+01 0.73036163063E+01 0.71753663879E+01
 0.73036163063E+01 0.75746960273E+01 0.78812954965E+01 0.83995561716E+01 0.94438148607E+01
 0.11278158647E+02 0.14305944086E+02 0.19029660324E+02 0.28563508403E+02 0.58770750870E+02
 0.12429028180E+03 0.22830679982E+03 0.35914020655E+03 0.49095634503E+03 0.59003246317E+03
 0.46226874154E+03 0.43421389983E+03 0.35914020655E+03 0.25987652640E+03 0.16275031204E+03
 0.87735323390E+02 0.42965220572E+02 0.24049170984E+02 0.17623622381E+02 0.13572030335E+02
 0.11035940933E+02 0.95128620148E+01 0.86322606901E+01 0.81665763846E+01 0.78812954965E+01
 0.76507594435E+01 0.75479800895E+01 0.76507594435E+01 0.78812954965E+01 0.81665763846E+01
 0.86322606901E+01 0.95128620148E+01 0.11035940933E+02 0.13572030335E+02 0.17623622381E+02
 0.24049170984E+02 0.42965220572E+02 0.87735323390E+02 0.16275031204E+03 0.25987652640E+03
 0.35914020655E+03 0.43421389983E+03 0.29751310284E+03 0.27860663399E+03 0.22830679982E+03
 0.16275031204E+03 0.10043747315E+03 0.54836723906E+02 0.30068369945E+02 0.20622106102E+02
 0.16006597569E+02 0.12807773499E+02 0.10853182252E+02 0.96909131346E+01 0.90105430532E+01
 0.86322606901E+01 0.83995561716E+01 0.82303334697E+01 0.81599937238E+01 0.82303334697E+01
 0.83995561716E+01 0.86322606901E+01 0.90105430532E+01 0.96909131346E+01 0.10853182252E+02
 0.12807773499E+02 0.16006597569E+02 0.20622106102E+02 0.30068369945E+02 0.54836723906E+02
 0.10043747315E+03 0.16275031204E+03 0.22830679982E+03 0.27860663399E+03 0.16415566047E+03
 0.15316540513E+03 0.12429028180E+03 0.87735323390E+02 0.54836723906E+02 0.32953657799E+02
 0.22586859007E+02 0.17910225132E+02 0.14456354795E+02 0.12181481809E+02 0.10842256437E+02
 0.10088922351E+02 0.96909131346E+01 0.95128620148E+01 0.94438148607E+01 0.94097398780E+01
 0.93961969037E+01 0.94097398780E+01 0.94438148607E+01 0.95128620148E+01 0.96909131346E+01
 0.10088922351E+02 0.10842256437E+02 0.12181481809E+02 0.14456354795E+02 0.17910225132E+02
 0.22586859007E+02 0.32953657799E+02 0.54836723906E+02 0.87735323390E+02 0.12429028180E+03
 0.15316540513E+03 0.77109632716E+02 0.71963706385E+02 0.58770750870E+02 0.42965220572E+02
 0.30068369945E+02 0.22586859007E+02 0.18621313669E+02 0.15474008896E+02 0.13211542951E+02
 0.11830386147E+02 0.11116196841E+02 0.10842256437E+02 0.10853182252E+02 0.11035940933E+02
 0.11278158647E+02 0.11472727818E+02 0.11545971547E+02 0.11472727818E+02 0.11278158647E+02
 0.11035940933E+02 0.10853182252E+02 0.10842256437E+02 0.11116196841E+02 0.11830386147E+02
 0.13211542951E+02 0.15474008896E+02 0.18621313669E+02 0.22586859007E+02 0.30068369945E+02
 0.42965220572E+02 0.58770750870E+02 0.71963706385E+02 0.34349553579E+02 0.32674165082E+02
 0.28563508403E+02 0.24049170984E+02 0.20622106102E+02 0.17910225132E+02 0.15474008896E+02
 0.13606847665E+02 0.12422708182E+02 0.11870532663E+02 0.11830386147E+02 0.12181481809E+02
 0.12807773499E+02 0.13572030335E+02 0.14305944086E+02 0.14835679434E+02 0.15028769521E+02
 0.14835679434E+02 0.14305944086E+02 0.13572030335E+02 0.12807773499E+02 0.12181481809E+02
 0.11830386147E+02 0.11870532663E+02 0.12422708182E+02 0.13606847665E+02 0.15474008896E+02
 0.17910225132E+02 0.20622106102E+02 0.24049170984E+02 0.28563508403E+02 0.32674165082E+02
 0.20366545572E+02 0.20000843866E+02 0.19029660324E+02 0.17623622381E+02 0.16006597569E+02
 0.14456354795E+02 0.13211542951E+02 0.12422708182E+02 0.12154805476E+02 0.12422708182E+02
 0.13211542951E+02 0.14456354795E+02 0.16006597569E+02 0.17623622381E+02 0.19029660324E+02
 0.20000843866E+02 0.20366545572E+02 0.20000843866E+02 0.19029660324E+02 0.17623622381E+02
 0.16006597569E+02 0.14456354795E+02 0.13211542951E+02 0.12422708182E+02 0.12154805476E+02
 0.12422708182E+02 0.13211542951E+02 0.14456354795E+02 0.16006597569E+02 0.17623622381E+02
 0.19029660324E+02 0.20000843866E+02 0.15028769521E+02 0.14835679434E+02 0.14305944086E+02
 0.13572030335E+02 0.12807773499E+02 0.12181481809E+02 0.11830386147E+02 0.11870532663E+02
 0.12422708182E+02 0.13606847665E+02 0.15474008896E+02 0.17910225132E+02 0.20622106102E+02
 0.24049170984E+02 0.28563508403E+02 0.32674165082E+02 0.34349553579E+02 0.32674165082E+02
 0.28563508403E+02 0.24049170984E+02 0.20622106102E+02 0.17910225132E+02 0.15474008896E+02
 0.13606847665E+02 0.12422708182E+02 0.11870532663E+02 0.11830386147E+02 0.12181481809E+02
 0.12807773499E+02 0.13572030335E+02 0.14305944086E+02 0.14835679434E+02 0.11545971547E+02
 0.11472727818E+02 0.11278158647E+02 0.11035940933E+02 0.10853182252E+02 0.10842256437E+02
 0.11116196841E+02 0.11830386147E+02 0.13211542951E+02 0.15474008896E+02 0.18621313669E+02
 0.22586859007E+02 0.30068369945E+02 0.42965220572E+02 0.58770750870E+02 0.71963706385E+02
 0.77109632716E+02 0.71963706385E+02 0.58770750870E+02 0.42965220572E+02 0.30068369945E+02
 0.22586859007E+02 0.18621313669E+02 0.15474008896E+02 0.13211542951E+02 0.11830386147E+02
 0.11116196841E+02 0.10842256437E+02 0.10853182252E+02 0.11035940933E+02 0.11278158647E+02
 0.11472727818E+02 0.93961969037E+01 0.94097398780E+01 0.94438148607E+01 0.95128620148E+01
 0.96909131346E+01 0.10088922351E+02 0.10842256437E+02 0.12181481809E+02 0.14456354795E+02
 0.17910225132E+02 0.22586859007E+02 0.32953657799E+02 0.54836723906E+02 0.87735323390E+02
 0.12429028180E+03 0.15316540513E+03 0.16415566047E+03 0.15316540513E+03 0.12429028180E+03
 0.87735323390E+02 0.54836723906E+02 0.32953657799E+02 0.22586859007E+02 0.17910225132E+02
 0.14456354795E+02 0.12181481809E+02 0.10842256437E+02 0.10088922351E+02 0.96909131346E+01
 0.95128620148E+01 0.94438148607E+01 0.94097398780E+01 0.81599937238E+01 0.82303334697E+01
 0.83995561716E+01 0.86322606901E+01 0.90105430532E+01 0.96909131346E+01 0.10853182252E+02
 0.12807773499E+02 0.16006597569E+02 0.20622106102E+02 0.30068369945E+02 0.54836723906E+02
 0.10043747315E+03 0.16275031204E+03 0.22830679982E+03 0.27860663399E+03 0.29751310284E+03
 0.27860663399E+03 0.22830679982E+03 0.16275031204E+03 0.10043747315E+03 0.54836723906E+02
 0.30068369945E+02 0.20622106102E+02 0.16006597569E+02 0.12807773499E+02 0.10853182252E+02
 0.96909131346E+01 0.90105430532E+01 0.86322606901E+01 0.83995561716E+01 0.82303334697E+01
 0.75479800895E+01 0.76507594435E+01 0.78812954965E+01 0.81665763846E+01 0.86322606901E+01
 0.95128620148E+01 0.11035940933E+02 0.13572030335E+02 0.17623622381E+02 0.24049170984E+02
 0.42965220572E+02 0.87735323390E+02 0.16275031204E+03 0.25987652640E+03 0.35914020655E+03
 0.43421389983E+03 0.46226874154E+03 0.43421389983E+03 0.35914020655E+03 0.25987652640E+03
 0.16275031204E+03 0.87735323390E+02 0.42965220572E+02 0.24049170984E+02 0.17623622381E+02
 0.13572030335E+02 0.11035940933E+02 0.95128620148E+01 0.86322606901E+01 0.81665763846E+01
 0.78812954965E+01 0.76507594435E+01 0.71753663879E+01 0.73036163063E+01 0.75746960273E+01
 0.78812954965E+01 0.83995561716E+01 0.94438148607E+01 0.11278158647E+02 0.14305944086E+02
 0.19029660324E+02 0.28563508403E+02 0.58770750870E+02 0.12429028180E+03 0.22830679982E+03
 0.35914020655E+03 0.49095634503E+03 0.59003246317E+03 0.62697746585E+03 0.59003246317E+03
 0.49095634503E+03 0.35914020655E+03 0.22830679982E+03 0.12429028180E+03 0.58770750870E+02
 0.28563508403E+02 0.19029660324E+02 0.14305944086E+02 0.11278158647E+02 0.94438148607E+01
 0.83995561716E+01 0.78812954965E+01 0.75746960273E+01 0.73036163063E+01 0.68271158435E+01
 0.69822413255E+01 0.73036163063E+01 0.76507594435E+01 0.82303334697E+01 0.94097398780E+01
 0.11472727818E+02 0.14835679434E+02 0.20000843866E+02 0.32674165082E+02 0.71963706385E+02
 0.15316540513E+03 0.27860663399E+03 0.43421389983E+03 0.59003246317E+03 0.70689986624E+03
 0.75045731794E+03 0.70689986624E+03 0.59003246317E+03 0.43421389983E+03 0.27860663399E+03
 0.15316540513E+03 0.71963706385E+02 0.32674165082E+02 0.20000843866E+02 0.14835679434E+02
 0.11472727818E+02 0.94097398780E+01 0.82303334697E+01 0.76507594435E+01 0.73036163063E+01
 0.69822413255E+01 0.66588681286E+01 0.68271158435E+01 0.71753663879E+01 0.75479800895E+01
 0.81599937238E+01 0.93961969037E+01 0.11545971547E+02 0.15028769521E+02 0.20366545572E+02
 0.34349553579E+02 0.77109632716E+02 0.16415566047E+03 0.29751310284E+03 0.46226874154E+03
 0.62697746585E+03 0.75045731794E+03 0.79647755352E+03 0.75045731794E+03 0.62697746585E+03
 0.46226874154E+03 0.29751310284E+03 0.16415566047E+03 0.77109632716E+02 0.34349553579E+02
 0.20366545572E+02 0.15028769521E+02 0.11545971547E+02 0.93961969037E+01 0.81599937238E+01
 0.75479800895E+01 0.71753663879E+01 0.68271158435E+01 0.68271158435E+01 0.69822413255E+01
 0.73036163063E+01 0.76507594435E+01 0.82303334697E+01 0.94097398780E+01 0.11472727818E+02
 0.14835679434E+02 0.20000843866E+02 0.32674165082E+02 0.71963706385E+02 0.15316540513E+03
 0.27860663399E+03 0.43421389983E+03 0.59003246317E+03 0.70689986624E+03 0.75045731794E+03
 0.70689986624E+03 0.59003246317E+03 0.43421389983E+03 0.27860663399E+03 0.15316540513E+03
 0.71963706385E+02 0.32674165082E+02 0.20000843866E+02 0.14835679434E+02 0.11472727818E+02
 0.94097398780E+01 0.82303334697E+01 0.76507594435E+01 0.73036163063E+01 0.69822413255E+01
 0.71753663879E+01 0.73036163063E+01 0.75746960273E+01 0.78812954965E+01 0.83995561716E+01
 0.94438148607E+01 0.11278158647E+02 0.14305944086E+02 0.19029660324E+02 0.28563508403E+02
 0.58770750870E+02 0.12429028180E+03 0.22830679982E+03 0.35914020655E+03 0.49095634503E+03
 0.59003246317E+03 0.62697746585E+03 0.59003246317E+03 0.49095634503E+03 0.35914020655E+03
 0.22830679982E+03 0.12429028180E+03 0.58770750870E+02 0.28563508403E+02 0.19029660324E+02