   4   4   0   0
  0.1200752E+02  0.3635000E-09  0.3635000E-09  0.3635000E-09  0.5000000E-15
  1.000000000000000E-004
  CAR 
 unknown system                          
     27.68200505     -3.84597997  301      7.24492619      1.00000000
     -3.846  0.0000E+00  0.0000E+00
     -3.741  0.0000E+00  0.0000E+00
     -3.636  0.0000E+00  0.0000E+00
     -3.531 -0.5523E-31 -0.5804E-32
     -3.426 -0.2747E-27 -0.2887E-28
     -3.321 -0.7831E-24 -0.8232E-25
     -3.215 -0.1278E-20 -0.1344E-21
     -3.110 -0.1194E-17 -0.1256E-18
     -3.005 -0.6205E-15 -0.6533E-16
     -2.900 -0.1873E-12 -0.1975E-13
     -2.795 -0.3220E-10 -0.3404E-11
     -2.690 -0.3131E-08 -0.3325E-09
     -2.585 -0.1710E-06 -0.1831E-07
     -2.480 -0.5185E-05 -0.5633E-06
     -2.375 -0.8533E-04 -0.9531E-05
     -2.270 -0.7254E-03 -0.8577E-04
     -2.164 -0.2748E-02 -0.3746E-03
     -2.059 -0.1124E-02 -0.4927E-03
     -1.954  0.2099E-01  0.1713E-02
     -1.849  0.5611E-01  0.7610E-02
     -1.744  0.5012E-01  0.1288E-01
     -1.639  0.3476E-02  0.1324E-01
     -1.534  0.3371E-01  0.1679E-01
     -1.429  0.2293E+00  0.4089E-01
     -1.324  0.3801E+00  0.8083E-01
     -1.219  0.2308E+00  0.1051E+00
     -1.114  0.4444E-01  0.1098E+00
     -1.008  0.2522E+00  0.1363E+00
     -0.903  0.6899E+00  0.2088E+00
     -0.798  0.6773E+00  0.2799E+00
     -0.693  0.2412E+00  0.3053E+00
     -0.588  0.1030E+00  0.3161E+00
     -0.483  0.3750E+00  0.3555E+00
     -0.378  0.4865E+00  0.4067E+00
     -0.273  0.2287E+00  0.4307E+00
     -0.168  0.6411E-01  0.4374E+00
     -0.063  0.2236E+00  0.4609E+00
      0.042  0.3406E+00  0.4967E+00
      0.148  0.1629E+00  0.5138E+00
      0.253  0.2253E+00  0.5375E+00
      0.358  0.9859E+00  0.6411E+00
      0.463  0.1490E+01  0.7977E+00
      0.568  0.9380E+00  0.8963E+00
      0.673  0.6427E+00  0.9638E+00
      0.778  0.1286E+01  0.1099E+01
      0.883  0.1398E+01  0.1246E+01
      0.988  0.5762E+00  0.1306E+01
      1.093 -0.1157E-01  0.1305E+01
      1.198 -0.9691E-01  0.1295E+01
      1.304 -0.6989E-01  0.1288E+01
      1.409  0.7150E-01  0.1295E+01
      1.514  0.5085E+00  0.1349E+01
      1.619  0.1207E+01  0.1476E+01
      1.724  0.1917E+01  0.1677E+01
      1.829  0.1822E+01  0.1868E+01
      1.934  0.1000E+01  0.1974E+01
      2.039  0.1114E+01  0.2091E+01
      2.144  0.2005E+01  0.2301E+01
      2.249  0.2199E+01  0.2533E+01
      2.355  0.1777E+01  0.2719E+01
      2.460  0.1472E+01  0.2874E+01
      2.565  0.2149E+01  0.3100E+01
      2.670  0.4079E+01  0.3528E+01
      2.775  0.6186E+01  0.4178E+01
      2.880  0.6710E+01  0.4884E+01
      2.985  0.5592E+01  0.5471E+01
      3.090  0.4425E+01  0.5936E+01
      3.195  0.5449E+01  0.6509E+01
      3.300  0.9136E+01  0.7469E+01
      3.405  0.1070E+02  0.8593E+01
      3.511  0.9141E+01  0.9554E+01
      3.616  0.9130E+01  0.1051E+02
      3.721  0.9243E+01  0.1148E+02
      3.826  0.7328E+01  0.1225E+02
      3.931  0.7499E+01  0.1304E+02
      4.036  0.1062E+02  0.1416E+02
      4.141  0.1321E+02  0.1555E+02
      4.246  0.1530E+02  0.1716E+02
      4.351  0.1673E+02  0.1891E+02
      4.456  0.1646E+02  0.2064E+02
      4.561  0.1527E+02  0.2225E+02
      4.667  0.1295E+02  0.2361E+02
      4.772  0.1127E+02  0.2479E+02
      4.877  0.1221E+02  0.2608E+02
      4.982  0.1415E+02  0.2756E+02
      5.087  0.1415E+02  0.2905E+02
      5.192  0.1426E+02  0.3055E+02
      5.297  0.1634E+02  0.3227E+02
      5.402  0.1490E+02  0.3383E+02
      5.507  0.1159E+02  0.3505E+02
      5.612  0.1424E+02  0.3655E+02
      5.718  0.1939E+02  0.3859E+02
      5.823  0.1782E+02  0.4046E+02
      5.928  0.1059E+02  0.4157E+02
      6.033  0.5229E+01  0.4212E+02
      6.138  0.3161E+01  0.4245E+02
      6.243  0.2239E+01  0.4269E+02
      6.348  0.1383E+01  0.4283E+02
      6.453  0.4407E+00  0.4288E+02
      6.558 -0.6899E-01  0.4287E+02
      6.663 -0.5844E-01  0.4287E+02
      6.768  0.1284E+00  0.4288E+02
      6.874  0.1439E+00  0.4289E+02
      6.979  0.2989E+00  0.4293E+02
      7.084  0.2124E+01  0.4315E+02
      7.189  0.5046E+01  0.4368E+02
      7.294  0.5285E+01  0.4423E+02
      7.399  0.2520E+01  0.4450E+02
      7.504  0.2493E+00  0.4453E+02
      7.609 -0.2855E+00  0.4450E+02
      7.714  0.1860E+00  0.4452E+02
      7.819  0.1147E+01  0.4464E+02
      7.924  0.1538E+01  0.4480E+02
      8.030  0.8096E+00  0.4488E+02
      8.135  0.3229E-01  0.4489E+02
      8.240 -0.1489E+00  0.4487E+02
      8.345  0.2411E+00  0.4490E+02
      8.450  0.1107E+01  0.4501E+02
      8.555  0.1433E+01  0.4516E+02
      8.660  0.9014E+00  0.4526E+02
      8.765  0.1150E+01  0.4538E+02
      8.870  0.2210E+01  0.4561E+02
      8.975  0.2045E+01  0.4583E+02
      9.080  0.7440E+00  0.4590E+02
      9.186 -0.6543E-01  0.4590E+02
      9.291 -0.1760E+00  0.4588E+02
      9.396  0.1297E+00  0.4589E+02
      9.501  0.8970E+00  0.4599E+02
      9.606  0.1410E+01  0.4613E+02
      9.711  0.1556E+01  0.4630E+02
      9.816  0.2637E+01  0.4657E+02
      9.921  0.3515E+01  0.4694E+02
     10.026  0.2343E+01  0.4719E+02
     10.131  0.6136E+00  0.4725E+02
     10.237 -0.8499E-01  0.4725E+02
     10.342 -0.1012E+00  0.4724E+02
     10.447 -0.4252E-01  0.4723E+02
     10.552 -0.4316E-01  0.4723E+02
     10.657  0.3897E-01  0.4723E+02
     10.762  0.4065E+00  0.4727E+02
     10.867  0.7692E+00  0.4735E+02
     10.972  0.5835E+00  0.4742E+02
     11.077  0.1250E+00  0.4743E+02
     11.182 -0.1071E+00  0.4742E+02
     11.287 -0.2553E-01  0.4741E+02
     11.393  0.5775E+00  0.4747E+02
     11.498  0.1374E+01  0.4762E+02
     11.603  0.1494E+01  0.4778E+02
     11.708  0.1459E+01  0.4793E+02
     11.813  0.1880E+01  0.4813E+02
     11.918  0.2086E+01  0.4835E+02
     12.023  0.1661E+01  0.4852E+02
     12.128  0.9949E+00  0.4863E+02
     12.233  0.6179E+00  0.4869E+02
     12.338  0.7556E+00  0.4877E+02
     12.443  0.1973E+01  0.4898E+02
     12.549  0.3021E+01  0.4929E+02
     12.654  0.2032E+01  0.4951E+02
     12.759  0.8683E+00  0.4960E+02
     12.864  0.1188E+01  0.4972E+02
     12.969  0.1335E+01  0.4986E+02
     13.074  0.6165E+00  0.4993E+02
     13.179  0.2807E+00  0.4996E+02
     13.284  0.4442E+00  0.5001E+02
     13.389  0.3538E+00  0.5004E+02
     13.494  0.4484E-01  0.5005E+02
     13.600 -0.1665E+00  0.5003E+02
     13.705 -0.1553E-01  0.5003E+02
     13.810  0.1204E+01  0.5015E+02
     13.915  0.2896E+01  0.5046E+02
     14.020  0.2691E+01  0.5074E+02
     14.125  0.9006E+00  0.5084E+02
     14.230 -0.1239E+00  0.5082E+02
     14.335 -0.3769E-01  0.5082E+02
     14.440  0.6929E+00  0.5089E+02
     14.545  0.1738E+01  0.5108E+02
     14.650  0.2030E+01  0.5129E+02
     14.756  0.1193E+01  0.5141E+02
     14.861  0.6604E+00  0.5148E+02
     14.966  0.1149E+01  0.5160E+02
     15.071  0.1498E+01  0.5176E+02
     15.176  0.1547E+01  0.5192E+02
     15.281  0.1901E+01  0.5212E+02
     15.386  0.2008E+01  0.5233E+02
     15.491  0.2397E+01  0.5259E+02
     15.596  0.3080E+01  0.5291E+02
     15.701  0.2181E+01  0.5314E+02
     15.806  0.4535E+00  0.5319E+02
     15.912 -0.1844E+00  0.5317E+02
     16.017  0.3504E+00  0.5320E+02
     16.122  0.1303E+01  0.5334E+02
     16.227  0.1407E+01  0.5349E+02
     16.332  0.5986E+00  0.5355E+02
     16.437  0.3360E+00  0.5359E+02
     16.542  0.9083E+00  0.5368E+02
     16.647  0.1354E+01  0.5383E+02
     16.752  0.1499E+01  0.5398E+02
     16.857  0.1751E+01  0.5417E+02
     16.962  0.1999E+01  0.5438E+02
     17.068  0.2267E+01  0.5462E+02
     17.173  0.2349E+01  0.5486E+02
     17.278  0.1734E+01  0.5504E+02
     17.383  0.8077E+00  0.5513E+02
     17.488  0.2788E+00  0.5516E+02
     17.593  0.2807E+00  0.5519E+02
     17.698  0.9146E+00  0.5528E+02
     17.803  0.1429E+01  0.5543E+02
     17.908  0.1019E+01  0.5554E+02
     18.013  0.1029E+01  0.5565E+02
     18.119  0.2182E+01  0.5588E+02
     18.224  0.2848E+01  0.5618E+02
     18.329  0.2206E+01  0.5641E+02
     18.434  0.9548E+00  0.5651E+02
     18.539  0.3669E+00  0.5655E+02
     18.644  0.1210E+01  0.5668E+02
     18.749  0.2422E+01  0.5693E+02
     18.854  0.2458E+01  0.5719E+02
     18.959  0.1450E+01  0.5734E+02
     19.064  0.1491E+01  0.5750E+02
     19.169  0.3445E+01  0.5786E+02
     19.275  0.4261E+01  0.5831E+02
     19.380  0.2287E+01  0.5855E+02
     19.485  0.2739E+00  0.5858E+02
     19.590 -0.2095E+00  0.5856E+02
     19.695 -0.9062E-01  0.5855E+02
     19.800 -0.2098E-01  0.5854E+02
     19.905 -0.4100E-01  0.5854E+02
     20.010 -0.1076E+00  0.5853E+02
     20.115  0.5211E-01  0.5853E+02
     20.220  0.9643E+00  0.5863E+02
     20.325  0.2305E+01  0.5888E+02
     20.431  0.2692E+01  0.5916E+02
     20.536  0.1670E+01  0.5934E+02
     20.641  0.4154E+00  0.5938E+02
     20.746 -0.8437E-01  0.5937E+02
     20.851 -0.7592E-01  0.5936E+02
     20.956 -0.1791E-01  0.5936E+02
     21.061 -0.2010E-02  0.5936E+02
     21.166 -0.1189E-03  0.5936E+02
     21.271 -0.3852E-05  0.5936E+02
     21.376 -0.6951E-07  0.5936E+02
     21.482 -0.3025E-08  0.5936E+02
     21.587 -0.1978E-06  0.5936E+02
     21.692 -0.9453E-05  0.5936E+02
     21.797 -0.2498E-03  0.5936E+02
     21.902 -0.3554E-02  0.5936E+02
     22.007 -0.2562E-01  0.5936E+02
     22.112 -0.7606E-01  0.5935E+02
     22.217  0.3726E-01  0.5935E+02
     22.322  0.7120E+00  0.5943E+02
     22.427  0.1504E+01  0.5959E+02
     22.532  0.1261E+01  0.5972E+02
     22.638  0.3718E+00  0.5976E+02
     22.743 -0.5568E-01  0.5975E+02
     22.848 -0.5668E-01  0.5975E+02
     22.953 -0.1278E-01  0.5974E+02
     23.058 -0.1338E-02  0.5974E+02
     23.163 -0.7324E-04  0.5974E+02
     23.268 -0.2186E-05  0.5974E+02
     23.373 -0.3631E-07  0.5974E+02
     23.478 -0.3392E-09  0.5974E+02
     23.583 -0.1794E-11  0.5974E+02
     23.688 -0.5679E-14  0.5974E+02
     23.794  0.0000E+00  0.5974E+02
     23.899  0.0000E+00  0.5974E+02
     24.004 -0.1515E-29  0.5974E+02
     24.109 -0.7281E-26  0.5974E+02
     24.214 -0.2006E-22  0.5974E+02
     24.319 -0.3164E-19  0.5974E+02
     24.424 -0.2855E-16  0.5974E+02
     24.529 -0.1432E-13  0.5974E+02
     24.634 -0.4178E-11  0.5974E+02
     24.739 -0.6938E-09  0.5974E+02
     24.844 -0.6514E-07  0.5974E+02
     24.950 -0.3433E-05  0.5974E+02
     25.055 -0.1003E-03  0.5974E+02
     25.160 -0.1588E-02  0.5974E+02
     25.265 -0.1293E-01  0.5974E+02
     25.370 -0.4605E-01  0.5974E+02
     25.475 -0.8444E-02  0.5974E+02
     25.580  0.3732E+00  0.5978E+02
     25.685  0.9472E+00  0.5988E+02
     25.790  0.9218E+00  0.5997E+02
     25.895  0.3378E+00  0.6001E+02
     26.001 -0.1790E-01  0.6001E+02
     26.106 -0.4397E-01  0.6000E+02
     26.211 -0.1161E-01  0.6000E+02
     26.316 -0.1365E-02  0.6000E+02
     26.421 -0.8297E-04  0.6000E+02
     26.526 -0.2737E-05  0.6000E+02
     26.631 -0.5010E-07  0.6000E+02
     26.736 -0.5152E-09  0.6000E+02
     26.841 -0.2997E-11  0.6000E+02
     26.946 -0.9736E-14  0.6000E+02
     27.051  0.0000E+00  0.6000E+02
     27.157  0.0000E+00  0.6000E+02
     27.262  0.0000E+00  0.6000E+02
     27.367  0.0000E+00  0.6000E+02
     27.472  0.0000E+00  0.6000E+02
     27.577  0.0000E+00  0.6000E+02
     27.682  0.0000E+00  0.6000E+02
