unknown system                          
   1.00000000000000     
     3.635000    0.000000    0.000000
     0.000000    3.635000    0.000000
     0.000000    0.000000    3.635000
   Cu
     4
Direct
  0.000000  0.000000  0.000000
  0.500000  0.500000  0.000000
  0.500000  0.000000  0.500000
  0.000000  0.500000  0.500000
 
   32   32   32
  845.05      796.42      665.95      491.88      317.53      175.91      82.744      36.276      20.784      15.192    
  11.566      9.3446      8.0711      7.4302      7.0286      6.6544      6.4751      6.6544      7.0286      7.4302    
  8.0711      9.3446      11.566      15.192      20.784      36.276      82.744      175.91      317.53      491.88    
  665.95      796.42      796.42      750.39      626.91      462.20      297.48      164.19      77.189      34.425    
  20.388      14.994      11.495      9.3647      8.1506      7.5439      7.1684      6.8208      6.6544      6.8208    
  7.1684      7.5439      8.1506      9.3647      11.495      14.994      20.388      34.425      77.189      164.19    
  297.48      462.20      626.91      750.39      665.95      626.91      522.18      382.75      244.09      133.34    
  62.910      29.868      19.359      14.450      11.304      9.4135      8.3404      7.7987      7.4656      7.1684    
  7.0286      7.1684      7.4656      7.7987      8.3404      9.4135      11.304      14.450      19.359      29.868    
  62.910      133.34      244.09      382.75      522.18      626.91      491.88      462.20      382.75      277.57    
  174.35      94.141      45.702      24.838      17.909      13.695      11.065      9.4973      8.5932      8.1077    
  7.7987      7.5439      7.4302      7.5439      7.7987      8.1077      8.5932      9.4973      11.065      13.695    
  17.909      24.838      45.702      94.141      174.35      277.57      382.75      462.20      317.53      297.48    
  244.09      174.35      107.77      58.622      31.517      21.053      16.239      12.909      10.884      9.6879    
  8.9883      8.5932      8.3404      8.1506      8.0711      8.1506      8.3404      8.5932      8.9883      9.6879    
  10.884      12.909      16.239      21.053      31.517      58.622      107.77      174.35      244.09      297.48    
  175.91      164.19      133.34      94.141      58.622      34.704      23.201      18.229      14.633      12.264    
  10.877      10.100      9.6879      9.4973      9.4135      9.3647      9.3446      9.3647      9.4135      9.4973    
  9.6879      10.100      10.877      12.264      14.633      18.229      23.201      34.704      58.622      94.141    
  133.34      164.19      82.744      77.189      62.910      45.702      31.517      23.201      18.973      15.702    
  13.342      11.902      11.161      10.877      10.884      11.065      11.304      11.495      11.566      11.495    
  11.304      11.065      10.884      10.877      11.161      11.902      13.342      15.702      18.973      23.201    
  31.517      45.702      62.910      77.189      36.276      34.425      29.868      24.838      21.053      18.229    
  15.702      13.757      12.522      11.946      11.902      12.264      12.909      13.695      14.450      14.994    
  15.192      14.994      14.450      13.695      12.909      12.264      11.902      11.946      12.522      13.757    
  15.702      18.229      21.053      24.838      29.868      34.425      20.784      20.388      19.359      17.909    
  16.239      14.633      13.342      12.522      12.243      12.522      13.342      14.633      16.239      17.909    
  19.359      20.388      20.784      20.388      19.359      17.909      16.239      14.633      13.342      12.522    
  12.243      12.522      13.342      14.633      16.239      17.909      19.359      20.388      15.192      14.994    
  14.450      13.695      12.909      12.264      11.902      11.946      12.522      13.757      15.702      18.229    
  21.053      24.838      29.868      34.425      36.276      34.425      29.868      24.838      21.053      18.229    
  15.702      13.757      12.522      11.946      11.902      12.264      12.909      13.695      14.450      14.994    
  11.566      11.495      11.304      11.065      10.884      10.877      11.161      11.902      13.342      15.702    
  18.973      23.201      31.517      45.702      62.910      77.189      82.744      77.189      62.910      45.702    
  31.517      23.201      18.973      15.702      13.342      11.902      11.161      10.877      10.884      11.065    
  11.304      11.495      9.3446      9.3647      9.4135      9.4973      9.6879      10.100      10.877      12.264    
  14.633      18.229      23.201      34.704      58.622      94.141      133.34      164.19      175.91      164.19    
  133.34      94.141      58.622      34.704      23.201      18.229      14.633      12.264      10.877      10.100    
  9.6879      9.4973      9.4135      9.3647      8.0711      8.1506      8.3404      8.5932      8.9883      9.6879    
  10.884      12.909      16.239      21.053      31.517      58.622      107.77      174.35      244.09      297.48    
  317.53      297.48      244.09      174.35      107.77      58.622      31.517      21.053      16.239      12.909    
  10.884      9.6879      8.9883      8.5932      8.3404      8.1506      7.4302      7.5439      7.7987      8.1077    
  8.5932      9.4973      11.065      13.695      17.909      24.838      45.702      94.141      174.35      277.57    
  382.75      462.20      491.88      462.20      382.75      277.57      174.35      94.141      45.702      24.838    
  17.909      13.695      11.065      9.4973      8.5932      8.1077      7.7987      7.5439      7.0286      7.1684    
  7.4656      7.7987      8.3404      9.4135      11.304      14.450      19.359      29.868      62.910      133.34    
  244.09      382.75      522.18      626.91      665.95      626.91      522.18      382.75      244.09      133.34    
  62.910      29.868      19.359      14.450      11.304      9.4135      8.3404      7.7987      7.4656      7.1684    
  6.6544      6.8208      7.1684      7.5439      8.1506      9.3647      11.495      14.994      20.388      34.425    
  77.189      164.19      297.48      462.20      626.91      750.39      796.42      750.39      626.91      462.20    
  297.48      164.19      77.189      34.425      20.388      14.994      11.495      9.3647      8.1506      7.5439    
  7.1684      6.8208      6.4751      6.6544      7.0286      7.4302      8.0711      9.3446      11.566      15.192    
  20.784      36.276      82.744      175.91      317.53      491.88      665.95      796.42      845.05      796.42    
  665.95      491.88      317.53      175.91      82.744      36.276      20.784      15.192      11.566      9.3446    
  8.0711      7.4302      7.0286      6.6544      6.6544      6.8208      7.1684      7.5439      8.1506      9.3647    
  11.495      14.994      20.388      34.425      77.189      164.19      297.48      462.20      626.91      750.39    
  796.42      750.39      626.91      462.20      297.48      164.19      77.189      34.425      20.388      14.994    
  11.495      9.3647      8.1506      7.5439      7.1684      6.8208      7.0286      7.1684      7.4656      7.7987    
  8.3404      9.4135      11.304      14.450      19.359      29.868      62.910      133.34      244.09      382.75    
  522.18      626.91      665.95      626.91      522.18      382.75      244.09      133.34      62.910      29.868    
  19.359      14.450      11.304      9.4135      8.3404      7.7987      7.4656      7.1684      7.4302      7.5439    
  7.7987      8.1077      8.5932      9.4973      11.065      13.695      17.909      24.838      45.702      94.141    
  174.35      277.57      382.75      462.20      491.88      462.20      382.75      277.57      174.35      94.141    
  45.702      24.838      17.909      13.695      11.065      9.4973      8.5932      8.1077      7.7987      7.5439    
  8.0711      8.1506      8.3404      8.5932      8.9883      9.6879      10.884      12.909      16.239      21.053    
  31.517      58.622      107.77      174.35      244.09      297.48      317.53      297.48      244.09      174.35    
  107.77      58.622      31.517      21.053      16.239      12.909      10.884      9.6879      8.9883      8.5932    
  8.3404      8.1506      9.3446      9.3647      9.4135      9.4973      9.6879      10.100      10.877      12.264    
  14.633      18.229      23.201      34.704      58.622      94.141      133.34      164.19      175.91      164.19    
  133.34      94.141      58.622      34.704      23.201      18.229      14.633      12.264      10.877      10.100    
  9.6879      9.4973      9.4135      9.3647      11.566      11.495      11.304      11.065      10.884      10.877    
  11.161      11.902      13.342      15.702      18.973      23.201      31.517      45.702      62.910      77.189    
  82.744      77.189      62.910      45.702      31.517      23.201      18.973      15.702      13.342      11.902    
  11.161      10.877      10.884      11.065      11.304      11.495      15.192      14.994      14.450      13.695    
  12.909      12.264      11.902      11.946      12.522      13.757      15.702      18.229      21.053      24.838    
  29.868      34.425      36.276      34.425      29.868      24.838      21.053      18.229      15.702      13.757    
  12.522      11.946      11.902      12.264      12.909      13.695      14.450      14.994      20.784      20.388    
  19.359      17.909      16.239      14.633      13.342      12.522      12.243      12.522      13.342      14.633    
  16.239      17.909      19.359      20.388      20.784      20.388      19.359      17.909      16.239      14.633    
  13.342      12.522      12.243      12.522      13.342      14.633      16.239      17.909      19.359      20.388    
  36.276      34.425      29.868      24.838      21.053      18.229      15.702      13.757      12.522      11.946    
  11.902      12.264      12.909      13.695      14.450      14.994      15.192      14.994      14.450      13.695    
  12.909      12.264      11.902      11.946      12.522      13.757      15.702      18.229      21.053      24.838    
  29.868      34.425      82.744      77.189      62.910      45.702      31.517      23.201      18.973      15.702    
  13.342      11.902      11.161      10.877      10.884      11.065      11.304      11.495      11.566      11.495    
  11.304      11.065      10.884      10.877      11.161      11.902      13.342      15.702      18.973      23.201    
  31.517      45.702      62.910      77.189      175.91      164.19      133.34      94.141      58.622      34.704    
  23.201      18.229      14.633      12.264      10.877      10.100      9.6879      9.4973      9.4135      9.3647    
  9.3446      9.3647      9.4135      9.4973      9.6879      10.100      10.877      12.264      14.633      18.229    
  23.201      34.704      58.622      94.141      133.34      164.19      317.53      297.48      244.09      174.35    
  107.77      58.622      31.517      21.053      16.239      12.909      10.884      9.6879      8.9883      8.5932    
  8.3404      8.1506      8.0711      8.1506      8.3404      8.5932      8.9883      9.6879      10.884      12.909    
  16.239      21.053      31.517      58.622      107.77      174.35      244.09      297.48      491.88      462.20    
  382.75      277.57      174.35      94.141      45.702      24.838      17.909      13.695      11.065      9.4973    
  8.5932      8.1077      7.7987      7.5439      7.4302      7.5439      7.7987      8.1077      8.5932      9.4973    
  11.065      13.695      17.909      24.838      45.702      94.141      174.35      277.57      382.75      462.20    
  665.95      626.91      522.18      382.75      244.09      133.34      62.910      29.868      19.359      14.450    
  11.304      9.4135      8.3404      7.7987      7.4656      7.1684      7.0286      7.1684      7.4656      7.7987    
  8.3404      9.4135      11.304      14.450      19.359      29.868      62.910      133.34      244.09      382.75    
  522.18      626.91      796.42      750.39      626.91      462.20      297.48      164.19      77.189      34.425    
  20.388      14.994      11.495      9.3647      8.1506      7.5439      7.1684      6.8208      6.6544      6.8208    
  7.1684      7.5439      8.1506      9.3647      11.495      14.994      20.388      34.425      77.189      164.19    
  297.48      462.20      626.91      750.39      796.42      750.39      626.91      462.20      297.48      164.19    
  77.189      34.425      20.388      14.994      11.495      9.3647      8.1506      7.5439      7.1684      6.8208    
  6.6544      6.8208      7.1684      7.5439      8.1506      9.3647      11.495      14.994      20.388      34.425    
  77.189      164.19      297.48      462.20      626.91      750.39      750.39      706.83      589.96      434.15    
  278.58      153.20      72.045      32.746      20.018      14.800      11.424      9.3818      8.2240      7.6492    
  7.2980      6.9752      6.8208      6.9752      7.2980      7.6492      8.2240      9.3818      11.424      14.800    
  20.018      32.746      72.045      153.20      278.58      434.15      589.96      706.83      626.91      589.96    
  490.88      359.08      228.30      124.34      58.854      28.625      19.037      14.271      11.237      9.4243    
  8.4001      7.8860      7.5738      7.2980      7.1684      7.2980      7.5738      7.8860      8.4001      9.4243    
  11.237      14.271      19.037      28.625      58.854      124.34      228.30      359.08      490.88      589.96    
  462.20      434.15      359.08      259.85      162.78      87.810      43.045      24.094      17.619      13.538    
  11.004      9.5013      8.6379      8.1764      7.8860      7.6492      7.5439      7.6492      7.8860      8.1764    
  8.6379      9.5013      11.004      13.538      17.619      24.094      43.045      87.810      162.78      259.85    
  359.08      434.15      297.48      278.58      228.30      162.78      100.51      54.923      30.136      20.647    
  15.992      12.777      10.829      9.6823      9.0138      8.6379      8.4001      8.2240      8.1506      8.2240    
  8.4001      8.6379      9.0138      9.6823      10.829      12.777      15.992      20.647      30.136      54.923    
  100.51      162.78      228.30      278.58      164.19      153.20      124.34      87.810      54.923      33.029    
  22.630      17.916      14.436      12.154      10.821      10.076      9.6823      9.5013      9.4243      9.3818    
  9.3647      9.3818      9.4243      9.5013      9.6823      10.076      10.821      12.154      14.436      17.916    
  22.630      33.029      54.923      87.810      124.34      153.20      77.189      72.045      58.854      43.045    
  30.136      22.630      18.636      15.464      13.189      11.805      11.094      10.821      10.829      11.004    
  11.237      11.424      11.495      11.424      11.237      11.004      10.829      10.821      11.094      11.805    
  13.189      15.464      18.636      22.630      30.136      43.045      58.854      72.045      34.425      32.746    
  28.625      24.094      20.647      17.916      15.464      13.587      12.400      11.847      11.805      12.154    
  12.777      13.538      14.271      14.800      14.994      14.800      14.271      13.538      12.777      12.154    
  11.805      11.847      12.400      13.587      15.464      17.916      20.647      24.094      28.625      32.746    
  20.388      20.018      19.037      17.619      15.992      14.436      13.189      12.400      12.132      12.400    
  13.189      14.436      15.992      17.619      19.037      20.018      20.388      20.018      19.037      17.619    
  15.992      14.436      13.189      12.400      12.132      12.400      13.189      14.436      15.992      17.619    
  19.037      20.018      14.994      14.800      14.271      13.538      12.777      12.154      11.805      11.847    
  12.400      13.587      15.464      17.916      20.647      24.094      28.625      32.746      34.425      32.746    
  28.625      24.094      20.647      17.916      15.464      13.587      12.400      11.847      11.805      12.154    
  12.777      13.538      14.271      14.800      11.495      11.424      11.237      11.004      10.829      10.821    
  11.094      11.805      13.189      15.464      18.636      22.630      30.136      43.045      58.854      72.045    
  77.189      72.045      58.854      43.045      30.136      22.630      18.636      15.464      13.189      11.805    
  11.094      10.821      10.829      11.004      11.237      11.424      9.3647      9.3818      9.4243      9.5013    
  9.6823      10.076      10.821      12.154      14.436      17.916      22.630      33.029      54.923      87.810    
  124.34      153.20      164.19      153.20      124.34      87.810      54.923      33.029      22.630      17.916    
  14.436      12.154      10.821      10.076      9.6823      9.5013      9.4243      9.3818      8.1506      8.2240    
  8.4001      8.6379      9.0138      9.6823      10.829      12.777      15.992      20.647      30.136      54.923    
  100.51      162.78      228.30      278.58      297.48      278.58      228.30      162.78      100.51      54.923    
  30.136      20.647      15.992      12.777      10.829      9.6823      9.0138      8.6379      8.4001      8.2240    
  7.5439      7.6492      7.8860      8.1764      8.6379      9.5013      11.004      13.538      17.619      24.094    
  43.045      87.810      162.78      259.85      359.08      434.15      462.20      434.15      359.08      259.85    
  162.78      87.810      43.045      24.094      17.619      13.538      11.004      9.5013      8.6379      8.1764    
  7.8860      7.6492      7.1684      7.2980      7.5738      7.8860      8.4001      9.4243      11.237      14.271    
  19.037      28.625      58.854      124.34      228.30      359.08      490.88      589.96      626.91      589.96    
  490.88      359.08      228.30      124.34      58.854      28.625      19.037      14.271      11.237      9.4243    
  8.4001      7.8860      7.5738      7.2980      6.8208      6.9752      7.2980      7.6492      8.2240      9.3818    
  11.424      14.800      20.018      32.746      72.045      153.20      278.58      434.15      589.96      706.83    
  750.39      706.83      589.96      434.15      278.58      153.20      72.045      32.746      20.018      14.800    
  11.424      9.3818      8.2240      7.6492      7.2980      6.9752      6.6544      6.8208      7.1684      7.5439    
  8.1506      9.3647      11.495      14.994      20.388      34.425      77.189      164.19      297.48      462.20    
  626.91      750.39      796.42      750.39      626.91      462.20      297.48      164.19      77.189      34.425    
  20.388      14.994      11.495      9.3647      8.1506      7.5439      7.1684      6.8208      6.8208      6.9752    
  7.2980      7.6492      8.2240      9.3818      11.424      14.800      20.018      32.746      72.045      153.20    
  278.58      434.15      589.96      706.83      750.39      706.83      589.96      434.15      278.58      153.20    
  72.045      32.746      20.018      14.800      11.424      9.3818      8.2240      7.6492      7.2980      6.9752    
  7.1684      7.2980      7.5738      7.8860      8.4001      9.4243      11.237      14.271      19.037      28.625    
  58.854      124.34      228.30      359.08      490.88      589.96      626.91      589.96      490.88      359.08    
  228.30      124.34      58.854      28.625      19.037      14.271      11.237      9.4243      8.4001      7.8860    
  7.5738      7.2980      7.5439      7.6492      7.8860      8.1764      8.6379      9.5013      11.004      13.538    
  17.619      24.094      43.045      87.810      162.78      259.85      359.08      434.15      462.20      434.15    
  359.08      259.85      162.78      87.810      43.045      24.094      17.619      13.538      11.004      9.5013    
  8.6379      8.1764      7.8860      7.6492      8.1506      8.2240      8.4001      8.6379      9.0138      9.6823    
  10.829      12.777      15.992      20.647      30.136      54.923      100.51      162.78      228.30      278.58    
  297.48      278.58      228.30      162.78      100.51      54.923      30.136      20.647      15.992      12.777    
  10.829      9.6823      9.0138      8.6379      8.4001      8.2240      9.3647      9.3818      9.4243      9.5013    
  9.6823      10.076      10.821      12.154      14.436      17.916      22.630      33.029      54.923      87.810    
  124.34      153.20      164.19      153.20      124.34      87.810      54.923      33.029      22.630      17.916    
  14.436      12.154      10.821      10.076      9.6823      9.5013      9.4243      9.3818      11.495      11.424    
  11.237      11.004      10.829      10.821      11.094      11.805      13.189      15.464      18.636      22.630    
  30.136      43.045      58.854      72.045      77.189      72.045      58.854      43.045      30.136      22.630    
  18.636      15.464      13.189      11.805      11.094      10.821      10.829      11.004      11.237      11.424    
  14.994      14.800      14.271      13.538      12.777      12.154      11.805      11.847      12.400      13.587    
  15.464      17.916      20.647      24.094      28.625      32.746      34.425      32.746      28.625      24.094    
  20.647      17.916      15.464      13.587      12.400      11.847      11.805      12.154      12.777      13.538    
  14.271      14.800      20.388      20.018      19.037      17.619      15.992      14.436      13.189      12.400    
  12.132      12.400      13.189      14.436      15.992      17.619      19.037      20.018      20.388      20.018    
  19.037      17.619      15.992      14.436      13.189      12.400      12.132      12.400      13.189      14.436    
  15.992      17.619      19.037      20.018      34.425      32.746      28.625      24.094      20.647      17.916    
  15.464      13.587      12.400      11.847      11.805      12.154      12.777      13.538      14.271      14.800    
  14.994      14.800      14.271      13.538      12.777      12.154      11.805      11.847      12.400      13.587    
  15.464      17.916      20.647      24.094      28.625      32.746      77.189      72.045      58.854      43.045    
  30.136      22.630      18.636      15.464      13.189      11.805      11.094      10.821      10.829      11.004    
  11.237      11.424      11.495      11.424      11.237      11.004      10.829      10.821      11.094      11.805    
  13.189      15.464      18.636      22.630      30.136      43.045      58.854      72.045      164.19      153.20    
  124.34      87.810      54.923      33.029      22.630      17.916      14.436      12.154      10.821      10.076    
  9.6823      9.5013      9.4243      9.3818      9.3647      9.3818      9.4243      9.5013      9.6823      10.076    
  10.821      12.154      14.436      17.916      22.630      33.029      54.923      87.810      124.34      153.20    
  297.48      278.58      228.30      162.78      100.51      54.923      30.136      20.647      15.992      12.777    
  10.829      9.6823      9.0138      8.6379      8.4001      8.2240      8.1506      8.2240      8.4001      8.6379    
  9.0138      9.6823      10.829      12.777      15.992      20.647      30.136      54.923      100.51      162.78    
  228.30      278.58      462.20      434.15      359.08      259.85      162.78      87.810      43.045      24.094    
  17.619      13.538      11.004      9.5013      8.6379      8.1764      7.8860      7.6492      7.5439      7.6492    
  7.8860      8.1764      8.6379      9.5013      11.004      13.538      17.619      24.094      43.045      87.810    
  162.78      259.85      359.08      434.15      626.91      589.96      490.88      359.08      228.30      124.34    
  58.854      28.625      19.037      14.271      11.237      9.4243      8.4001      7.8860      7.5738      7.2980    
  7.1684      7.2980      7.5738      7.8860      8.4001      9.4243      11.237      14.271      19.037      28.625    
  58.854      124.34      228.30      359.08      490.88      589.96      750.39      706.83      589.96      434.15    
  278.58      153.20      72.045      32.746      20.018      14.800      11.424      9.3818      8.2240      7.6492    
  7.2980      6.9752      6.8208      6.9752      7.2980      7.6492      8.2240      9.3818      11.424      14.800    
  20.018      32.746      72.045      153.20      278.58      434.15      589.96      706.83      665.95      626.91    
  522.18      382.75      244.09      133.34      62.910      29.868      19.359      14.450      11.304      9.4135    
  8.3404      7.7987      7.4656      7.1684      7.0286      7.1684      7.4656      7.7987      8.3404      9.4135    
  11.304      14.450      19.359      29.868      62.910      133.34      244.09      382.75      522.18      626.91    
  626.91      589.96      490.88      359.08      228.30      124.34      58.854      28.625      19.037      14.271    
  11.237      9.4243      8.4001      7.8860      7.5738      7.2980      7.1684      7.2980      7.5738      7.8860    
  8.4001      9.4243      11.237      14.271      19.037      28.625      58.854      124.34      228.30      359.08    
  490.88      589.96      522.18      490.88      407.05      295.89      186.44      100.84      48.536      25.595    
  18.131      13.782      11.063      9.4536      8.5468      8.0866      7.8092      7.5738      7.4656      7.5738    
  7.8092      8.0866      8.5468      9.4536      11.063      13.782      18.131      25.595      48.536      100.84    
  186.44      295.89      407.05      490.88      382.75      359.08      295.89      212.77      132.31      71.431    
  36.390      22.274      16.806      13.111      10.847      9.5163      8.7532      8.3423      8.0866      7.8860    
  7.7987      7.8860      8.0866      8.3423      8.7532      9.5163      10.847      13.111      16.806      22.274    
  36.390      71.431      132.31      212.77      295.89      359.08      244.09      228.30      186.44      132.31    
  81.632      45.528      26.745      19.556      15.306      12.418      10.687      9.6742      9.0852      8.7532    
  8.5468      8.4001      8.3404      8.4001      8.5468      8.7532      9.0852      9.6742      10.687      12.418    
  15.306      19.556      26.745      45.528      81.632      132.31      186.44      228.30      133.34      124.34    
  100.84      71.431      45.528      28.893      21.191      17.035      13.890      11.856      10.676      10.020    
  9.6742      9.5163      9.4536      9.4243      9.4135      9.4243      9.4536      9.5163      9.6742      10.020    
  10.676      11.856      13.890      17.035      21.191      28.893      45.528      71.431      100.84      124.34    
  62.910      58.854      48.536      36.390      26.745      21.191      17.685      14.801      12.768      11.542    
  10.915      10.676      10.687      10.847      11.063      11.237      11.304      11.237      11.063      10.847    
  10.687      10.676      10.915      11.542      12.768      14.801      17.685      21.191      26.745      36.390    
  48.536      58.854      29.868      28.625      25.595      22.274      19.556      17.035      14.801      13.118    
  12.063      11.576      11.542      11.856      12.418      13.111      13.782      14.271      14.450      14.271    
  13.782      13.111      12.418      11.856      11.542      11.576      12.063      13.118      14.801      17.035    
  19.556      22.274      25.595      28.625      19.359      19.037      18.131      16.806      15.306      13.890    
  12.768      12.063      11.826      12.063      12.768      13.890      15.306      16.806      18.131      19.037    
  19.359      19.037      18.131      16.806      15.306      13.890      12.768      12.063      11.826      12.063    
  12.768      13.890      15.306      16.806      18.131      19.037      14.450      14.271      13.782      13.111    
  12.418      11.856      11.542      11.576      12.063      13.118      14.801      17.035      19.556      22.274    
  25.595      28.625      29.868      28.625      25.595      22.274      19.556      17.035      14.801      13.118    
  12.063      11.576      11.542      11.856      12.418      13.111      13.782      14.271      11.304      11.237    
  11.063      10.847      10.687      10.676      10.915      11.542      12.768      14.801      17.685      21.191    
  26.745      36.390      48.536      58.854      62.910      58.854      48.536      36.390      26.745      21.191    
  17.685      14.801      12.768      11.542      10.915      10.676      10.687      10.847      11.063      11.237    
  9.4135      9.4243      9.4536      9.5163      9.6742      10.020      10.676      11.856      13.890      17.035    
  21.191      28.893      45.528      71.431      100.84      124.34      133.34      124.34      100.84      71.431    
  45.528      28.893      21.191      17.035      13.890      11.856      10.676      10.020      9.6742      9.5163    
  9.4536      9.4243      8.3404      8.4001      8.5468      8.7532      9.0852      9.6742      10.687      12.418    
  15.306      19.556      26.745      45.528      81.632      132.31      186.44      228.30      244.09      228.30    