unknown system                          
   1.00000000000000     
     3.635000    0.000000    0.000000
     0.000000    3.635000    0.000000
     0.000000    0.000000    3.635000
   Cu
     4
Direct
  0.000000  0.000000  0.000000
  0.500000  0.500000  0.000000
  0.500000  0.000000  0.500000
  0.000000  0.500000  0.500000
 
   32   32   32
 0.84504541571E+03 0.79641986272E+03 0.66595385474E+03 0.49188067020E+03 0.31753331170E+03
 0.17590927375E+03 0.82744307089E+02 0.36276047547E+02 0.20784464691E+02 0.15191591187E+02
 0.11565933762E+02 0.93446219642E+01 0.80710633327E+01 0.74302440231E+01 0.70286297486E+01
 0.66543986930E+01 0.64750903558E+01 0.66543986930E+01 0.70286297486E+01 0.74302440231E+01
 0.80710633327E+01 0.93446219642E+01 0.11565933762E+02 0.15191591187E+02 0.20784464691E+02
 0.36276047547E+02 0.82744307089E+02 0.17590927375E+03 0.31753331170E+03 0.49188067020E+03
 0.66595385474E+03 0.79641986272E+03 0.79641986272E+03 0.75039472533E+03 0.62690574441E+03
 0.46220079651E+03 0.29748061295E+03 0.16418540278E+03 0.77189201827E+02 0.34425225436E+02
 0.20387708177E+02 0.14993558359E+02 0.11494616563E+02 0.93646817576E+01 0.81506205146E+01
 0.75439374864E+01 0.71684284143E+01 0.68208360601E+01 0.66543986930E+01 0.68208360601E+01
 0.71684284143E+01 0.75439374864E+01 0.81506205146E+01 0.93646817576E+01 0.11494616563E+02
 0.14993558359E+02 0.20387708177E+02 0.34425225436E+02 0.77189201827E+02 0.16418540278E+03
 0.29748061295E+03 0.46220079651E+03 0.62690574441E+03 0.75039472533E+03 0.66595385474E+03
 0.62690574441E+03 0.52217556755E+03 0.38274726423E+03 0.24408692324E+03 0.13333606379E+03
 0.62910049876E+02 0.29868251268E+02 0.19359175177E+02 0.14449801480E+02 0.11303916848E+02
 0.94134656280E+01 0.83403747797E+01 0.77987362862E+01 0.74656007577E+01 0.71684284143E+01
 0.70286297486E+01 0.71684284143E+01 0.74656007577E+01 0.77987362862E+01 0.83403747797E+01
 0.94134656280E+01 0.11303916848E+02 0.14449801480E+02 0.19359175177E+02 0.29868251268E+02
 0.62910049876E+02 0.13333606379E+03 0.24408692324E+03 0.38274726423E+03 0.52217556755E+03
 0.62690574441E+03 0.49188067020E+03 0.46220079651E+03 0.38274726423E+03 0.27756588639E+03
 0.17434978389E+03 0.94141287352E+02 0.45702184939E+02 0.24837874298E+02 0.17909493138E+02
 0.13695498416E+02 0.11064568756E+02 0.94972793825E+01 0.85931875225E+01 0.81077168675E+01
 0.77987362862E+01 0.75439374864E+01 0.74302440231E+01 0.75439374864E+01 0.77987362862E+01
 0.81077168675E+01 0.85931875225E+01 0.94972793825E+01 0.11064568756E+02 0.13695498416E+02
 0.17909493138E+02 0.24837874298E+02 0.45702184939E+02 0.94141287352E+02 0.17434978389E+03
 0.27756588639E+03 0.38274726423E+03 0.46220079651E+03 0.31753331170E+03 0.29748061295E+03
 0.24408692324E+03 0.17434978389E+03 0.10776729420E+03 0.58621791773E+02 0.31516689162E+02
 0.21052807780E+02 0.16238834077E+02 0.12909056527E+02 0.10883699474E+02 0.96879079435E+01
 0.89882665761E+01 0.85931875225E+01 0.83403747797E+01 0.81506205146E+01 0.80710633327E+01
 0.81506205146E+01 0.83403747797E+01 0.85931875225E+01 0.89882665761E+01 0.96879079435E+01
 0.10883699474E+02 0.12909056527E+02 0.16238834077E+02 0.21052807780E+02 0.31516689162E+02
 0.58621791773E+02 0.10776729420E+03 0.17434978389E+03 0.24408692324E+03 0.29748061295E+03
 0.17590927375E+03 0.16418540278E+03 0.13333606379E+03 0.94141287352E+02 0.58621791773E+02
 0.34703715181E+02 0.23200996251E+02 0.18228819344E+02 0.14633345836E+02 0.12263988721E+02
 0.10876609496E+02 0.10100040393E+02 0.96879079435E+01 0.94972793825E+01 0.94134656280E+01
 0.93646817576E+01 0.93446219642E+01 0.93646817576E+01 0.94134656280E+01 0.94972793825E+01
 0.96879079435E+01 0.10100040393E+02 0.10876609496E+02 0.12263988721E+02 0.14633345836E+02
 0.18228819344E+02 0.23200996251E+02 0.34703715181E+02 0.58621791773E+02 0.94141287352E+02
 0.13333606379E+03 0.16418540278E+03 0.82744307089E+02 0.77189201827E+02 0.62910049876E+02
 0.45702184939E+02 0.31516689162E+02 0.23200996251E+02 0.18972644738E+02 0.15702138664E+02
 0.13341629830E+02 0.11902374524E+02 0.11161199604E+02 0.10876609496E+02 0.10883699474E+02
 0.11064568756E+02 0.11303916848E+02 0.11494616563E+02 0.11565933762E+02 0.11494616563E+02
 0.11303916848E+02 0.11064568756E+02 0.10883699474E+02 0.10876609496E+02 0.11161199604E+02
 0.11902374524E+02 0.13341629830E+02 0.15702138664E+02 0.18972644738E+02 0.23200996251E+02
 0.31516689162E+02 0.45702184939E+02 0.62910049876E+02 0.77189201827E+02 0.36276047547E+02
 0.34425225436E+02 0.29868251268E+02 0.24837874298E+02 0.21052807780E+02 0.18228819344E+02
 0.15702138664E+02 0.13757420424E+02 0.12521936312E+02 0.11945696114E+02 0.11902374524E+02
 0.12263988721E+02 0.12909056527E+02 0.13695498416E+02 0.14449801480E+02 0.14993558359E+02
 0.15191591187E+02 0.14993558359E+02 0.14449801480E+02 0.13695498416E+02 0.12909056527E+02
 0.12263988721E+02 0.11902374524E+02 0.11945696114E+02 0.12521936312E+02 0.13757420424E+02
 0.15702138664E+02 0.18228819344E+02 0.21052807780E+02 0.24837874298E+02 0.29868251268E+02
 0.34425225436E+02 0.20784464691E+02 0.20387708177E+02 0.19359175177E+02 0.17909493138E+02
 0.16238834077E+02 0.14633345836E+02 0.13341629830E+02 0.12521936312E+02 0.12243354639E+02
 0.12521936312E+02 0.13341629830E+02 0.14633345836E+02 0.16238834077E+02 0.17909493138E+02
 0.19359175177E+02 0.20387708177E+02 0.20784464691E+02 0.20387708177E+02 0.19359175177E+02
 0.17909493138E+02 0.16238834077E+02 0.14633345836E+02 0.13341629830E+02 0.12521936312E+02
 0.12243354639E+02 0.12521936312E+02 0.13341629830E+02 0.14633345836E+02 0.16238834077E+02
 0.17909493138E+02 0.19359175177E+02 0.20387708177E+02 0.15191591187E+02 0.14993558359E+02
 0.14449801480E+02 0.13695498416E+02 0.12909056527E+02 0.12263988721E+02 0.11902374524E+02
 0.11945696114E+02 0.12521936312E+02 0.13757420424E+02 0.15702138664E+02 0.18228819344E+02
 0.21052807780E+02 0.24837874298E+02 0.29868251268E+02 0.34425225436E+02 0.36276047547E+02
 0.34425225436E+02 0.29868251268E+02 0.24837874298E+02 0.21052807780E+02 0.18228819344E+02
 0.15702138664E+02 0.13757420424E+02 0.12521936312E+02 0.11945696114E+02 0.11902374524E+02
 0.12263988721E+02 0.12909056527E+02 0.13695498416E+02 0.14449801480E+02 0.14993558359E+02
 0.11565933762E+02 0.11494616563E+02 0.11303916848E+02 0.11064568756E+02 0.10883699474E+02
 0.10876609496E+02 0.11161199604E+02 0.11902374524E+02 0.13341629830E+02 0.15702138664E+02
 0.18972644738E+02 0.23200996251E+02 0.31516689162E+02 0.45702184939E+02 0.62910049876E+02
 0.77189201827E+02 0.82744307089E+02 0.77189201827E+02 0.62910049876E+02 0.45702184939E+02
 0.31516689162E+02 0.23200996251E+02 0.18972644738E+02 0.15702138664E+02 0.13341629830E+02
 0.11902374524E+02 0.11161199604E+02 0.10876609496E+02 0.10883699474E+02 0.11064568756E+02
 0.11303916848E+02 0.11494616563E+02 0.93446219642E+01 0.93646817576E+01 0.94134656280E+01
 0.94972793825E+01 0.96879079435E+01 0.10100040393E+02 0.10876609496E+02 0.12263988721E+02
 0.14633345836E+02 0.18228819344E+02 0.23200996251E+02 0.34703715181E+02 0.58621791773E+02
 0.94141287352E+02 0.13333606379E+03 0.16418540278E+03 0.17590927375E+03 0.16418540278E+03
 0.13333606379E+03 0.94141287352E+02 0.58621791773E+02 0.34703715181E+02 0.23200996251E+02
 0.18228819344E+02 0.14633345836E+02 0.12263988721E+02 0.10876609496E+02 0.10100040393E+02
 0.96879079435E+01 0.94972793825E+01 0.94134656280E+01 0.93646817576E+01 0.80710633327E+01
 0.81506205146E+01 0.83403747797E+01 0.85931875225E+01 0.89882665761E+01 0.96879079435E+01
 0.10883699474E+02 0.12909056527E+02 0.16238834077E+02 0.21052807780E+02 0.31516689162E+02
 0.58621791773E+02 0.10776729420E+03 0.17434978389E+03 0.24408692324E+03 0.29748061295E+03
 0.31753331170E+03 0.29748061295E+03 0.24408692324E+03 0.17434978389E+03 0.10776729420E+03
 0.58621791773E+02 0.31516689162E+02 0.21052807780E+02 0.16238834077E+02 0.12909056527E+02
 0.10883699474E+02 0.96879079435E+01 0.89882665761E+01 0.85931875225E+01 0.83403747797E+01
 0.81506205146E+01 0.74302440231E+01 0.75439374864E+01 0.77987362862E+01 0.81077168675E+01
 0.85931875225E+01 0.94972793825E+01 0.11064568756E+02 0.13695498416E+02 0.17909493138E+02
 0.24837874298E+02 0.45702184939E+02 0.94141287352E+02 0.17434978389E+03 0.27756588639E+03
 0.38274726423E+03 0.46220079651E+03 0.49188067020E+03 0.46220079651E+03 0.38274726423E+03
 0.27756588639E+03 0.17434978389E+03 0.94141287352E+02 0.45702184939E+02 0.24837874298E+02
 0.17909493138E+02 0.13695498416E+02 0.11064568756E+02 0.94972793825E+01 0.85931875225E+01
 0.81077168675E+01 0.77987362862E+01 0.75439374864E+01 0.70286297486E+01 0.71684284143E+01
 0.74656007577E+01 0.77987362862E+01 0.83403747797E+01 0.94134656280E+01 0.11303916848E+02
 0.14449801480E+02 0.19359175177E+02 0.29868251268E+02 0.62910049876E+02 0.13333606379E+03
 0.24408692324E+03 0.38274726423E+03 0.52217556755E+03 0.62690574441E+03 0.66595385474E+03
 0.62690574441E+03 0.52217556755E+03 0.38274726423E+03 0.24408692324E+03 0.13333606379E+03
 0.62910049876E+02 0.29868251268E+02 0.19359175177E+02 0.14449801480E+02 0.11303916848E+02
 0.94134656280E+01 0.83403747797E+01 0.77987362862E+01 0.74656007577E+01 0.71684284143E+01
 0.66543986930E+01 0.68208360601E+01 0.71684284143E+01 0.75439374864E+01 0.81506205146E+01
 0.93646817576E+01 0.11494616563E+02 0.14993558359E+02 0.20387708177E+02 0.34425225436E+02
 0.77189201827E+02 0.16418540278E+03 0.29748061295E+03 0.46220079651E+03 0.62690574441E+03
 0.75039472533E+03 0.79641986272E+03 0.75039472533E+03 0.62690574441E+03 0.46220079651E+03
 0.29748061295E+03 0.16418540278E+03 0.77189201827E+02 0.34425225436E+02 0.20387708177E+02
 0.14993558359E+02 0.11494616563E+02 0.93646817576E+01 0.81506205146E+01 0.75439374864E+01
 0.71684284143E+01 0.68208360601E+01 0.64750903558E+01 0.66543986930E+01 0.70286297486E+01
 0.74302440231E+01 0.80710633327E+01 0.93446219642E+01 0.11565933762E+02 0.15191591187E+02
 0.20784464691E+02 0.36276047547E+02 0.82744307089E+02 0.17590927375E+03 0.31753331170E+03
 0.49188067020E+03 0.66595385474E+03 0.79641986272E+03 0.84504541571E+03 0.79641986272E+03
 0.66595385474E+03 0.49188067020E+03 0.31753331170E+03 0.17590927375E+03 0.82744307089E+02
 0.36276047547E+02 0.20784464691E+02 0.15191591187E+02 0.11565933762E+02 0.93446219642E+01
 0.80710633327E+01 0.74302440231E+01 0.70286297486E+01 0.66543986930E+01 0.66543986930E+01
 0.68208360601E+01 0.71684284143E+01 0.75439374864E+01 0.81506205146E+01 0.93646817576E+01
 0.11494616563E+02 0.14993558359E+02 0.20387708177E+02 0.34425225436E+02 0.77189201827E+02
 0.16418540278E+03 0.29748061295E+03 0.46220079651E+03 0.62690574441E+03 0.75039472533E+03
 0.79641986272E+03 0.75039472533E+03 0.62690574441E+03 0.46220079651E+03 0.29748061295E+03
 0.16418540278E+03 0.77189201827E+02 0.34425225436E+02 0.20387708177E+02 0.14993558359E+02
 0.11494616563E+02 0.93646817576E+01 0.81506205146E+01 0.75439374864E+01 0.71684284143E+01
 0.68208360601E+01 0.70286297486E+01 0.71684284143E+01 0.74656007577E+01 0.77987362862E+01
 0.83403747797E+01 0.94134656280E+01 0.11303916848E+02 0.14449801480E+02 0.19359175177E+02
 0.29868251268E+02 0.62910049876E+02 0.13333606379E+03 0.24408692324E+03 0.38274726423E+03
 0.52217556755E+03 0.62690574441E+03 0.66595385474E+03 0.62690574441E+03 0.52217556755E+03
 0.38274726423E+03 0.24408692324E+03 0.13333606379E+03 0.62910049876E+02 0.29868251268E+02
 0.19359175177E+02 0.14449801480E+02 0.11303916848E+02 0.94134656280E+01 0.83403747797E+01
 0.77987362862E+01 0.74656007577E+01 0.71684284143E+01 0.74302440231E+01 0.75439374864E+01
 0.77987362862E+01 0.81077168675E+01 0.85931875225E+01 0.94972793825E+01 0.11064568756E+02
 0.13695498416E+02 0.17909493138E+02 0.24837874298E+02 0.45702184939E+02 0.94141287352E+02
 0.17434978389E+03 0.27756588639E+03 0.38274726423E+03 0.46220079651E+03 0.49188067020E+03
 0.46220079651E+03 0.38274726423E+03 0.27756588639E+03 0.17434978389E+03 0.94141287352E+02
 0.45702184939E+02 0.24837874298E+02 0.17909493138E+02 0.13695498416E+02 0.11064568756E+02
 0.94972793825E+01 0.85931875225E+01 0.81077168675E+01 0.77987362862E+01 0.75439374864E+01
 0.80710633327E+01 0.81506205146E+01 0.83403747797E+01 0.85931875225E+01 0.89882665761E+01
 0.96879079435E+01 0.10883699474E+02 0.12909056527E+02 0.16238834077E+02 0.21052807780E+02
 0.31516689162E+02 0.58621791773E+02 0.10776729420E+03 0.17434978389E+03 0.24408692324E+03
 0.29748061295E+03 0.31753331170E+03 0.29748061295E+03 0.24408692324E+03 0.17434978389E+03
 0.10776729420E+03 0.58621791773E+02 0.31516689162E+02 0.21052807780E+02 0.16238834077E+02
 0.12909056527E+02 0.10883699474E+02 0.96879079435E+01 0.89882665761E+01 0.85931875225E+01
 0.83403747797E+01 0.81506205146E+01 0.93446219642E+01 0.93646817576E+01 0.94134656280E+01
 0.94972793825E+01 0.96879079435E+01 0.10100040393E+02 0.10876609496E+02 0.12263988721E+02
 0.14633345836E+02 0.18228819344E+02 0.23200996251E+02 0.34703715181E+02 0.58621791773E+02
 0.94141287352E+02 0.13333606379E+03 0.16418540278E+03 0.17590927375E+03 0.16418540278E+03
 0.13333606379E+03 0.94141287352E+02 0.58621791773E+02 0.34703715181E+02 0.23200996251E+02
 0.18228819344E+02 0.14633345836E+02 0.12263988721E+02 0.10876609496E+02 0.10100040393E+02
 0.96879079435E+01 0.94972793825E+01 0.94134656280E+01 0.93646817576E+01 0.11565933762E+02
 0.11494616563E+02 0.11303916848E+02 0.11064568756E+02 0.10883699474E+02 0.10876609496E+02
 0.11161199604E+02 0.11902374524E+02 0.13341629830E+02 0.15702138664E+02 0.18972644738E+02
 0.23200996251E+02 0.31516689162E+02 0.45702184939E+02 0.62910049876E+02 0.77189201827E+02
 0.82744307089E+02 0.77189201827E+02 0.62910049876E+02 0.45702184939E+02 0.31516689162E+02
 0.23200996251E+02 0.18972644738E+02 0.15702138664E+02 0.13341629830E+02 0.11902374524E+02
 0.11161199604E+02 0.10876609496E+02 0.10883699474E+02 0.11064568756E+02 0.11303916848E+02
 0.11494616563E+02 0.15191591187E+02 0.14993558359E+02 0.14449801480E+02 0.13695498416E+02
 0.12909056527E+02 0.12263988721E+02 0.11902374524E+02 0.11945696114E+02 0.12521936312E+02
 0.13757420424E+02 0.15702138664E+02 0.18228819344E+02 0.21052807780E+02 0.24837874298E+02
 0.29868251268E+02 0.34425225436E+02 0.36276047547E+02 0.34425225436E+02 0.29868251268E+02
 0.24837874298E+02 0.21052807780E+02 0.18228819344E+02 0.15702138664E+02 0.13757420424E+02
 0.12521936312E+02 0.11945696114E+02 0.11902374524E+02 0.12263988721E+02 0.12909056527E+02
 0.13695498416E+02 0.14449801480E+02 0.14993558359E+02 0.20784464691E+02 0.20387708177E+02
 0.19359175177E+02 0.17909493138E+02 0.16238834077E+02 0.14633345836E+02 0.13341629830E+02
 0.12521936312E+02 0.12243354639E+02 0.12521936312E+02 0.13341629830E+02 0.14633345836E+02
 0.16238834077E+02 0.17909493138E+02 0.19359175177E+02 0.20387708177E+02 0.20784464691E+02
 0.20387708177E+02 0.19359175177E+02 0.17909493138E+02 0.16238834077E+02 0.14633345836E+02
 0.13341629830E+02 0.12521936312E+02 0.12243354639E+02 0.12521936312E+02 0.13341629830E+02
 0.14633345836E+02 0.16238834077E+02 0.17909493138E+02 0.19359175177E+02 0.20387708177E+02
 0.36276047547E+02 0.34425225436E+02 0.29868251268E+02 0.24837874298E+02 0.21052807780E+02
 0.18228819344E+02 0.15702138664E+02 0.13757420424E+02 0.12521936312E+02 0.11945696114E+02
 0.11902374524E+02 0.12263988721E+02 0.12909056527E+02 0.13695498416E+02 0.14449801480E+02
 0.14993558359E+02 0.15191591187E+02 0.14993558359E+02 0.14449801480E+02 0.13695498416E+02
 0.12909056527E+02 0.12263988721E+02 0.11902374524E+02 0.11945696114E+02 0.12521936312E+02
 0.13757420424E+02 0.15702138664E+02 0.18228819344E+02 0.21052807780E+02 0.24837874298E+02
 0.29868251268E+02 0.34425225436E+02 0.82744307089E+02 0.77189201827E+02 0.62910049876E+02
 0.45702184939E+02 0.31516689162E+02 0.23200996251E+02 0.18972644738E+02 0.15702138664E+02
 0.13341629830E+02 0.11902374524E+02 0.11161199604E+02 0.10876609496E+02 0.10883699474E+02
 0.11064568756E+02 0.11303916848E+02 0.11494616563E+02 0.11565933762E+02 0.11494616563E+02
 0.11303916848E+02 0.11064568756E+02 0.10883699474E+02 0.10876609496E+02 0.11161199604E+02
 0.11902374524E+02 0.13341629830E+02 0.15702138664E+02 0.18972644738E+02 0.23200996251E+02
 0.31516689162E+02 0.45702184939E+02 0.62910049876E+02 0.77189201827E+02 0.17590927375E+03
 0.16418540278E+03 0.13333606379E+03 0.94141287352E+02 0.58621791773E+02 0.34703715181E+02
 0.23200996251E+02 0.18228819344E+02 0.14633345836E+02 0.12263988721E+02 0.10876609496E+02
 0.10100040393E+02 0.96879079435E+01 0.94972793825E+01 0.94134656280E+01 0.93646817576E+01
 0.93446219642E+01 0.93646817576E+01 0.94134656280E+01 0.94972793825E+01 0.96879079435E+01
 0.10100040393E+02 0.10876609496E+02 0.12263988721E+02 0.14633345836E+02 0.18228819344E+02
 0.23200996251E+02 0.34703715181E+02 0.58621791773E+02 0.94141287352E+02 0.13333606379E+03
 0.16418540278E+03 0.31753331170E+03 0.29748061295E+03 0.24408692324E+03 0.17434978389E+03
 0.10776729420E+03 0.58621791773E+02 0.31516689162E+02 0.21052807780E+02 0.16238834077E+02
 0.12909056527E+02 0.10883699474E+02 0.96879079435E+01 0.89882665761E+01 0.85931875225E+01
 0.83403747797E+01 0.81506205146E+01 0.80710633327E+01 0.81506205146E+01 0.83403747797E+01
 0.85931875225E+01 0.89882665761E+01 0.96879079435E+01 0.10883699474E+02 0.12909056527E+02
 0.16238834077E+02 0.21052807780E+02 0.31516689162E+02 0.58621791773E+02 0.10776729420E+03
 0.17434978389E+03 0.24408692324E+03 0.29748061295E+03 0.49188067020E+03 0.46220079651E+03
 0.38274726423E+03 0.27756588639E+03 0.17434978389E+03 0.94141287352E+02 0.45702184939E+02
 0.24837874298E+02 0.17909493138E+02 0.13695498416E+02 0.11064568756E+02 0.94972793825E+01
 0.85931875225E+01 0.81077168675E+01 0.77987362862E+01 0.75439374864E+01 0.74302440231E+01
 0.75439374864E+01 0.77987362862E+01 0.81077168675E+01 0.85931875225E+01 0.94972793825E+01
 0.11064568756E+02 0.13695498416E+02 0.17909493138E+02 0.24837874298E+02 0.45702184939E+02
 0.94141287352E+02 0.17434978389E+03 0.27756588639E+03 0.38274726423E+03 0.46220079651E+03
 0.66595385474E+03 0.62690574441E+03 0.52217556755E+03 0.38274726423E+03 0.24408692324E+03
 0.13333606379E+03 0.62910049876E+02 0.29868251268E+02 0.19359175177E+02 0.14449801480E+02
 0.11303916848E+02 0.94134656280E+01 0.83403747797E+01 0.77987362862E+01 0.74656007577E+01
 0.71684284143E+01 0.70286297486E+01 0.71684284143E+01 0.74656007577E+01 0.77987362862E+01
 0.83403747797E+01 0.94134656280E+01 0.11303916848E+02 0.14449801480E+02 0.19359175177E+02
 0.29868251268E+02 0.62910049876E+02 0.13333606379E+03 0.24408692324E+03 0.38274726423E+03
 0.52217556755E+03 0.62690574441E+03 0.79641986272E+03 0.75039472533E+03 0.62690574441E+03
 0.46220079651E+03 0.29748061295E+03 0.16418540278E+03 0.77189201827E+02 0.34425225436E+02
 0.20387708177E+02 0.14993558359E+02 0.11494616563E+02 0.93646817576E+01 0.81506205146E+01
 0.75439374864E+01 0.71684284143E+01 0.68208360601E+01 0.66543986930E+01 0.68208360601E+01
 0.71684284143E+01 0.75439374864E+01 0.81506205146E+01 0.93646817576E+01 0.11494616563E+02
 0.14993558359E+02 0.20387708177E+02 0.34425225436E+02 0.77189201827E+02 0.16418540278E+03
 0.29748061295E+03 0.46220079651E+03 0.62690574441E+03 0.75039472533E+03 0.79641986272E+03
 0.75039472533E+03 0.62690574441E+03 0.46220079651E+03 0.29748061295E+03 0.16418540278E+03
 0.77189201827E+02 0.34425225436E+02 0.20387708177E+02 0.14993558359E+02 0.11494616563E+02
 0.93646817576E+01 0.81506205146E+01 0.75439374864E+01 0.71684284143E+01 0.68208360601E+01
 0.66543986930E+01 0.68208360601E+01 0.71684284143E+01 0.75439374864E+01 0.81506205146E+01
 0.93646817576E+01 0.11494616563E+02 0.14993558359E+02 0.20387708177E+02 0.34425225436E+02
 0.77189201827E+02 0.16418540278E+03 0.29748061295E+03 0.46220079651E+03 0.62690574441E+03
 0.75039472533E+03 0.75039472533E+03 0.70683210999E+03 0.58995672602E+03 0.43414656111E+03
 0.27857999461E+03 0.15320148462E+03 0.72044604710E+02 0.32746097488E+02 0.20018141048E+02
 0.14800357493E+02 0.11424402659E+02 0.93818367407E+01 0.82240157701E+01 0.76492220702E+01
 0.72979609007E+01 0.69752279420E+01 0.68208360601E+01 0.69752279420E+01 0.72979609007E+01
 0.76492220702E+01 0.82240157701E+01 0.93818367407E+01 0.11424402659E+02 0.14800357493E+02
 0.20018141048E+02 0.32746097488E+02 0.72044604710E+02 0.15320148462E+03 0.27857999461E+03
 0.43414656111E+03 0.58995672602E+03 0.70683210999E+03 0.62690574441E+03 0.58995672602E+03
 0.49087880677E+03 0.35908351412E+03 0.22830092462E+03 0.12434374946E+03 0.58853616102E+02
 0.28624606443E+02 0.19037017090E+02 0.14270745531E+02 0.11237473752E+02 0.94243236419E+01
 0.84000981826E+01 0.78860422969E+01 0.75738447182E+01 0.72979609007E+01 0.71684284143E+01
 0.72979609007E+01 0.75738447182E+01 0.78860422969E+01 0.84000981826E+01 0.94243236419E+01
 0.11237473752E+02 0.14270745531E+02 0.19037017090E+02 0.28624606443E+02 0.58853616102E+02
 0.12434374946E+03 0.22830092462E+03 0.35908351412E+03 0.49087880677E+03 0.58995672602E+03
 0.46220079651E+03 0.43414656111E+03 0.35908351412E+03 0.25985414553E+03 0.16278112885E+03
 0.87810088450E+02 0.43045447037E+02 0.24093671836E+02 0.17618950039E+02 0.13538109751E+02
 0.11004244628E+02 0.95013116356E+01 0.86378909565E+01 0.81764241976E+01 0.78860422969E+01
 0.76492220702E+01 0.75439374864E+01 0.76492220702E+01 0.78860422969E+01 0.81764241976E+01
 0.86378909565E+01 0.95013116356E+01 0.11004244628E+02 0.13538109751E+02 0.17618950039E+02
 0.24093671836E+02 0.43045447037E+02 0.87810088450E+02 0.16278112885E+03 0.25985414553E+03
 0.35908351412E+03 0.43414656111E+03 0.29748061295E+03 0.27857999461E+03 0.22830092462E+03
 0.16278112885E+03 0.10050706996E+03 0.54923029098E+02 0.30135860430E+02 0.20646807482E+02
 0.15991843130E+02 0.12776666573E+02 0.10828654655E+02 0.96822930012E+01 0.90137893859E+01
 0.86378909565E+01 0.84000981826E+01 0.82240157701E+01 0.81506205146E+01 0.82240157701E+01
 0.84000981826E+01 0.86378909565E+01 0.90137893859E+01 0.96822930012E+01 0.10828654655E+02
 0.12776666573E+02 0.15991843130E+02 0.20646807482E+02 0.30135860430E+02 0.54923029098E+02
 0.10050706996E+03 0.16278112885E+03 0.22830092462E+03 0.27857999461E+03 0.16418540278E+03
 0.15320148462E+03 0.12434374946E+03 0.87810088450E+02 0.54923029098E+02 0.33029369581E+02
 0.22630412120E+02 0.17915537136E+02 0.14435596388E+02 0.12153887251E+02 0.10820979177E+02
 0.10076390158E+02 0.96822930012E+01 0.95013116356E+01 0.94243236419E+01 0.93818367407E+01
 0.93646817576E+01 0.93818367407E+01 0.94243236419E+01 0.95013116356E+01 0.96822930012E+01
 0.10076390158E+02 0.10820979177E+02 0.12153887251E+02 0.14435596388E+02 0.17915537136E+02
 0.22630412120E+02 0.33029369581E+02 0.54923029098E+02 0.87810088450E+02 0.12434374946E+03
 0.15320148462E+03 0.77189201827E+02 0.72044604710E+02 0.58853616102E+02 0.43045447037E+02
 0.30135860430E+02 0.22630412120E+02 0.18635691882E+02 0.15463937851E+02 0.13188600912E+02
 0.11805442909E+02 0.11093871920E+02 0.10820979177E+02 0.10828654655E+02 0.11004244628E+02
 0.11237473752E+02 0.11424402659E+02 0.11494616563E+02 0.11424402659E+02 0.11237473752E+02
 0.11004244628E+02 0.10828654655E+02 0.10820979177E+02 0.11093871920E+02 0.11805442909E+02
 0.13188600912E+02 0.15463937851E+02 0.18635691882E+02 0.22630412120E+02 0.30135860430E+02
 0.43045447037E+02 0.58853616102E+02 0.72044604710E+02 0.34425225436E+02 0.32746097488E+02
 0.28624606443E+02 0.24093671836E+02 0.20646807482E+02 0.17915537136E+02 0.15463937851E+02
 0.13587494472E+02 0.12399668587E+02 0.11846650333E+02 0.11805442909E+02 0.12153887251E+02
 0.12776666573E+02 0.13538109751E+02 0.14270745531E+02 0.14800357493E+02 0.14993558359E+02
 0.14800357493E+02 0.14270745531E+02 0.13538109751E+02 0.12776666573E+02 0.12153887251E+02
 0.11805442909E+02 0.11846650333E+02 0.12399668587E+02 0.13587494472E+02 0.15463937851E+02
 0.17915537136E+02 0.20646807482E+02 0.24093671836E+02 0.28624606443E+02 0.32746097488E+02
 0.20387708177E+02 0.20018141048E+02 0.19037017090E+02 0.17618950039E+02 0.15991843130E+02
 0.14435596388E+02 0.13188600912E+02 0.12399668587E+02 0.12131974522E+02 0.12399668587E+02
 0.13188600912E+02 0.14435596388E+02 0.15991843130E+02 0.17618950039E+02 0.19037017090E+02
 0.20018141048E+02 0.20387708177E+02 0.20018141048E+02 0.19037017090E+02 0.17618950039E+02
 0.15991843130E+02 0.14435596388E+02 0.13188600912E+02 0.12399668587E+02 0.12131974522E+02
 0.12399668587E+02 0.13188600912E+02 0.14435596388E+02 0.15991843130E+02 0.17618950039E+02
 0.19037017090E+02 0.20018141048E+02 0.14993558359E+02 0.14800357493E+02 0.14270745531E+02
 0.13538109751E+02 0.12776666573E+02 0.12153887251E+02 0.11805442909E+02 0.11846650333E+02
 0.12399668587E+02 0.13587494472E+02 0.15463937851E+02 0.17915537136E+02 0.20646807482E+02
 0.24093671836E+02 0.28624606443E+02 0.32746097488E+02 0.34425225436E+02 0.32746097488E+02
 0.28624606443E+02 0.24093671836E+02 0.20646807482E+02 0.17915537136E+02 0.15463937851E+02
 0.13587494472E+02 0.12399668587E+02 0.11846650333E+02 0.11805442909E+02 0.12153887251E+02
 0.12776666573E+02 0.13538109751E+02 0.14270745531E+02 0.14800357493E+02 0.11494616563E+02
 0.11424402659E+02 0.11237473752E+02 0.11004244628E+02 0.10828654655E+02 0.10820979177E+02
 0.11093871920E+02 0.11805442909E+02 0.13188600912E+02 0.15463937851E+02 0.18635691882E+02
 0.22630412120E+02 0.30135860430E+02 0.43045447037E+02 0.58853616102E+02 0.72044604710E+02
 0.77189201827E+02 0.72044604710E+02 0.58853616102E+02 0.43045447037E+02 0.30135860430E+02
 0.22630412120E+02 0.18635691882E+02 0.15463937851E+02 0.13188600912E+02 0.11805442909E+02
 0.11093871920E+02 0.10820979177E+02 0.10828654655E+02 0.11004244628E+02 0.11237473752E+02
 0.11424402659E+02 0.93646817576E+01 0.93818367407E+01 0.94243236419E+01 0.95013116356E+01
 0.96822930012E+01 0.10076390158E+02 0.10820979177E+02 0.12153887251E+02 0.14435596388E+02
 0.17915537136E+02 0.22630412120E+02 0.33029369581E+02 0.54923029098E+02 0.87810088450E+02
 0.12434374946E+03 0.15320148462E+03 0.16418540278E+03 0.15320148462E+03 0.12434374946E+03
 0.87810088450E+02 0.54923029098E+02 0.33029369581E+02 0.22630412120E+02 0.17915537136E+02
 0.14435596388E+02 0.12153887251E+02 0.10820979177E+02 0.10076390158E+02 0.96822930012E+01
 0.95013116356E+01 0.94243236419E+01 0.93818367407E+01 0.81506205146E+01 0.82240157701E+01
 0.84000981826E+01 0.86378909565E+01 0.90137893859E+01 0.96822930012E+01 0.10828654655E+02
 0.12776666573E+02 0.15991843130E+02 0.20646807482E+02 0.30135860430E+02 0.54923029098E+02
 0.10050706996E+03 0.16278112885E+03 0.22830092462E+03 0.27857999461E+03 0.29748061295E+03
 0.27857999461E+03 0.22830092462E+03 0.16278112885E+03 0.10050706996E+03 0.54923029098E+02
 0.30135860430E+02 0.20646807482E+02 0.15991843130E+02 0.12776666573E+02 0.10828654655E+02
 0.96822930012E+01 0.90137893859E+01 0.86378909565E+01 0.84000981826E+01 0.82240157701E+01
 0.75439374864E+01 0.76492220702E+01 0.78860422969E+01 0.81764241976E+01 0.86378909565E+01
 0.95013116356E+01 0.11004244628E+02 0.13538109751E+02 0.17618950039E+02 0.24093671836E+02
 0.43045447037E+02 0.87810088450E+02 0.16278112885E+03 0.25985414553E+03 0.35908351412E+03
 0.43414656111E+03 0.46220079651E+03 0.43414656111E+03 0.35908351412E+03 0.25985414553E+03
 0.16278112885E+03 0.87810088450E+02 0.43045447037E+02 0.24093671836E+02 0.17618950039E+02
 0.13538109751E+02 0.11004244628E+02 0.95013116356E+01 0.86378909565E+01 0.81764241976E+01
 0.78860422969E+01 0.76492220702E+01 0.71684284143E+01 0.72979609007E+01 0.75738447182E+01
 0.78860422969E+01 0.84000981826E+01 0.94243236419E+01 0.11237473752E+02 0.14270745531E+02
 0.19037017090E+02 0.28624606443E+02 0.58853616102E+02 0.12434374946E+03 0.22830092462E+03
 0.35908351412E+03 0.49087880677E+03 0.58995672602E+03 0.62690574441E+03 0.58995672602E+03
 0.49087880677E+03 0.35908351412E+03 0.22830092462E+03 0.12434374946E+03 0.58853616102E+02
 0.28624606443E+02 0.19037017090E+02 0.14270745531E+02 0.11237473752E+02 0.94243236419E+01
 0.84000981826E+01 0.78860422969E+01 0.75738447182E+01 0.72979609007E+01 0.68208360601E+01
 0.69752279420E+01 0.72979609007E+01 0.76492220702E+01 0.82240157701E+01 0.93818367407E+01
 0.11424402659E+02 0.14800357493E+02 0.20018141048E+02 0.32746097488E+02 0.72044604710E+02
 0.15320148462E+03 0.27857999461E+03 0.43414656111E+03 0.58995672602E+03 0.70683210999E+03
 0.75039472533E+03 0.70683210999E+03 0.58995672602E+03 0.43414656111E+03 0.27857999461E+03
 0.15320148462E+03 0.72044604710E+02 0.32746097488E+02 0.20018141048E+02 0.14800357493E+02
 0.11424402659E+02 0.93818367407E+01 0.82240157701E+01 0.76492220702E+01 0.72979609007E+01
 0.69752279420E+01 0.66543986930E+01 0.68208360601E+01 0.71684284143E+01 0.75439374864E+01
 0.81506205146E+01 0.93646817576E+01 0.11494616563E+02 0.14993558359E+02 0.20387708177E+02
 0.34425225436E+02 0.77189201827E+02 0.16418540278E+03 0.29748061295E+03 0.46220079651E+03
 0.62690574441E+03 0.75039472533E+03 0.79641986272E+03 0.75039472533E+03 0.62690574441E+03
 0.46220079651E+03 0.29748061295E+03 0.16418540278E+03 0.77189201827E+02 0.34425225436E+02
 0.20387708177E+02 0.14993558359E+02 0.11494616563E+02 0.93646817576E+01 0.81506205146E+01
 0.75439374864E+01 0.71684284143E+01 0.68208360601E+01 0.68208360601E+01 0.69752279420E+01
 0.72979609007E+01 0.76492220702E+01 0.82240157701E+01 0.93818367407E+01 0.11424402659E+02
 0.14800357493E+02 0.20018141048E+02 0.32746097488E+02 0.72044604710E+02 0.15320148462E+03
 0.27857999461E+03 0.43414656111E+03 0.58995672602E+03 0.70683210999E+03 0.75039472533E+03
 0.70683210999E+03 0.58995672602E+03 0.43414656111E+03 0.27857999461E+03 0.15320148462E+03
 0.72044604710E+02 0.32746097488E+02 0.20018141048E+02 0.14800357493E+02 0.11424402659E+02
 0.93818367407E+01 0.82240157701E+01 0.76492220702E+01 0.72979609007E+01 0.69752279420E+01
 0.71684284143E+01 0.72979609007E+01 0.75738447182E+01 0.78860422969E+01 0.84000981826E+01
 0.94243236419E+01 0.11237473752E+02 0.14270745531E+02 0.19037017090E+02 0.28624606443E+02
 0.58853616102E+02 0.12434374946E+03 0.22830092462E+03 0.35908351412E+03 0.49087880677E+03
 0.58995672602E+03 0.62690574441E+03 0.58995672602E+03 0.49087880677E+03 0.35908351412E+03
 0.22830092462E+03 0.12434374946E+03 0.58853616102E+02 0.28624606443E+02 0.19037017090E+02