   4   4   0   0
  0.1200752E+02  0.3635000E-09  0.3635000E-09  0.3635000E-09  0.5000000E-15
  1.000000000000000E-004
  CAR 
 unknown system                          
     27.68297696     -3.84433014  301      7.24286323      1.00000000
     -3.844  0.0000E+00  0.0000E+00
     -3.739  0.0000E+00  0.0000E+00
     -3.634  0.0000E+00  0.0000E+00
     -3.529 -0.5520E-31 -0.5801E-32
     -3.424 -0.2745E-27 -0.2885E-28
     -3.319 -0.7824E-24 -0.8226E-25
     -3.214 -0.1277E-20 -0.1343E-21
     -3.109 -0.1193E-17 -0.1255E-18
     -3.004 -0.6198E-15 -0.6526E-16
     -2.899 -0.1871E-12 -0.1972E-13
     -2.793 -0.3217E-10 -0.3400E-11
     -2.688 -0.3128E-08 -0.3321E-09
     -2.583 -0.1709E-06 -0.1829E-07
     -2.478 -0.5181E-05 -0.5628E-06
     -2.373 -0.8527E-04 -0.9523E-05
     -2.268 -0.7250E-03 -0.8572E-04
     -2.163 -0.2748E-02 -0.3745E-03
     -2.058 -0.1127E-02 -0.4929E-03
     -1.953  0.2098E-01  0.1711E-02
     -1.848  0.5610E-01  0.7607E-02
     -1.743  0.5013E-01  0.1288E-01
     -1.637  0.3492E-02  0.1324E-01
     -1.532  0.3369E-01  0.1678E-01
     -1.427  0.2293E+00  0.4088E-01
     -1.322  0.3801E+00  0.8082E-01
     -1.217  0.2309E+00  0.1051E+00
     -1.112  0.4447E-01  0.1098E+00
     -1.007  0.2521E+00  0.1363E+00
     -0.902  0.6898E+00  0.2087E+00
     -0.797  0.6774E+00  0.2799E+00
     -0.692  0.2413E+00  0.3053E+00
     -0.587  0.1032E+00  0.3161E+00
     -0.481  0.3752E+00  0.3556E+00
     -0.376  0.4864E+00  0.4067E+00
     -0.271  0.2285E+00  0.4307E+00
     -0.166  0.6389E-01  0.4374E+00
     -0.061  0.2234E+00  0.4609E+00
      0.044  0.3406E+00  0.4967E+00
      0.149  0.1632E+00  0.5138E+00
      0.254  0.2260E+00  0.5376E+00
      0.359  0.9866E+00  0.6413E+00
      0.464  0.1490E+01  0.7978E+00
      0.569  0.9375E+00  0.8963E+00
      0.675  0.6433E+00  0.9639E+00
      0.780  0.1287E+01  0.1099E+01
      0.885  0.1397E+01  0.1246E+01
      0.990  0.5752E+00  0.1306E+01
      1.095 -0.1188E-01  0.1305E+01
      1.200 -0.9698E-01  0.1295E+01
      1.305 -0.7002E-01  0.1288E+01
      1.410  0.7172E-01  0.1295E+01
      1.515  0.5110E+00  0.1349E+01
      1.620  0.1215E+01  0.1477E+01
      1.725  0.1924E+01  0.1679E+01
      1.831  0.1817E+01  0.1870E+01
      1.936  0.9957E+00  0.1974E+01
      2.041  0.1125E+01  0.2093E+01
      2.146  0.2015E+01  0.2304E+01
      2.251  0.2197E+01  0.2535E+01
      2.356  0.1767E+01  0.2721E+01
      2.461  0.1465E+01  0.2875E+01
      2.566  0.2165E+01  0.3102E+01
      2.671  0.4121E+01  0.3535E+01
      2.776  0.6219E+01  0.4189E+01
      2.881  0.6712E+01  0.4894E+01
      2.987  0.5579E+01  0.5481E+01
      3.092  0.4441E+01  0.5948E+01
      3.197  0.5557E+01  0.6532E+01
      3.302  0.9248E+01  0.7503E+01
      3.407  0.1069E+02  0.8627E+01
      3.512  0.9138E+01  0.9587E+01
      3.617  0.9183E+01  0.1055E+02
      3.722  0.9205E+01  0.1152E+02
      3.827  0.7276E+01  0.1228E+02
      3.932  0.7591E+01  0.1308E+02
      4.037  0.1075E+02  0.1421E+02
      4.143  0.1328E+02  0.1561E+02
      4.248  0.1539E+02  0.1722E+02
      4.353  0.1678E+02  0.1899E+02
      4.458  0.1649E+02  0.2072E+02
      4.563  0.1522E+02  0.2232E+02
      4.668  0.1283E+02  0.2367E+02
      4.773  0.1124E+02  0.2485E+02
      4.878  0.1229E+02  0.2614E+02
      4.983  0.1421E+02  0.2763E+02
      5.088  0.1413E+02  0.2912E+02
      5.193  0.1434E+02  0.3063E+02
      5.299  0.1640E+02  0.3235E+02
      5.404  0.1473E+02  0.3390E+02
      5.509  0.1157E+02  0.3511E+02
      5.614  0.1454E+02  0.3664E+02
      5.719  0.1954E+02  0.3869E+02
      5.824  0.1753E+02  0.4054E+02
      5.929  0.1022E+02  0.4161E+02
      6.034  0.5048E+01  0.4214E+02
      6.139  0.3086E+01  0.4247E+02
      6.244  0.2191E+01  0.4270E+02
      6.349  0.1336E+01  0.4284E+02
      6.455  0.4046E+00  0.4288E+02
      6.560 -0.7746E-01  0.4287E+02
      6.665 -0.5525E-01  0.4287E+02
      6.770  0.1275E+00  0.4288E+02
      6.875  0.1404E+00  0.4289E+02
      6.980  0.3362E+00  0.4293E+02
      7.085  0.2234E+01  0.4316E+02
      7.190  0.5110E+01  0.4370E+02
      7.295  0.5207E+01  0.4425E+02
      7.400  0.2418E+01  0.4450E+02
      7.506  0.2154E+00  0.4452E+02
      7.611 -0.2807E+00  0.4450E+02
      7.716  0.2050E+00  0.4452E+02
      7.821  0.1167E+01  0.4464E+02
      7.926  0.1532E+01  0.4480E+02
      8.031  0.7886E+00  0.4488E+02
      8.136  0.2182E-01  0.4489E+02
      8.241 -0.1464E+00  0.4487E+02
      8.346  0.2587E+00  0.4490E+02
      8.451  0.1127E+01  0.4502E+02
      8.556  0.1426E+01  0.4517E+02
      8.662  0.8896E+00  0.4526E+02
      8.767  0.1170E+01  0.4538E+02
      8.872  0.2226E+01  0.4562E+02
      8.977  0.2022E+01  0.4583E+02
      9.082  0.7164E+00  0.4590E+02
      9.187 -0.7396E-01  0.4590E+02
      9.292 -0.1740E+00  0.4588E+02
      9.397  0.1430E+00  0.4589E+02
      9.502  0.9162E+00  0.4599E+02
      9.607  0.1414E+01  0.4614E+02
      9.712  0.1565E+01  0.4630E+02
      9.818  0.2663E+01  0.4658E+02
      9.923  0.3504E+01  0.4695E+02
     10.028  0.2302E+01  0.4719E+02
     10.133  0.5938E+00  0.4725E+02
     10.238 -0.8540E-01  0.4725E+02
     10.343 -0.9934E-01  0.4723E+02
     10.448 -0.4217E-01  0.4723E+02
     10.553 -0.4316E-01  0.4723E+02
     10.658  0.4085E-01  0.4723E+02
     10.763  0.4107E+00  0.4727E+02
     10.868  0.7703E+00  0.4735E+02
     10.974  0.5795E+00  0.4742E+02
     11.079  0.1211E+00  0.4743E+02
     11.184 -0.1085E+00  0.4742E+02
     11.289 -0.1825E-01  0.4741E+02
     11.394  0.5988E+00  0.4748E+02
     11.499  0.1386E+01  0.4762E+02
     11.604  0.1486E+01  0.4778E+02
     11.709  0.1458E+01  0.4793E+02
     11.814  0.1889E+01  0.4813E+02
     11.919  0.2086E+01  0.4835E+02
     12.024  0.1647E+01  0.4852E+02
     12.130  0.9799E+00  0.4863E+02
     12.235  0.6132E+00  0.4869E+02
     12.340  0.7682E+00  0.4877E+02
     12.445  0.2000E+01  0.4898E+02
     12.550  0.3022E+01  0.4930E+02
     12.655  0.2006E+01  0.4951E+02
     12.760  0.8597E+00  0.4960E+02
     12.865  0.1194E+01  0.4973E+02
     12.970  0.1330E+01  0.4987E+02
     13.075  0.6098E+00  0.4993E+02
     13.180  0.2838E+00  0.4996E+02
     13.286  0.4460E+00  0.5001E+02
     13.391  0.3483E+00  0.5004E+02
     13.496  0.3961E-01  0.5005E+02
     13.601 -0.1683E+00  0.5003E+02
     13.706 -0.6534E-02  0.5003E+02
     13.811  0.1232E+01  0.5016E+02
     13.916  0.2912E+01  0.5046E+02
     14.021  0.2669E+01  0.5074E+02
     14.126  0.8749E+00  0.5084E+02
     14.231 -0.1287E+00  0.5082E+02
     14.336 -0.2755E-01  0.5082E+02
     14.442  0.7146E+00  0.5090E+02
     14.547  0.1754E+01  0.5108E+02
     14.652  0.2018E+01  0.5129E+02
     14.757  0.1171E+01  0.5141E+02
     14.862  0.6556E+00  0.5148E+02
     14.967  0.1155E+01  0.5161E+02
     15.072  0.1504E+01  0.5176E+02
     15.177  0.1554E+01  0.5193E+02
     15.282  0.1902E+01  0.5213E+02
     15.387  0.2006E+01  0.5234E+02
     15.492  0.2409E+01  0.5259E+02
     15.598  0.3082E+01  0.5291E+02
     15.703  0.2159E+01  0.5314E+02
     15.808  0.4365E+00  0.5319E+02
     15.913 -0.1837E+00  0.5317E+02
     16.018  0.3627E+00  0.5321E+02
     16.123  0.1312E+01  0.5334E+02
     16.228  0.1400E+01  0.5349E+02
     16.333  0.5886E+00  0.5355E+02
     16.438  0.3385E+00  0.5359E+02
     16.543  0.9139E+00  0.5368E+02
     16.648  0.1355E+01  0.5383E+02
     16.754  0.1501E+01  0.5398E+02
     16.859  0.1755E+01  0.5417E+02
     16.964  0.2001E+01  0.5438E+02
     17.069  0.2270E+01  0.5462E+02
     17.174  0.2347E+01  0.5486E+02
     17.279  0.1725E+01  0.5505E+02
     17.384  0.8004E+00  0.5513E+02
     17.489  0.2758E+00  0.5516E+02
     17.594  0.2850E+00  0.5519E+02
     17.699  0.9264E+00  0.5529E+02
     17.804  0.1429E+01  0.5544E+02
     17.910  0.1008E+01  0.5554E+02
     18.015  0.1031E+01  0.5565E+02
     18.120  0.2193E+01  0.5588E+02
     18.225  0.2849E+01  0.5618E+02
     18.330  0.2196E+01  0.5641E+02
     18.435  0.9446E+00  0.5651E+02
     18.540  0.3643E+00  0.5655E+02
     18.645  0.1215E+01  0.5668E+02
     18.750  0.2427E+01  0.5693E+02
     18.855  0.2458E+01  0.5719E+02
     18.960  0.1448E+01  0.5734E+02
     19.066  0.1504E+01  0.5750E+02
     19.171  0.3463E+01  0.5786E+02
     19.276  0.4254E+01  0.5831E+02
     19.381  0.2264E+01  0.5855E+02
     19.486  0.2638E+00  0.5858E+02
     19.591 -0.2094E+00  0.5856E+02
     19.696 -0.8955E-01  0.5855E+02
     19.801 -0.2079E-01  0.5854E+02
     19.906 -0.4129E-01  0.5854E+02
     20.011 -0.1077E+00  0.5853E+02
     20.116  0.5477E-01  0.5853E+02
     20.222  0.9709E+00  0.5864E+02
     20.327  0.2310E+01  0.5888E+02
     20.432  0.2690E+01  0.5916E+02
     20.537  0.1663E+01  0.5934E+02
     20.642  0.4109E+00  0.5938E+02
     20.747 -0.8515E-01  0.5937E+02
     20.852 -0.7557E-01  0.5936E+02
     20.957 -0.1775E-01  0.5936E+02
     21.062 -0.1985E-02  0.5936E+02
     21.167 -0.1170E-03  0.5936E+02
     21.272 -0.3778E-05  0.5936E+02
     21.378 -0.6798E-07  0.5936E+02
     21.483 -0.3044E-08  0.5936E+02
     21.588 -0.2005E-06  0.5936E+02
     21.693 -0.9563E-05  0.5936E+02
     21.798 -0.2522E-03  0.5936E+02
     21.903 -0.3581E-02  0.5936E+02
     22.008 -0.2575E-01  0.5936E+02
     22.113 -0.7617E-01  0.5935E+02
     22.218  0.3837E-01  0.5935E+02
     22.323  0.7149E+00  0.5943E+02
     22.428  0.1505E+01  0.5959E+02
     22.534  0.1259E+01  0.5972E+02
     22.639  0.3694E+00  0.5976E+02
     22.744 -0.5609E-01  0.5975E+02
     22.849 -0.5651E-01  0.5975E+02
     22.954 -0.1271E-01  0.5974E+02
     23.059 -0.1328E-02  0.5974E+02
     23.164 -0.7255E-04  0.5974E+02
     23.269 -0.2162E-05  0.5974E+02
     23.374 -0.3585E-07  0.5974E+02
     23.479 -0.3344E-09  0.5974E+02
     23.584 -0.1765E-11  0.5974E+02
     23.690 -0.5679E-14  0.5974E+02
     23.795  0.0000E+00  0.5974E+02
     23.900  0.0000E+00  0.5974E+02
     24.005 -0.1525E-29  0.5974E+02
     24.110 -0.7325E-26  0.5974E+02
     24.215 -0.2017E-22  0.5974E+02
     24.320 -0.3179E-19  0.5974E+02
     24.425 -0.2868E-16  0.5974E+02
     24.530 -0.1438E-13  0.5974E+02
     24.635 -0.4192E-11  0.5974E+02
     24.740 -0.6958E-09  0.5974E+02
     24.846 -0.6530E-07  0.5974E+02
     24.951 -0.3440E-05  0.5974E+02
     25.056 -0.1005E-03  0.5974E+02
     25.161 -0.1590E-02  0.5974E+02
     25.266 -0.1294E-01  0.5974E+02
     25.371 -0.4606E-01  0.5974E+02
     25.476 -0.8368E-02  0.5974E+02
     25.581  0.3734E+00  0.5978E+02
     25.686  0.9473E+00  0.5988E+02
     25.791  0.9217E+00  0.5997E+02
     25.896  0.3376E+00  0.6001E+02
     26.002 -0.1795E-01  0.6001E+02
     26.107 -0.4396E-01  0.6000E+02
     26.212 -0.1160E-01  0.6000E+02
     26.317 -0.1364E-02  0.6000E+02
     26.422 -0.8290E-04  0.6000E+02
     26.527 -0.2734E-05  0.6000E+02
     26.632 -0.5005E-07  0.6000E+02
     26.737 -0.5147E-09  0.6000E+02
     26.842 -0.2993E-11  0.6000E+02
     26.947 -0.9736E-14  0.6000E+02
     27.052  0.0000E+00  0.6000E+02
     27.158  0.0000E+00  0.6000E+02
     27.263  0.0000E+00  0.6000E+02
     27.368  0.0000E+00  0.6000E+02
     27.473  0.0000E+00  0.6000E+02
     27.578  0.0000E+00  0.6000E+02
     27.683  0.0000E+00  0.6000E+02
