    4    4    1    1
  0.1200752E+02  0.3635000E-09  0.3635000E-09  0.3635000E-09  0.5000000E-15
  1.000000000000000E-004
  CAR 
 unknown system                          
     44     10     30
 
  0.0000000E+00  0.0000000E+00  0.0000000E+00  0.8000000E-02
    1       -1.844330   1.000000
    2        2.603671   1.000000
    3        2.603671   1.000000
    4        2.603671   1.000000
    5        3.049976   1.000000
    6        3.049976   1.000000
    7        3.049976   1.000000
    8        4.410096   1.000000
    9        4.410096   1.000000
   10        4.410096   1.000000
   11        5.217092   1.000000
   12        5.217092   1.000000
   13        5.747777   1.000000
   14        5.747777   1.000000
   15        5.747777   1.000000
   16        5.900317   1.000000
   17        5.900317   1.000000
   18        5.900317   1.000000
   19        5.900317   1.000000
   20        5.900317   1.000000
   21        5.900317   1.000000
   22        8.892602  -0.000000
   23        8.892602  -0.000000
   24        8.892602  -0.000000
   25       14.381458   0.000000
   26       14.381458   0.000000
   27       14.381458   0.000000
   28       20.334632   0.000000
   29       20.334632   0.000000
   30       20.334632   0.000000
 
  0.2000000E+00  0.0000000E+00  0.0000000E+00  0.4800000E-01
    1       -1.367539   1.000000
    2        2.558526   1.000000
    3        2.815408   1.000000
    4        2.815408   1.000000
    5        3.173602   1.000000
    6        3.184941   1.000000
    7        3.184941   1.000000
    8        4.272307   1.000000
    9        4.519354   1.000000
   10        4.519354   1.000000
   11        5.092416   1.000000
   12        5.256909   1.000000
   13        5.256909   1.000000
   14        5.267109   1.000000
   15        5.591180   1.000000
   16        5.591180   1.000000
   17        5.695856   1.000000
   18        5.717037   1.000000
   19        5.717037   1.000000
   20        5.902300   1.000000
   21        5.902300   1.000000
   22        6.830968   1.006566
   23        9.969187  -0.000000
   24        9.969187  -0.000000
   25       14.566111   0.000000
   26       14.566111   0.000000
   27       17.425244   0.000000
   28       18.088714   0.000000
   29       18.088714   0.000000
   30       18.752746   0.000000
 
  0.4000000E+00  0.0000000E+00  0.0000000E+00  0.4800000E-01
    1       -0.011756   1.000000
    2        1.763582   1.000000
    3        3.238467   1.000000
    4        3.238467   1.000000
    5        3.503267   1.000000
    6        3.597748   1.000000
    7        3.597748   1.000000
    8        3.922285   1.000000
    9        4.306875   1.000000
   10        4.306875   1.000000
   11        4.829167   1.000000
   12        4.835325   1.000000
   13        4.835325   1.000000
   14        4.948715   1.000000
   15        5.248861   1.000000
   16        5.248861   1.000000
   17        5.287401   1.000000
   18        5.287401   1.000000
   19        5.399149   1.000000
   20        5.561045   1.000000
   21        5.902210   1.000000
   22        5.902210   1.000000
   23       12.192382  -0.000000
   24       12.192382  -0.000000
   25       14.966907   0.000000
   26       14.966907   0.000000
   27       15.205361   0.000000
   28       15.205361   0.000000
   29       16.637015   0.000000
   30       16.637015   0.000000
 
  0.2000000E+00  0.2000000E+00  0.0000000E+00  0.9600000E-01
    1       -0.902979   1.000000
    2        2.801422   1.000000
    3        2.801422   1.000000
    4        2.997048   1.000000
    5        3.290329   1.000000
    6        3.293504   1.000000
    7        3.293504   1.000000
    8        4.214451   1.000000
    9        4.559831   1.000000
   10        4.569341   1.000000
   11        4.930921   1.000000
   12        4.930921   1.000000
   13        4.949395   1.000000
   14        5.071549   1.000000
   15        5.285058   1.000000
   16        5.467253   1.000000
   17        5.584293   1.000000
   18        5.584293   1.000000
   19        5.715373   1.000000
   20        5.715373   1.000000
   21        5.779204   1.000000
   22        7.851343  -0.000074
   23        7.851343  -0.000074
   24       10.835376  -0.000000
   25       14.522012   0.000000
   26       14.990641   0.000000
   27       17.756737   0.000000
   28       17.756737   0.000000
   29       18.676380   0.000000
   30       18.676380   0.000000
 
  0.4000000E+00  0.2000000E+00  0.0000000E+00  0.1920000E+00
    1        0.408954   1.000000
    2        2.095196   1.000000
    3        3.322790   1.000000
    4        3.403042   1.000000
    5        3.551799   1.000000
    6        3.581817   1.000000
    7        3.657996   1.000000
    8        3.942364   1.000000
    9        4.076444   1.000000
   10        4.257384   1.000000
   11        4.460140   1.000000
   12        4.563236   1.000000
   13        4.846364   1.000000
   14        5.011242   1.000000
   15        5.195366   1.000000
   16        5.254295   1.000000
   17        5.285311   1.000000
   18        5.343982   1.000000
   19        5.529699   1.000000
   20        5.713466   1.000000
   21        5.719152   1.000000
   22        6.062913   1.000000
   23        9.551215  -0.000000
   24       11.751219  -0.000000
   25       12.872010   0.000000
   26       15.558761   0.000000
   27       15.562252   0.000000
   28       17.030396   0.000000
   29       18.843143   0.000000
   30       20.282801   0.000000
 
  0.4000000E+00  0.4000000E+00  0.0000000E+00  0.9600000E-01
    1        1.548375   1.000000
    2        2.861572   1.000000
    3        2.861572   1.000000
    4        3.376734   1.000000
    5        3.791588   1.000000
    6        3.801147   1.000000
    7        3.801147   1.000000
    8        3.925914   1.000000
    9        4.063593   1.000000
   10        4.063593   1.000000
   11        4.076029   1.000000
   12        4.393780   1.000000
   13        4.882937   1.000000
   14        4.971652   1.000000
   15        5.014230   1.000000
   16        5.065160   1.000000
   17        5.065160   1.000000
   18        5.307253   1.000000
   19        5.307253   1.000000
   20        5.435272   1.000000
   21        6.060651   1.000000
   22        7.146355   0.860358
   23        7.146355   0.860358
   24        8.902739  -0.000000
   25       14.652796   0.000000
   26       16.521531   0.000000
   27       17.187403   0.000000
   28       17.187403   0.000000
   29       18.288864   0.000000
   30       18.288864   0.000000
 
  0.2000000E+00  0.2000000E+00  0.2000000E+00  0.6400000E-01
    1       -0.456664   1.000000
    2        2.975463   1.000000
    3        2.975463   1.000000
    4        2.975463   1.000000
    5        3.400475   1.000000
    6        3.400475   1.000000
    7        3.400475   1.000000
    8        4.193327   1.000000
    9        4.564412   1.000000
   10        4.564412   1.000000
   11        4.694791   1.000000
   12        4.694791   1.000000
   13        4.694791   1.000000
   14        5.211159   1.000000
   15        5.211159   1.000000
   16        5.255078   1.000000
   17        5.255078   1.000000
   18        5.255078   1.000000
   19        5.817074   1.000000
   20        5.817074   1.000000
   21        5.817074   1.000000
   22        8.483399  -0.000000
   23        8.483399  -0.000000
   24        8.483399  -0.000000
   25       15.300030   0.000000
   26       15.300030   0.000000
   27       15.300030   0.000000
   28       18.122400   0.000000
   29       18.122400   0.000000
   30       18.122400   0.000000
 
  0.4000000E+00  0.2000000E+00  0.2000000E+00  0.1920000E+00
    1        0.785581   1.000000
    2        2.318814   1.000000
    3        3.302321   1.000000
    4        3.302321   1.000000
    5        3.646305   1.000000
    6        3.646305   1.000000
    7        3.705440   1.000000
    8        4.016916   1.000000
    9        4.250361   1.000000
   10        4.250361   1.000000
   11        4.371976   1.000000
   12        4.520730   1.000000
   13        4.660438   1.000000
   14        4.913302   1.000000
   15        5.042645   1.000000
   16        5.042645   1.000000
   17        5.315732   1.000000
   18        5.489454   1.000000
   19        5.727638   1.000000
   20        5.733197   1.000000
   21        5.733197   1.000000
   22        6.248937   1.000000
   23        9.845925  -0.000000
   24        9.845925  -0.000000
   25       12.501167  -0.000000
   26       12.501167  -0.000000
   27       16.833399   0.000000
   28       19.141339   0.000000
   29       19.221611   0.000000
   30       19.221611   0.000000
 
  0.4000000E+00  0.4000000E+00  0.2000000E+00  0.1920000E+00
    1        1.744069   1.000000
    2        2.729227   1.000000
    3        2.729227   1.000000
    4        3.044437   1.000000
    5        3.950641   1.000000
    6        4.051989   1.000000
    7        4.051989   1.000000
    8        4.203243   1.000000
    9        4.278156   1.000000
   10        4.278156   1.000000
   11        4.419709   1.000000
   12        4.423477   1.000000
   13        4.581624   1.000000
   14        4.751514   1.000000
   15        4.751514   1.000000
   16        4.769345   1.000000
   17        5.337616   1.000000
   18        5.616329   1.000000
   19        5.616329   1.000000
   20        5.636245   1.000000
   21        5.940321   1.000000
   22        7.179683   0.753125
   23        7.179683   0.753125
   24        8.830538  -0.000000
   25       11.937078  -0.000000
   26       13.906016   0.000000
   27       13.906016   0.000000
   28       16.131977   0.000000
   29       20.425892   0.000000
   30       22.407253   0.000000
 
  0.4000000E+00  0.4000000E+00  0.4000000E+00  0.6400000E-01
    1        2.142662   1.000000
    2        2.569632   1.000000
    3        2.569632   1.000000
    4        2.569632   1.000000
    5        4.257835   1.000000
    6        4.257835   1.000000
    7        4.257835   1.000000
    8        4.422126   1.000000
    9        4.422126   1.000000
   10        4.495650   1.000000
   11        4.495650   1.000000
   12        4.495650   1.000000
   13        4.962897   1.000000
   14        4.962897   1.000000
   15        4.962897   1.000000
   16        5.182994   1.000000
   17        5.659336   1.000000
   18        5.659336   1.000000
   19        5.771426   1.000000
   20        5.771426   1.000000
   21        5.771426   1.000000
   22        7.281422   0.340158
   23        7.281422   0.340158
   24        7.281422   0.340158
   25       11.485098  -0.000000
   26       11.485098  -0.000000
   27       11.485098  -0.000000
   28       13.247476   0.000000
   29       25.682977   0.000000
   30       25.682977   0.000000
