unknown system                          
   1.00000000000000     
     2.376600    0.000000    0.000000
    -1.188300    2.058196    0.000000
     0.000000    0.000000    4.098360
   Fe
     2
Direct
  0.000000  0.000000  0.000000
  0.333333  0.666667  0.500000
 
   20   20   36
  168.27      159.11      134.56      101.82      68.866      41.667      23.122      13.223      9.5874      8.5416    
  8.1990      8.5420      9.5877      13.223      23.122      41.667      68.866      101.82      134.56      159.11    
  159.12      159.11      142.30      113.86      81.470      52.072      29.995      16.602      10.620      8.8484    
  8.1877      8.1869      8.8476      10.621      16.603      29.993      52.070      81.475      113.87      142.32    
  134.58      142.28      134.56      113.86      86.152      58.217      35.255      19.849      11.914      9.1363    
  8.2087      7.8904      8.2070      9.1359      11.915      19.849      35.250      58.213      86.156      113.87    
  101.81      113.78      113.79      101.82      81.470      58.217      37.225      21.841      13.018      9.4322    
  8.2503      7.6815      7.6809      8.2497      9.4329      13.020      21.840      37.220      58.209      81.462    
  68.849      81.358      86.004      81.372      68.866      52.072      35.255      21.841      13.454      9.6392    
  8.2909      7.5603      7.3186      7.5607      8.2912      9.6400      13.457      21.845      35.255      52.062    
  41.665      51.990      58.072      58.076      51.998      41.667      29.995      19.850      13.018      9.6391    
  8.3079      7.5084      7.1170      7.1177      7.5088      8.3063      9.6385      13.024      19.860      30.003    
  23.134      29.987      35.198      37.142      35.193      29.977      23.122      16.602      11.914      9.4319    
  8.2910      7.5085      7.0535      6.9106      7.0547      7.5074      8.2864      9.4275      11.915      16.611    
  13.222      16.642      19.894      21.871      21.866      19.883      16.633      13.223      10.620      9.1361    
  8.2503      7.5605      7.1168      6.9106      6.9115      7.1185      7.5600      8.2451      9.1268      10.612    
  9.5743      10.664      12.004      13.132      13.571      13.129      12.004      10.672      9.5876      8.8483    
  8.2086      7.6817      7.3185      7.1176      7.0549      7.1185      7.3219      7.6862      8.2084      8.8395    
  8.5414      8.8961      9.2340      9.5730      9.8049      9.8065      9.5786      9.2431      8.9040      8.5417    
  8.1875      7.8906      7.6810      7.5606      7.5090      7.5075      7.5597      7.6861      7.9009      8.1957    
  8.2111      8.2535      8.3213      8.4045      8.4777      8.5091      8.4823      8.4090      8.3202      8.2450    
  8.1990      8.1869      8.2072      8.2495      8.2910      8.3064      8.2862      8.2450      8.2087      8.1958    
  8.5410      8.2534      8.0163      7.8543      7.7689      7.7393      7.7405      7.7695      7.8490      8.0061    
  8.2457      8.5418      8.8477      9.1359      9.4326      9.6400      9.6386      9.4275      9.1271      8.8397    
  9.5740      8.8959      8.3217      7.8543      7.5377      7.3675      7.3160      7.3669      7.5344      7.8496    
  8.3215      8.9047      9.5876      10.621      11.915      13.020      13.457      13.024      11.915      10.612    
  13.222      10.664      9.2343      8.4046      7.7686      7.3675      7.1838      7.1831      7.3662      7.7693    
  8.4097      9.2432      10.672      13.223      16.603      19.849      21.840      21.845      19.860      16.611    
  23.134      16.642      12.004      9.5729      8.4775      7.7393      7.3163      7.1830      7.3147      7.7401    
  8.4823      9.5778      12.003      16.633      23.122      29.993      35.250      37.219      35.255      30.003    
  41.666      29.987      19.894      13.132      9.8050      8.5092      7.7407      7.3667      7.3660      7.7402    
  8.5106      9.8056      13.127      19.883      29.979      41.667      52.070      58.213      58.209      52.062    
  68.849      51.990      35.198      21.871      13.571      9.8065      8.4821      7.7694      7.5344      7.7695    
  8.4823      9.8055      13.568      21.867      35.198      52.000      68.866      81.476      86.157      81.462    
  101.81      81.358      58.072      37.142      21.866      13.128      9.5783      8.4091      7.8491      7.8496    
  8.4097      9.5776      13.127      21.867      37.147      58.080      81.367      101.82      113.88      113.87    
  134.58      113.78      86.005      58.076      35.193      19.882      12.004      9.2434      8.3204      8.0059    
  8.3213      9.2432      12.003      19.883      35.198      58.080      86.000      113.77      134.56      142.32    
  159.12      142.28      113.79      81.372      51.998      29.977      16.634      10.673      8.9040      8.2447    
  8.2455      8.9048      10.672      16.633      29.979      52.000      81.367      113.77      142.26      159.11    
  159.78      151.09      127.79      96.679      65.352      39.529      22.012      12.762      9.4190      8.4185    
  8.0849      8.4189      9.4193      12.762      22.011      39.529      65.352      96.679      127.79      151.09    
  151.10      151.09      135.14      108.12      77.325      49.386      28.474      15.890      10.352      8.7108    
  8.0667      8.0660      8.7101      10.353      15.891      28.473      49.385      77.329      108.13      135.15    
  127.80      135.12      127.79      108.12      81.772      55.214      33.435      18.915      11.528      8.9781    
  8.0817      7.7731      8.0801      8.9777      11.530      18.915      33.431      55.210      81.776      108.13    
  96.674      108.06      108.06      96.679      77.324      55.214      35.295      20.776      12.539      9.2411    
  8.1185      7.5675      7.5669      8.1178      9.2418      12.540      20.776      35.291      55.206      77.317    
  65.336      77.238      81.659      77.251      65.352      49.386      33.435      20.777      12.938      9.4245    
  8.1558      7.4485      7.2155      7.4489      8.1561      9.4252      12.941      20.781      33.435      49.377    
  39.528      49.334      55.116      55.120      49.341      39.529      28.474      18.916      12.539      9.4244    
  8.1716      7.3974      7.0207      7.0214      7.3979      8.1702      9.4239      12.544      18.926      28.482    
  22.023      28.492      33.427      35.270      33.423      28.483      22.012      15.891      11.528      9.2409    
  8.1559      7.3975      6.9594      6.8223      6.9605      7.3966      8.1517      9.2369      11.530      15.899    
  12.761      15.951      19.003      20.863      20.858      18.992      15.944      12.762      10.353      8.9779    
  8.1185      7.4486      7.0205      6.8222      6.8230      7.0220      7.4481      8.1137      8.9693      10.345    
  9.4068      10.415      11.655      12.702      13.110      12.698      11.654      10.423      9.4191      8.7108    
  8.0816      7.5677      7.2154      7.0213      6.9608      7.0220      7.2185      7.5718      8.0814      8.7026    
  8.4183      8.7745      9.1066      9.4243      9.6389      9.6404      9.4294      9.1149      8.7818      8.4187    
  8.0665      7.7732      7.5671      7.4487      7.3981      7.3967      7.4478      7.5717      7.7828      8.0741    
  8.0961      8.1461      8.2213      8.3102      8.3866      8.4189      8.3908      8.3143      8.2202      8.1382    
  8.0849      8.0659      8.0803      8.1177      8.1559      8.1703      8.1515      8.1136      8.0817      8.0743    
  8.4180      8.1460      7.9240      7.7742      7.6968      7.6708      7.6720      7.6973      7.7693      7.9145    
  8.1388      8.4187      8.7102      8.9777      9.2415      9.4252      9.4240      9.2368      8.9695      8.7027    
  9.4065      8.7743      8.2216      7.7743      7.4726      7.3110      7.2622      7.3105      7.4696      7.7699    
  8.2214      8.7825      9.4192      10.353      11.529      12.540      12.942      12.544      11.529      10.345    
  12.761      10.415      9.1068      8.3103      7.6965      7.3110      7.1348      7.1341      7.3098      7.6972    
  8.3150      9.1151      10.422      12.762      15.891      18.915      20.776      20.781      18.925      15.899    
  22.023      15.952      11.654      9.4242      8.3864      7.6708      7.2625      7.1340      7.2610      7.6715    
  8.3908      9.4287      11.653      15.943      22.012      28.473      33.431      35.290      33.435      28.482    
  39.528      28.492      19.002      12.701      9.6391      8.4190      7.6721      7.3103      7.3096      7.6716    
  8.4203      9.6396      12.697      18.993      28.485      39.529      49.384      55.210      55.206      49.377    
  65.336      49.333      33.427      20.863      13.110      9.6404      8.3907      7.6973      7.4695      7.6974    
  8.3909      9.6396      13.107      20.859      33.427      49.342      65.352      77.329      81.776      77.317    
  96.674      77.238      55.116      35.271      20.858      12.698      9.4291      8.3144      7.7694      7.7699    
  8.3150      9.4286      12.697      20.859      35.275      55.124      77.246      96.679      108.13      108.13    
  127.80      108.06      81.660      55.120      33.422      18.992      11.654      9.1152      8.2204      7.9143    
  8.2213      9.1150      11.653      18.993      33.427      55.124      81.655      108.05      127.79      135.15    
  151.10      135.12      108.06      77.250      49.341      28.483      15.944      10.423      8.7819      8.1379    
  8.1387      8.7826      10.422      15.943      28.485      49.343      77.246      108.05      135.10      151.09    
  136.85      129.42      109.46      82.747      55.835      33.780      19.073      11.574      8.9790      8.0823    
  7.7752      8.0826      8.9793      11.574      19.072      33.780      55.835      82.747      109.46      129.42    
  129.43      129.42      115.75      92.559      66.086      42.135      24.415      14.031      9.6657      8.3308    
  7.7362      7.7356      8.3302      9.6664      14.032      24.414      42.133      66.089      92.570      115.77    
  109.47      115.75      109.46      92.559      69.896      47.094      28.556      16.454      10.535      8.5526    
  7.7325      7.4517      7.7310      8.5522      10.536      16.455      28.553      47.090      69.899      92.569    
  82.743      92.543      92.544      82.747      66.085      47.093      30.116      17.962      11.297      8.7396    
  7.7536      7.2538      7.2534      7.7530      8.7400      11.298      17.961      30.113      47.087      66.079    
  55.823      66.070      69.880      66.080      55.835      42.134      28.557      17.962      11.602      8.8651    
  7.7801      7.1391      6.9308      7.1395      7.7803      8.8655      11.604      17.965      28.557      42.127    
  33.779      42.162      47.126      47.129      42.168      33.780      24.415      16.455      11.297      8.8650    
  7.7919      7.0895      6.7535      6.7541      7.0901      7.7909      8.8645      11.301      16.463      24.421    
  19.081      24.504      28.682      30.250      28.679      24.498      19.073      14.031      10.535      8.7394    
  7.7802      7.0896      6.6979      6.5762      6.6989      7.0890      7.7769      8.7363      10.536      14.038    
  11.573      14.152      16.660      18.204      18.200      16.651      14.146      11.574      9.6658      8.5524    
  7.7536      7.1392      6.7533      6.5762      6.5768      6.7544      7.1388      7.7499      8.5457      9.6597    
  8.9692      9.7807      10.763      11.598      11.926      11.595      10.762      9.7872      8.9792      8.3308    
  7.7324      7.2540      6.9307      6.7540      6.6991      6.7544      6.9330      7.2572      7.7322      8.3241    
  8.0821      8.4411      8.7708      9.0461      9.2214      9.2225      9.0499      8.7773      8.4470      8.0824    
  7.7361      7.4519      7.2535      7.1394      7.0903      7.0891      7.1385      7.2571      7.4595      7.7422    
  7.7842      7.8563      7.9526      8.0578      8.1436      8.1784      8.1468      8.0609      7.9516      7.8499    
  7.7752      7.7355      7.7312      7.7529      7.7802      7.7909      7.7767      7.7497      7.7325      7.7423    
  8.0818      7.8562      7.6784      7.5646      7.5110      7.4960      7.4970      7.5115      7.5607      7.6708    
  7.8504      8.0824      8.3302      8.5522      8.7397      8.8655      8.8646      8.7363      8.5459      8.3243    
  8.9689      8.4410      7.9529      7.5647      7.3072      7.1716      7.1313      7.1714      7.3051      7.5612    
  7.9527      8.4475      8.9792      9.6665      10.536      11.298      11.604      11.301      10.536      9.6597    
  11.573      9.7808      8.7710      8.0579      7.5107      7.1716      7.0180      7.0175      7.1708      7.5113    
  8.0616      8.7775      9.7865      11.574      14.032      16.455      17.962      17.965      16.462      14.037    
  19.082      14.152      10.762      9.0460      8.1434      7.4960      7.1315      7.0175      7.1301      7.4964    
  8.1468      9.0495      10.761      14.145      19.073      24.414      28.553      30.112      28.556      24.421    
  33.779      24.504      16.659      11.598      9.2215      8.1785      7.4971      7.1713      7.1706      7.4965    
  8.1794      9.2220      11.594      16.652      24.498      33.780      42.133      47.090      47.087      42.128    
  55.823      42.162      28.682      18.204      11.926      9.2225      8.1467      7.5114      7.3051      7.5115    
  8.1469      9.2220      11.923      18.200      28.682      42.169      55.835      66.089      69.900      66.079    
  82.743      66.070      47.126      30.250      18.200      11.595      9.0497      8.0610      7.5609      7.5613    
  8.0615      9.0494      11.594      18.201      30.254      47.132      66.076      82.747      92.570      92.569    
  109.47      92.543      69.880      47.129      28.679      16.651      10.762      8.7775      7.9517      7.6707    
  7.9526      8.7775      10.761      16.652      28.682      47.132      69.876      92.533      109.46      115.77    
  129.43      115.75      92.545      66.080      42.168      24.497      14.146      9.7875      8.4470      7.8496    
  7.8503      8.4477      9.7867      14.145      24.498      42.169      66.076      92.533      115.74      129.42    
  105.78      100.02      84.539      63.783      42.949      26.129      15.300      10.126      8.3992      7.6152    
  7.3503      7.6155      8.3994      10.126      15.300      26.128      42.949      63.783      84.539      100.02    
  100.03      100.02      89.410      71.376      50.818      32.394      19.105      11.708      8.8231      7.7935    
  7.2785      7.2780      7.7930      8.8238      11.709      19.105      32.393      50.820      71.384      89.420    
  84.545      89.430      84.539      71.377      53.751      36.144      22.114      13.327      9.3229      7.9573    
  7.2431      7.0049      7.2418      7.9568      9.3239      13.327      22.112      36.142      53.753      71.383    
  63.781      71.422      71.423      63.783      50.818      36.144      23.257      14.355      9.7716      8.0787    
  7.2361      6.8137      6.8134      7.2356      8.0788      9.7720      14.355      23.254      36.140      50.814    
  42.941      50.900      53.868      50.907      42.949      32.393      22.114      14.355      9.9543      8.1459    
  7.2426      6.7008      6.5281      6.7012      7.2428      8.1459      9.9552      14.357      22.114      32.389    
  26.128      32.530      36.355      36.358      32.534      26.128      19.105      13.327      9.7715      8.1459    
  7.2471      6.6506      6.3722      6.3728      6.6513      7.2465      8.1454      9.7740      13.333      19.110    
  15.306      19.293      22.423      23.607      22.421      19.289      15.300      11.708      9.3229      8.0785    
  7.2427      6.6507      6.3234      6.2229      6.3242      6.6505      7.2407      8.0766      9.3239      11.713    
  10.126      11.913      13.696      14.812      14.810      13.691      11.909      10.126      8.8233      7.9570    
  7.2361      6.7009      6.3721      6.2229      6.2232      6.3727      6.7006      7.2337      7.9526      8.8191    
  8.3924      9.0141      9.6954      10.270      10.495      10.268      9.6954      9.0187      8.3993      7.7935    
  7.2430      6.8139      6.5281      6.3727      6.3244      6.3727      6.5292      6.8158      7.2428      7.7890    
  7.6151      7.9735      8.3090      8.5685      8.7130      8.7136      8.5707      8.3132      7.9773      7.6153    
  7.2784      7.0050      6.8134      6.7011      6.6515      6.6506      6.7003      6.8158      7.0101      7.2825    
  7.3563      7.4608      7.5864      7.7133      7.8112      7.8492      7.8132      7.7152      7.5856      7.4565    
  7.3503      7.2780      7.2420      7.2355      7.2427      7.2466      7.2406      7.2336      7.2431      7.2826    
  7.6148      7.4607      7.3492      7.2885      7.2697      7.2710      7.2717      7.2702      7.2860      7.3441    
  7.4569      7.6153      7.7931      7.9568      8.0786      8.1459      8.1455      8.0766      7.9528      7.7891    
  8.3922      7.9733      7.5867      7.2885      7.0977      7.0011      6.9733      7.0013      7.0967      7.2864    
  7.5865      7.9778      8.3993      8.8239      9.3238      9.7720      9.9554      9.7741      9.3238      8.8191    
  10.126      9.0142      8.3092      7.7134      7.2695      7.0010      6.8818      6.8816      7.0007      7.2700    
  7.7158      8.3134      9.0180      10.126      11.709      13.327      14.355      14.357      13.332      11.712    
  15.306      11.913      9.6953      8.5684      7.8110      7.2710      6.9735      6.8815      6.9724      7.2710    
  7.8132      8.5707      9.6944      11.908      15.300      19.105      22.112      23.254      22.114      19.110    
  26.128      19.293      13.696      10.269      8.7131      7.8492      7.2718      7.0012      7.0006      7.2711    
  7.8497      8.7135      10.267      13.691      19.289      26.128      32.393      36.142      36.140      32.389    
  42.941      32.530      22.423      14.812      10.496      8.7136      7.8131      7.2701      7.0966      7.2701    
  7.8132      8.7134      10.494      14.810      22.423      32.535      42.949      50.820      53.753      50.814    
  63.780      50.900      36.356      23.608      14.810      10.267      8.5705      7.7153      7.2861      7.2864    
  7.7158      8.5705      10.267      14.810      23.610      36.360      50.904      63.783      71.384      71.383    
  84.545      71.423      53.868      36.358      22.421      13.690      9.6953      8.3134      7.5857      7.3440    
  7.5864      8.3133      9.6944      13.691      22.423      36.360      53.866      71.416      84.539      89.419    
  100.03      89.431      71.423      50.907      32.534      19.289      11.909      9.0188      7.9774      7.4563    
  7.4568      7.9779      9.0182      11.908      19.289      32.535      50.904      71.416      89.421      100.02    
  73.688      69.647      58.774      44.255      29.875      18.630      11.831      8.8799      7.7628      7.1133    
  6.9007      7.1136      7.7630      8.8798      11.831      18.630      29.876      44.256      58.774      69.647    
  69.649      69.647      62.179      49.516      35.209      22.679      14.065      9.6604      8.0337      7.2051    
  6.7903      6.7899      7.2047      8.0343      9.6615      14.066      22.679      35.210      49.520      62.184    
  58.777      62.222      58.774      49.517      37.210      25.143      15.893      10.500      8.2568      7.2930    
  6.7137      6.5262      6.7128      7.2926      8.2576      10.500      15.892      25.142      37.211      49.520    
  44.254      49.625      49.625      44.256      35.209      25.143      16.599      11.052      8.4408      7.3588    
  6.6684      6.3367      6.3364      6.6679      7.3587      8.4409      11.051      16.597      25.140      35.207    
  29.871      35.389      37.460      35.393      29.875      22.679      15.893      11.052      8.5164      7.3932    
  6.6467      6.2195      6.0864      6.2199      6.6469      7.3929      8.5164      11.053      15.893      22.677    
  18.630      22.924      25.532      25.533      22.926      18.630      14.065      10.500      8.4408      7.3931    
  6.6407      6.1649      5.9487      5.9492      6.1656      6.6406      7.3928      8.4420      10.503      14.068    
  11.834      14.352      16.385      17.166      16.384      14.349      11.831      9.6606      8.2568      7.3587    
  6.6468      6.1649      5.9053      5.8263      5.9059      6.1651      6.6459      7.3579      8.2576      9.6632    
  8.8793      9.9511      11.035      11.726      11.725      11.033      9.9495      8.8799      8.0338      7.2928    
  6.6684      6.2196      5.9486      5.8263      5.8264      5.9488      6.2194      6.6672      7.2906      8.0316    
  7.7590      8.3056      8.7821      9.1449      9.2843      9.1438      8.7820      8.3081      7.7629      7.2050    
  6.7136      6.3368      6.0863      5.9492      5.9060      5.9488      6.0866      6.3377      6.7135      7.2025    
  7.1132      7.4614      7.7909      8.0488      8.1901      8.1903      8.0497      7.7929      7.4634      7.1134    
  6.7902      6.5263      6.3365      6.2198      6.1657      6.1651      6.2192      6.3376      6.5290      6.7924    
  6.9039      7.0424      7.1951      7.3395      7.4455      7.4851      7.4464      7.3402      7.1944      7.0401    
  6.9007      6.7899      6.7129      6.6678      6.6468      6.6406      6.6458      6.6671      6.7137      6.7925    
  7.1130      7.0423      7.0038      6.9986      7.0148      7.0318      7.0322      7.0152      6.9974      7.0011    
  7.0404      7.1134      7.2047      7.2926      7.3585      7.3929      7.3929      7.3579      7.2908      7.2026    
  7.7588      7.4612      7.1953      6.9987      6.8800      6.8244      6.8097      6.8249      6.8798      6.9977    
  7.1951      7.4637      7.7629      8.0344      8.2575      8.4409      8.5166      8.4421      8.2575      8.0316    
  8.8794      8.3056      7.7911      7.3396      7.0146      6.8244      6.7423      6.7422      6.8244      7.0150    
  7.3407      7.7931      8.3076      8.8799      9.6615      10.500      11.052      11.053      10.503      9.6631    
  11.834      9.9513      8.7820      8.0488      7.4454      7.0318      6.8098      6.7422      6.8090      7.0315    
  7.4464      8.0499      8.7813      9.9485      11.831      14.066      15.892      16.597      15.893      14.068    
  18.630      14.352      11.035      9.1448      8.1902      7.4852      7.0323      6.8248      6.8243      7.0315    
  7.4852      8.1905      9.1437      11.032      14.349      18.630      22.679      25.142      25.140      22.677    
  29.871      22.924      16.385      11.726      9.2845      8.1903      7.4463      7.0152      6.8798      7.0151    
  7.4464      8.1904      9.2841      11.725      16.385      22.927      29.875      35.210      37.211      35.207    
  44.254      35.389      25.532      17.166      11.725      9.1437      8.0495      7.3403      6.9974      6.9977    
  7.3407      8.0498      9.1437      11.725      17.167      25.534      35.391      44.256      49.520      49.520    
  58.777      49.625      37.460      25.533      16.384      11.032      8.7820      7.7930      7.1946      7.0010    
  7.1951      7.7931      8.7813      11.032      16.385      25.534      37.459      49.622      58.774      62.183    
  69.649      62.222      49.625      35.392      22.926      14.349      9.9496      8.3083      7.4634      7.0399    
  7.0403      7.4638      8.3077      9.9485      14.349      22.927      35.391      49.621      62.217      69.647    
  46.154      43.611      36.804      27.846      19.245      12.906      9.4316      7.9918      7.1540      6.6564    
  6.4982      6.6566      7.1541      7.9917      9.4314      12.906      19.245      27.846      36.804      43.611    
  43.611      43.610      38.912      31.026      22.319      15.034      10.416      8.2886      7.3087      6.6595    
  6.3499      6.3496      6.6592      7.3090      8.2895      10.416      15.034      22.319      31.027      38.914    
  36.805      38.972      36.804      31.026      23.488      16.367      11.266      8.5805      7.4206      6.6658    
  6.2298      6.0925      6.2291      6.6655      7.4212      8.5812      11.266      16.367      23.488      31.027    
  27.846      31.180      31.180      27.846      22.319      16.367      11.603      8.7788      7.4821      6.6695    
  6.1422      5.8989      5.8987      6.1419      6.6692      7.4819      8.7784      11.603      16.366      22.318    
  19.244      22.570      23.835      22.571      19.245      15.034      11.266      8.7788      7.5010      6.6702    
  6.0891      5.7717      5.6748      5.7720      6.0892      6.6698      7.5005      8.7787      11.266      15.033    
  12.906      15.359      16.886      16.887      15.359      12.906      10.416      8.5806      7.4821      6.6702    
  6.0714      5.7092      5.5481      5.5484      5.7098      6.0715      6.6700      7.4824      8.5819      10.417    
  9.4325      10.776      11.894      12.331      11.894      10.775      9.4315      8.2887      7.4206      6.6694    
  6.0892      5.7092      5.5073      5.4460      5.5077      5.7095      6.0891      6.6693      7.4212      8.2898    
  7.9913      8.6483      9.2466      9.6217      9.6214      9.2459      8.6480      7.9918      7.3087      6.6657    
  6.1422      5.7718      5.5480      5.4460      5.4459      5.5479      5.7717      6.1419      6.6650      7.3079    
  7.1525      7.6504      8.0754      8.3587      8.4577      8.3582      8.0753      7.6514      7.1540      6.6594    
  6.2297      5.8990      5.6748      5.5484      5.5078      5.5479      5.6745      5.8991      6.2296      6.6584    
  6.6564      6.9846      7.2946      7.5378      7.6716      7.6714      7.5378      7.2950      6.9853      6.6565    
  6.3498      6.0926      5.8988      5.7720      5.7098      5.7095      5.7715      5.8991      6.0936      6.3506    
  6.4994      6.6672      6.8391      6.9928      7.1010      7.1402      7.1010      6.9928      6.8387      6.6663    
  6.4982      6.3496      6.2292      6.1418      6.0892      6.0716      6.0890      6.1418      6.2298      6.3506    
  6.6562      6.6671      6.6958      6.7385      6.7828      6.8115      6.8118      6.7831      6.7381      6.6948    
  6.6665      6.6565      6.6592      6.6655      6.6691      6.6699      6.6701      6.6693      6.6652      6.6585    
  7.1523      6.9845      6.8393      6.7385      6.6844      6.6639      6.6599      6.6645      6.6848      6.7383    
  6.8392      6.9855      7.1541      7.3091      7.4211      7.4819      7.5007      7.4824      7.4211      7.3079    
  7.9914      7.6504      7.2947      6.9929      6.7826      6.6639      6.6144      6.6145      6.6641      6.7829    
  6.9931      7.2952      7.6511      7.9918      8.2895      8.5812      8.7785      8.7787      8.5817      8.2897    
  9.4327      8.6484      8.0753      7.5378      7.1009      6.8115      6.6600      6.6145      6.6595      6.8111    
  7.1010      7.5380      8.0749      8.6472      9.4315      10.416      11.266      11.602      11.266      10.417    
  12.906      10.776      9.2465      8.3586      7.6716      7.1402      6.8118      6.6644      6.6640      6.8112    
  7.1400      7.6718      8.3583      9.2454      10.774      12.906      15.034      16.367      16.366      15.033    
  19.244      15.358      11.894      9.6218      8.4578      7.6715      7.1010      6.7830      6.6848      6.7830    
  7.1011      7.6718      8.4581      9.6217      11.894      15.359      19.245      22.319      23.488      22.318    
  27.846      22.570      16.886      12.331      9.6214      8.3581      7.5376      6.9928      6.7382      6.7383    
  6.9931      7.5379      8.3583      9.6218      12.332      16.887      22.571      27.846      31.027      31.027    
  36.805      31.180      23.835      16.887      11.894      9.2458      8.0753      7.2951      6.8388      6.6947    
  6.8391      7.2952      8.0749      9.2454      11.894      16.887      23.835      31.179      36.804      38.914    
  43.611      38.972      31.181      22.571      15.359      10.775      8.6481      7.6516      6.9853      6.6662    
  6.6664      6.9856      7.6511      8.6471      10.774      15.359      22.571      31.179      38.970      43.610    
  26.238      24.862      21.229      16.595      12.398      9.5801      8.1456      7.2782      6.6501      6.2972    
  6.1875      6.2973      6.6502      7.2781      8.1455      9.5801      12.398      16.596      21.229      24.862    
  24.862      24.862      22.328      18.169      13.780      10.379      8.4307      7.4257      6.6894      6.2192    
  6.0032      6.0030      6.2191      6.6896      7.4264      8.4313      10.379      13.780      18.169      22.328    
  21.229      22.395      21.229      18.169      14.318      10.905      8.6772      7.5142      6.7128      6.1513    