unknown system                          
   1.00000000000000     
     2.376600    0.000000    0.000000
    -1.188300    2.058196    0.000000
     0.000000    0.000000    4.098360
   Fe
     2
Direct
  0.000000  0.000000  0.000000
  0.333333  0.666667  0.500000
 
   20   20   36
 0.16827390895E+03 0.15911345253E+03 0.13456331787E+03 0.10181733028E+03 0.68865525429E+02
 0.41667060336E+02 0.23122264357E+02 0.13222892285E+02 0.95873963705E+01 0.85415913964E+01
 0.81990422557E+01 0.85420287323E+01 0.95877442155E+01 0.13222756674E+02 0.23121852702E+02
 0.41666880840E+02 0.68865750531E+02 0.10181765210E+03 0.13456341505E+03 0.15911338089E+03
 0.15912149528E+03 0.15911311766E+03 0.14229958138E+03 0.11385962831E+03 0.81470399633E+02
 0.52072075720E+02 0.29994805015E+02 0.16602100240E+02 0.10619853708E+02 0.88484176400E+01
 0.81876655123E+01 0.81869403801E+01 0.88476442965E+01 0.10620631810E+02 0.16602876053E+02
 0.29993153410E+02 0.52070287627E+02 0.81475437700E+02 0.11387491411E+03 0.14231801975E+03
 0.13457546232E+03 0.14227583913E+03 0.13456337708E+03 0.11385995352E+03 0.86152017291E+02
 0.58217081218E+02 0.35254513494E+02 0.19849297092E+02 0.11913673483E+02 0.91363382918E+01
 0.82087156086E+01 0.78904113741E+01 0.82069950574E+01 0.91359009402E+01 0.11915116456E+02
 0.19848901130E+02 0.35249996586E+02 0.58213160265E+02 0.86156422117E+02 0.11387318901E+03
 0.10181238959E+03 0.11378332688E+03 0.11378520347E+03 0.10181795525E+03 0.81470333175E+02
 0.58216814800E+02 0.37224561036E+02 0.21840503472E+02 0.13018435284E+02 0.94321581105E+01
 0.82502827103E+01 0.76814654112E+01 0.76809162689E+01 0.82496519311E+01 0.94329046749E+01
 0.13019861832E+02 0.21839772457E+02 0.37219583459E+02 0.58208583285E+02 0.81462060810E+02
 0.68848984453E+02 0.81358472441E+02 0.86004245216E+02 0.81371806130E+02 0.68865591550E+02
 0.52071544275E+02 0.35254590282E+02 0.21840687813E+02 0.13453696249E+02 0.96392185280E+01
 0.82909267088E+01 0.75603344699E+01 0.73185696975E+01 0.75607484968E+01 0.82911638813E+01
 0.96400170306E+01 0.13456769076E+02 0.21845034960E+02 0.35254715396E+02 0.52062173240E+02
 0.41665365444E+02 0.51990496575E+02 0.58071529042E+02 0.58076037960E+02 0.51998466235E+02
 0.41666768041E+02 0.29994773784E+02 0.19849693343E+02 0.13018344033E+02 0.96391134468E+01
 0.83078729753E+01 0.75084143120E+01 0.71169973657E+01 0.71176876877E+01 0.75088079271E+01
 0.83063109514E+01 0.96385016351E+01 0.13023608940E+02 0.19860256008E+02 0.30002783192E+02
 0.23133899970E+02 0.29986676133E+02 0.35198023357E+02 0.37141912758E+02 0.35193352139E+02
 0.29977190870E+02 0.23122059361E+02 0.16602386192E+02 0.11913666794E+02 0.94318988724E+01
 0.82910460857E+01 0.75084656548E+01 0.70535367271E+01 0.69106466480E+01 0.70546554644E+01
 0.75074205962E+01 0.82864450717E+01 0.94275141069E+01 0.11915116456E+02 0.16611118504E+02
 0.13222006507E+02 0.16641538490E+02 0.19894036663E+02 0.21871110655E+02 0.21865846843E+02
 0.19882692040E+02 0.16633349256E+02 0.13222871759E+02 0.10620014597E+02 0.91360759880E+01
 0.82503329224E+01 0.75604900537E+01 0.71168263541E+01 0.69106092223E+01 0.69115248792E+01
 0.71184529165E+01 0.75599983302E+01 0.82451395943E+01 0.91268116237E+01 0.10611767256E+02
 0.95743374384E+01 0.10663773602E+02 0.12004337340E+02 0.13132209533E+02 0.13570943482E+02
 0.13128500048E+02 0.12004268343E+02 0.10672421482E+02 0.95875641153E+01 0.88483262101E+01
 0.82085834703E+01 0.76816814014E+01 0.73184617457E+01 0.71175765207E+01 0.70548962361E+01
 0.71185127612E+01 0.73219289981E+01 0.76861787723E+01 0.82083545664E+01 0.88395299097E+01
 0.85413825719E+01 0.88961056371E+01 0.92340275006E+01 0.95730384329E+01 0.98048843313E+01
 0.98064778301E+01 0.95785615459E+01 0.92431123663E+01 0.89040093866E+01 0.85417404817E+01
 0.81874800364E+01 0.78905531250E+01 0.76810352411E+01 0.75605940600E+01 0.75089837506E+01
 0.75075450769E+01 0.75596883096E+01 0.76860817542E+01 0.79008970174E+01 0.81957009272E+01
 0.82110895239E+01 0.82535479514E+01 0.83213433617E+01 0.84045030004E+01 0.84776746488E+01
 0.85090941260E+01 0.84822716855E+01 0.84090037258E+01 0.83201957724E+01 0.82450175078E+01
 0.81990151914E+01 0.81868769855E+01 0.82072239613E+01 0.82495396464E+01 0.82910460857E+01
 0.83064006892E+01 0.82862078992E+01 0.82449770975E+01 0.82087156086E+01 0.81958230085E+01
 0.85410009126E+01 0.82534316864E+01 0.80163120585E+01 0.78542745335E+01 0.77689333971E+01
 0.77392659296E+01 0.77405260276E+01 0.77694586110E+01 0.78489824281E+01 0.80060959662E+01
 0.82456511011E+01 0.85417961582E+01 0.88477357263E+01 0.91359163052E+01 0.94326174209E+01
 0.96400383584E+01 0.96386280442E+01 0.94274860910E+01 0.91270892927E+01 0.88397127693E+01
 0.95740474741E+01 0.88959483987E+01 0.83217067912E+01 0.78543485580E+01 0.75377375259E+01
 0.73675122436E+01 0.73160245738E+01 0.73668933166E+01 0.75344383638E+01 0.78495729119E+01
 0.83214974006E+01 0.89046555469E+01 0.95876219961E+01 0.10620764763E+02 0.11914968423E+02
 0.13019859429E+02 0.13457113431E+02 0.13023697788E+02 0.11914975111E+02 0.10611739321E+02
 0.13222161954E+02 0.10663846763E+02 0.92342970234E+01 0.84045815001E+01 0.77686264042E+01
 0.73675072218E+01 0.71838425275E+01 0.71830545793E+01 0.73661629857E+01 0.77693187641E+01
 0.84096909472E+01 0.92431965368E+01 0.10671691151E+02 0.13222891595E+02 0.16602988458E+02
 0.19848908278E+02 0.21839957482E+02 0.21845035645E+02 0.19859866906E+02 0.16610944958E+02
 0.23134311625E+02 0.16641739363E+02 0.12004176029E+02 0.95729358651E+01 0.84774570632E+01
 0.77393027680E+01 0.73162513919E+01 0.71829886078E+01 0.73147229455E+01 0.77400591326E+01
 0.84822716855E+01 0.95777917967E+01 0.12002908834E+02 0.16632722678E+02 0.23122059361E+02
 0.29993134800E+02 0.35249871472E+02 0.37219422122E+02 0.35254513494E+02 0.30002795812E+02
 0.41665568223E+02 0.29986629071E+02 0.19893636610E+02 0.13132051648E+02 0.98050410796E+01
 0.85092071432E+01 0.77406712922E+01 0.73667454395E+01 0.73660201305E+01 0.77401675588E+01
 0.85106293485E+01 0.98056318773E+01 0.13127007935E+02 0.19883433986E+02 0.29978811048E+02
 0.41666791323E+02 0.52070052162E+02 0.58213044410E+02 0.58208733848E+02 0.52062469220E+02
 0.68848810839E+02 0.51990119461E+02 0.35197838329E+02 0.21871215139E+02 0.13571294485E+02
 0.98065331927E+01 0.84821243845E+01 0.77693567350E+01 0.75343718329E+01 0.77695238810E+01
 0.84823419701E+01 0.98055304916E+01 0.13567635669E+02 0.21866597010E+02 0.35198019460E+02
 0.51999981630E+02 0.68865643038E+02 0.81475595679E+02 0.86156684612E+02 0.81462285246E+02
 0.10181210778E+03 0.81358199782E+02 0.58071713168E+02 0.37142301506E+02 0.21865992639E+02
 0.13128321261E+02 0.95782819541E+01 0.84090736694E+01 0.78491260579E+01 0.78496425172E+01
 0.84096823912E+01 0.95776147728E+01 0.13126987033E+02 0.21866638322E+02 0.37147007193E+02
 0.58079745065E+02 0.81366583630E+02 0.10181799525E+03 0.11387501550E+03 0.11387296520E+03
 0.13457536514E+03 0.11378359593E+03 0.86004525738E+02 0.58076282566E+02 0.35193171008E+02
 0.19882352599E+02 0.12004176029E+02 0.92433585904E+01 0.83204051629E+01 0.80059296767E+01
 0.83213433617E+01 0.92431732381E+01 0.12002977831E+02 0.19883494598E+02 0.35198023357E+02
 0.58079805544E+02 0.85999526407E+02 0.11377014907E+03 0.13456337708E+03 0.14231748767E+03
 0.15912154780E+03 0.14227647239E+03 0.11378529256E+03 0.81371517549E+02 0.51998214728E+02
 0.29977041691E+02 0.16633520507E+02 0.10672672361E+02 0.89040436657E+01 0.82447459356E+01
 0.82454957939E+01 0.89048470644E+01 0.10671868869E+02 0.16632693057E+02 0.29978708931E+02
 0.52000107238E+02 0.81366567708E+02 0.11376996911E+03 0.14225790438E+03 0.15911309854E+03
 0.15978274015E+03 0.15109473809E+03 0.12779330475E+03 0.96678842825E+02 0.65351527556E+02
 0.39529371004E+02 0.22011820027E+02 0.12762098937E+02 0.94189838428E+01 0.84185208038E+01
 0.80849235630E+01 0.84189435055E+01 0.94193193567E+01 0.12761966011E+02 0.22011419620E+02
 0.39529195420E+02 0.65351744225E+02 0.96679154055E+02 0.12779339928E+03 0.15109466928E+03
 0.15110221075E+03 0.15109441190E+03 0.13513650816E+03 0.10811891908E+03 0.77324553547E+02
 0.49386248518E+02 0.28474186537E+02 0.15890394552E+02 0.10352366852E+02 0.87108447457E+01
 0.80666754213E+01 0.80659764785E+01 0.87100981677E+01 0.10353136812E+02 0.15891237659E+02
 0.28472763939E+02 0.49384618173E+02 0.77329205501E+02 0.10813310259E+03 0.13515365633E+03
 0.12780460059E+03 0.13511837214E+03 0.12779336151E+03 0.10811923553E+03 0.81772134431E+02
 0.55214052368E+02 0.33434826929E+02 0.18915329266E+02 0.11528173411E+02 0.89781131437E+01
 0.80817379674E+01 0.77730678765E+01 0.80800730441E+01 0.89776688673E+01 0.11529571706E+02
 0.18915068343E+02 0.33430685646E+02 0.55210378567E+02 0.81776169037E+02 0.10813151194E+03
 0.96674284494E+02 0.10805859130E+03 0.10806033067E+03 0.96679450956E+02 0.77324489972E+02
 0.55213793363E+02 0.35295283916E+02 0.20776471819E+02 0.12538875043E+02 0.92411359787E+01
 0.81184670806E+01 0.75674746437E+01 0.75669488935E+01 0.81178419863E+01 0.92417820039E+01
 0.12540153200E+02 0.20775746691E+02 0.35290617055E+02 0.55206116005E+02 0.77316794469E+02
 0.65336205749E+02 0.77238359085E+02 0.81659232690E+02 0.77250731729E+02 0.65351592910E+02
 0.49385731900E+02 0.33434900670E+02 0.20776650991E+02 0.12938436877E+02 0.94245453895E+01
 0.81558322906E+01 0.74484624170E+01 0.72155045424E+01 0.74488866970E+01 0.81560623166E+01
 0.94252174635E+01 0.12941178581E+02 0.20780616252E+02 0.33435022807E+02 0.49377076703E+02
 0.39527831370E+02 0.49333708565E+02 0.55115848501E+02 0.55120045533E+02 0.49341110696E+02
 0.39529086933E+02 0.28474155501E+02 0.18915714524E+02 0.12538787428E+02 0.94244434155E+01
 0.81715960128E+01 0.73974310633E+01 0.70206768085E+01 0.70213620609E+01 0.73978804073E+01
 0.81701843903E+01 0.94238534134E+01 0.12543658711E+02 0.18925564517E+02 0.28481669459E+02
 0.22022620935E+02 0.28492014483E+02 0.33426890167E+02 0.35270166882E+02 0.33422596566E+02
 0.28483247366E+02 0.22011621020E+02 0.15890672848E+02 0.11528167721E+02 0.92408840359E+01
 0.81559470530E+01 0.73974805069E+01 0.69594387053E+01 0.68222541630E+01 0.69605191729E+01
 0.73965663297E+01 0.81517251557E+01 0.92368624701E+01 0.11529571706E+02 0.15898829102E+02
 0.12761222761E+02 0.15951310489E+02 0.19002515482E+02 0.20862974918E+02 0.20858101840E+02
 0.18992025410E+02 0.15943769781E+02 0.12762079370E+02 0.10352522821E+02 0.89778574605E+01
 0.81185146817E+01 0.74486130785E+01 0.70205114476E+01 0.68222182884E+01 0.68230473855E+01
 0.70219828611E+01 0.74481434470E+01 0.81137156750E+01 0.89692799940E+01 0.10344852091E+02
 0.94068038029E+01 0.10414758400E+02 0.11654521644E+02 0.12701514322E+02 0.13109691810E+02
 0.12698044433E+02 0.11654454157E+02 0.10422833526E+02 0.94191458460E+01 0.87107546885E+01
 0.80816095423E+01 0.75676852101E+01 0.72154006376E+01 0.70212546976E+01 0.69607529440E+01
 0.70220408586E+01 0.72185274647E+01 0.75718184547E+01 0.80813872828E+01 0.87025566972E+01
 0.84183233062E+01 0.87744983627E+01 0.91065605030E+01 0.94243433699E+01 0.96389302908E+01
 0.96403717619E+01 0.94293943479E+01 0.91149458972E+01 0.87818347026E+01 0.84186651906E+01
 0.80664961631E+01 0.77732073967E+01 0.75670650107E+01 0.74487361292E+01 0.73980507337E+01
 0.73966872125E+01 0.74478422177E+01 0.75717240056E+01 0.77828201990E+01 0.80741381484E+01
 0.80961248781E+01 0.81461356702E+01 0.82212932242E+01 0.83101730079E+01 0.83866089101E+01
 0.84188870549E+01 0.83908308039E+01 0.83142898108E+01 0.82201829191E+01 0.81381948860E+01
 0.80848982224E+01 0.80659161760E+01 0.80802953036E+01 0.81177312195E+01 0.81559470530E+01
 0.81702721749E+01 0.81514951296E+01 0.81135573071E+01 0.80817379674E+01 0.80742571041E+01
 0.84179525704E+01 0.81460222033E+01 0.79239855150E+01 0.77741860433E+01 0.76968243831E+01
 0.76707968438E+01 0.76719877947E+01 0.76973495686E+01 0.77692865552E+01 0.79144920727E+01
 0.81388033317E+01 0.84187171564E+01 0.87101864551E+01 0.89776824441E+01 0.92415022419E+01
 0.94252392322E+01 0.94239771560E+01 0.92368346509E+01 0.89695492539E+01 0.87027350416E+01
 0.94065224451E+01 0.87743446474E+01 0.82216461480E+01 0.77742586035E+01 0.74725504819E+01
 0.73109607551E+01 0.72622421166E+01 0.73104805591E+01 0.74695848544E+01 0.77698547887E+01
 0.82214430017E+01 0.87824549019E+01 0.94192000021E+01 0.10353266071E+02 0.11529427803E+02
 0.12540151479E+02 0.12941513955E+02 0.12543744604E+02 0.11529433493E+02 0.10344825381E+02
 0.12761374426E+02 0.10414829038E+02 0.91068220956E+01 0.83102505189E+01 0.76965267586E+01
 0.73109554221E+01 0.71348159498E+01 0.71341091948E+01 0.73097560481E+01 0.76971932910E+01
 0.83149741096E+01 0.91150502089E+01 0.10422109015E+02 0.12762098108E+02 0.15891347387E+02
 0.18915074984E+02 0.20775926480E+02 0.20780616869E+02 0.18925185900E+02 0.15898660534E+02
 0.22023021342E+02 0.15951505848E+02 0.11654364641E+02 0.94242443831E+01 0.83863980796E+01
 0.76708316730E+01 0.72624615277E+01 0.71340451328E+01 0.72609820340E+01 0.76714658673E+01
 0.83908308039E+01 0.94287278425E+01 0.11653139918E+02 0.15943072837E+02 0.22011621020E+02
 0.28472745145E+02 0.33430563509E+02 0.35290460661E+02 0.33434826929E+02 0.28481681702E+02
 0.39528028217E+02 0.28491968925E+02 0.19002126582E+02 0.12701360698E+02 0.96390825619E+01
 0.84189961204E+01 0.76721281542E+01 0.73103371459E+01 0.73096179679E+01 0.76715713976E+01
 0.84202700544E+01 0.96396491740E+01 0.12696701646E+02 0.18992624947E+02 0.28484640126E+02
 0.39529108196E+02 0.49384389112E+02 0.55210266589E+02 0.55206263032E+02 0.49377364260E+02
 0.65336036408E+02 0.49333342007E+02 0.33426710377E+02 0.20863076034E+02 0.13110032485E+02
 0.96404253492E+01 0.83906879124E+01 0.76972512696E+01 0.74695207317E+01 0.76973926165E+01
 0.83908987430E+01 0.96395504901E+01 0.13106716216E+02 0.20858845090E+02 0.33426886399E+02
 0.49342474746E+02 0.65351640238E+02 0.77329359533E+02 0.81776424263E+02 0.77317012076E+02
 0.96674010115E+02 0.77238094350E+02 0.55116027770E+02 0.35270544613E+02 0.20858243324E+02
 0.12697870775E+02 0.94291233993E+01 0.83143587180E+01 0.77694258934E+01 0.77699215667E+01
 0.83149655057E+01 0.94285558807E+01 0.12696681612E+02 0.20858885458E+02 0.35274949619E+02
 0.55123514193E+02 0.77245899018E+02 0.96679487807E+02 0.10813320036E+03 0.10813129326E+03
 0.12780450607E+03 0.10805885390E+03 0.81659506099E+02 0.55120283304E+02 0.33422420544E+02
 0.18991695550E+02 0.11654364641E+02 0.91151858292E+01 0.82203860654E+01 0.79143290369E+01
 0.82212932242E+01 0.91150285482E+01 0.11653207406E+02 0.18992683987E+02 0.33426890167E+02
 0.55123572696E+02 0.81654895529E+02 0.10804637286E+03 0.12779336151E+03 0.13515313787E+03
 0.15110226192E+03 0.13511898915E+03 0.10806041832E+03 0.77250450892E+02 0.49340865839E+02
 0.28483102306E+02 0.15943935710E+02 0.10423077381E+02 0.87818684793E+01 0.81379301379E+01
 0.81386520505E+01 0.87826423940E+01 0.10422282232E+02 0.15943043407E+02 0.28484540623E+02
 0.49342596447E+02 0.77245882917E+02 0.10804619790E+03 0.13510171619E+03 0.15109439426E+03
 0.13685187277E+03 0.12942392290E+03 0.10946464035E+03 0.82746767976E+02 0.55835214645E+02
 0.33780155829E+02 0.19072833865E+02 0.11573962847E+02 0.89790215647E+01 0.80822571298E+01
 0.77752116921E+01 0.80826388625E+01 0.89793225694E+01 0.11573837690E+02 0.19072465766E+02
 0.33779992606E+02 0.55835409146E+02 0.82747050270E+02 0.10946472724E+03 0.12942386153E+03
 0.12942987954E+03 0.12942362177E+03 0.11575349233E+03 0.92559034612E+02 0.66085514683E+02
 0.42134542359E+02 0.24415047208E+02 0.14030735287E+02 0.96656843321E+01 0.83308375478E+01
 0.77362204292E+01 0.77355964635E+01 0.83301677794E+01 0.96664215205E+01 0.14031729236E+02
 0.24414207319E+02 0.42133323340E+02 0.66089146461E+02 0.92570293208E+02 0.11576720875E+03
 0.10947367772E+03 0.11575110652E+03 0.10946469026E+03 0.92559325916E+02 0.69896317145E+02
 0.47093510774E+02 0.28556468823E+02 0.16454464450E+02 0.10534987586E+02 0.85526478163E+01
 0.77325231002E+01 0.74517363317E+01 0.77310199519E+01 0.85521928857E+01 0.10536254474E+02
 0.16454539156E+02 0.28553313391E+02 0.47090499536E+02 0.69899379170E+02 0.92569056882E+02
 0.82743220334E+02 0.92543099036E+02 0.92544475084E+02 0.82747327755E+02 0.66085459271E+02
 0.47093272978E+02 0.30116424022E+02 0.17962043277E+02 0.11297186510E+02 0.87396010603E+01
 0.77535680441E+01 0.72538237715E+01 0.72533640415E+01 0.77529676324E+01 0.87399913031E+01
 0.11298081404E+02 0.17961344573E+02 0.30112592889E+02 0.47087075131E+02 0.66079298511E+02
 0.55823124612E+02 0.66070309839E+02 0.69879798184E+02 0.66080130934E+02 0.55835277605E+02
 0.42134068125E+02 0.28556533727E+02 0.17962207586E+02 0.11601791283E+02 0.88651193806E+01
 0.77800725429E+01 0.71390769074E+01 0.69308058008E+01 0.71395201802E+01 0.77802820624E+01
 0.88654712659E+01 0.11603678169E+02 0.17965174510E+02 0.28556647446E+02 0.42127305326E+02
 0.33779020380E+02 0.42161867675E+02 0.47125674766E+02 0.47129040599E+02 0.42167760946E+02
 0.33779895168E+02 0.24415016612E+02 0.16454818096E+02 0.11297109396E+02 0.88650263871E+01
 0.77918844703E+01 0.70895198071E+01 0.67534502824E+01 0.67541116699E+01 0.70900973619E+01
 0.77908629016E+01 0.88644990400E+01 0.11300939115E+02 0.16462765723E+02 0.24421197559E+02
 0.19081416246E+02 0.24504474342E+02 0.28682289209E+02 0.30249759402E+02 0.28678989170E+02
 0.24497606684E+02 0.19072651980E+02 0.14030991596E+02 0.10534984896E+02 0.87393702226E+01
 0.77801741851E+01 0.70895638229E+01 0.66978978959E+01 0.65762266889E+01 0.66988664114E+01
 0.70889838193E+01 0.77769480077E+01 0.87363026836E+01 0.10536254474E+02 0.14037605933E+02
 0.11573123632E+02 0.14151595305E+02 0.16659611932E+02 0.18203622634E+02 0.18199784371E+02
 0.16651382453E+02 0.14145763796E+02 0.11573946161E+02 0.96658263388E+01 0.85524113186E+01
 0.77536082642E+01 0.71392134362E+01 0.67533010622E+01 0.65761952038E+01 0.65767994301E+01
 0.67543698380E+01 0.71388061223E+01 0.77498517542E+01 0.85456526030E+01 0.96596894485E+01
 0.89691899645E+01 0.97806896993E+01 0.10762510438E+02 0.11597985021E+02 0.11925595195E+02
 0.11595157574E+02 0.10762447382E+02 0.97872319275E+01 0.89791672288E+01 0.83307515191E+01
 0.77324052993E+01 0.72540186312E+01 0.69307134080E+01 0.67540151200E+01 0.66990800211E+01
 0.67544225084E+01 0.69329577303E+01 0.72571939776E+01 0.77322020770E+01 0.83241497652E+01
 0.80820921205E+01 0.84411393652E+01 0.87707814864E+01 0.90461066905E+01 0.92214050284E+01
 0.92224515410E+01 0.90499212238E+01 0.87773194372E+01 0.84469674232E+01 0.80823879439E+01
 0.77360587792E+01 0.74518691734E+01 0.72534718891E+01 0.71393807520E+01 0.70902518815E+01
 0.70890943232E+01 0.71385301653E+01 0.72571069655E+01 0.74595374143E+01 0.77421612197E+01
 0.77841621718E+01 0.78562587574E+01 0.79525533951E+01 0.80577761001E+01 0.81435833831E+01
 0.81783811155E+01 0.81468187896E+01 0.80608870562E+01 0.79515531082E+01 0.78498899283E+01
 0.77751909573E+01 0.77355447931E+01 0.77312231741E+01 0.77528614505E+01 0.77801741851E+01
 0.77909450003E+01 0.77767384882E+01 0.77497053521E+01 0.77325231002E+01 0.77422711993E+01
 0.80817527636E+01 0.78561533133E+01 0.76783807295E+01 0.75645867117E+01 0.75109925663E+01
 0.74960049901E+01 0.74970069643E+01 0.75115083967E+01 0.75607274044E+01 0.76708104967E+01
 0.78504270504E+01 0.80824303198E+01 0.83302471530E+01 0.85522016270E+01 0.87397332722E+01
 0.88654942468E+01 0.88646150144E+01 0.87362754904E+01 0.85458978419E+01 0.83243151674E+01
 0.89689333172E+01 0.84409957051E+01 0.79528760226E+01 0.75646550014E+01 0.73072263560E+01
 0.71715821390E+01 0.71312534920E+01 0.71714493892E+01 0.73051248194E+01 0.75612317706E+01
 0.79526908761E+01 0.84475141653E+01 0.89792115861E+01 0.96665403967E+01 0.10536122664E+02
 0.11298081622E+02 0.11603987570E+02 0.11301016446E+02 0.10536125353E+02 0.96596663179E+01
 0.11573264401E+02 0.97807530111E+01 0.87710201619E+01 0.80578506589E+01 0.75107218905E+01
 0.71715759797E+01 0.70180441705E+01 0.70175478197E+01 0.71707509432E+01 0.75113143169E+01
 0.80615527462E+01 0.87774711411E+01 0.97865334815E+01 0.11573961772E+02 0.14031831359E+02
 0.16454544316E+02 0.17961509140E+02 0.17965174767E+02 0.16462417237E+02 0.14037451747E+02
 0.19081784345E+02 0.14151774777E+02 0.10762365750E+02 0.90460179390E+01 0.81433920074E+01
 0.74960341846E+01 0.71314517062E+01 0.70174892796E+01 0.71301157242E+01 0.74963590431E+01
 0.81468187896E+01 0.90495180369E+01 0.10761265257E+02 0.14144906183E+02 0.19072651980E+02
 0.24414187941E+02 0.28553199672E+02 0.30112450531E+02 0.28556468823E+02 0.24421208777E+02
 0.33779200254E+02 0.24504433111E+02 0.16659255105E+02 0.11597843682E+02 0.92215444929E+01
 0.81784789496E+01 0.74971333145E+01 0.71713188508E+01 0.71706265641E+01 0.74964561988E+01
 0.81793694463E+01 0.92220427082E+01 0.11594201999E+02 0.16651623970E+02 0.24498420942E+02
 0.33779911819E+02 0.42133112550E+02 0.47090398617E+02 0.47087212009E+02 0.42127568770E+02
 0.55822967633E+02 0.42161531446E+02 0.28682124481E+02 0.18203714153E+02 0.11925906260E+02
 0.92225000678E+01 0.81466885394E+01 0.75114203365E+01 0.73050675918E+01 0.75114969325E+01
 0.81468799151E+01 0.92219517704E+01 0.11923480788E+02 0.18200498429E+02 0.28682285702E+02
 0.42168733172E+02 0.55835315128E+02 0.66089289208E+02 0.69899613677E+02 0.66079496668E+02
 0.82742967376E+02 0.66070067756E+02 0.47125839958E+02 0.30250105512E+02 0.18199913553E+02
 0.11594998657E+02 0.90496749841E+01 0.80609528131E+01 0.75608544012E+01 0.75612904777E+01
 0.80615439444E+01 0.90493605487E+01 0.11594184421E+02 0.18200536092E+02 0.30253701319E+02
 0.47131868973E+02 0.66076330333E+02 0.82747357091E+02 0.92570380856E+02 0.92568853226E+02
 0.10947359083E+03 0.92543342855E+02 0.69880050886E+02 0.47129258704E+02 0.28678827949E+02
 0.16651080184E+02 0.10762365750E+02 0.87775410620E+01 0.79517382547E+01 0.76706570172E+01
 0.79525533951E+01 0.87774540905E+01 0.10761328313E+02 0.16651678528E+02 0.28682289209E+02
 0.47131921886E+02 0.69876464129E+02 0.92533425802E+02 0.10946469026E+03 0.11576672969E+03
 0.12942992684E+03 0.11575167650E+03 0.92544558266E+02 0.66079872291E+02 0.42167535381E+02
 0.24497473601E+02 0.14145914397E+02 0.97874553920E+01 0.84469996401E+01 0.78496450122E+01
 0.78502875783E+01 0.84476900423E+01 0.97866936343E+01 0.14144877312E+02 0.24498329091E+02
 0.42168843836E+02 0.66076313774E+02 0.92533265165E+02 0.11573784824E+03 0.12942360769E+03
 0.10577522396E+03 0.10002298898E+03 0.84538867877E+02 0.63782910781E+02 0.42949053431E+02
 0.26128518090E+02 0.15299824455E+02 0.10126478257E+02 0.83991636926E+01 0.76151830846E+01
 0.73502660874E+01 0.76155052330E+01 0.83994146214E+01 0.10126365210E+02 0.15299505674E+02
 0.26128376639E+02 0.42949219410E+02 0.63783152754E+02 0.84538943130E+02 0.10002293721E+03
 0.10002697282E+03 0.10002272649E+03 0.89410324429E+02 0.71376446633E+02 0.50817769247E+02
 0.32393608381E+02 0.19105410891E+02 0.11707769719E+02 0.88231456621E+01 0.77935456371E+01
 0.72785366720E+01 0.72780254660E+01 0.77929919578E+01 0.88238088342E+01 0.11708880507E+02
 0.19105255194E+02 0.32392901907E+02 0.50820092231E+02 0.71383916442E+02 0.89419571946E+02
 0.84544960964E+02 0.89430284006E+02 0.84538907963E+02 0.71376699561E+02 0.53751041325E+02
 0.36144262097E+02 0.22113640501E+02 0.13326752805E+02 0.93228558108E+01 0.79572521526E+01
 0.72430785875E+01 0.70048683011E+01 0.72418255030E+01 0.79568055995E+01 0.93239159443E+01
 0.13327197580E+02 0.22111731087E+02 0.36142128419E+02 0.53752871725E+02 0.71383132256E+02
 0.63780660837E+02 0.71422437187E+02 0.71423344690E+02 0.63783396806E+02 0.50817725916E+02
 0.36144056464E+02 0.23256636361E+02 0.14355293220E+02 0.97715747229E+01 0.80786926287E+01
 0.72361045449E+01 0.68137142088E+01 0.68133510501E+01 0.72355630100E+01 0.80787825773E+01
 0.97720028903E+01 0.14354659312E+02 0.23253919433E+02 0.36139800536E+02 0.50813564700E+02
 0.42941139740E+02 0.50900403483E+02 0.53867768486E+02 0.50906915714E+02 0.42949112180E+02
 0.32393198329E+02 0.22113691722E+02 0.14355434810E+02 0.99543267956E+01 0.81459413488E+01
 0.72426192359E+01 0.67007548180E+01 0.65281277617E+01 0.67011991073E+01 0.72427975450E+01
 0.81459218535E+01 0.99551741799E+01 0.14357151229E+02 0.22113792923E+02 0.32388866293E+02
 0.26127884347E+02 0.32530379516E+02 0.36355430283E+02 0.36357709385E+02 0.32534310335E+02
 0.26128292578E+02 0.19105380669E+02 0.13327058148E+02 0.97715136996E+01 0.81458621961E+01
 0.72470747651E+01 0.66506439386E+01 0.63722060540E+01 0.63728071672E+01 0.66513321540E+01
 0.72465329985E+01 0.81454295617E+01 0.97740025152E+01 0.13332509673E+02 0.19109783100E+02
 0.15305523508E+02 0.19293338055E+02 0.22423133164E+02 0.23607488213E+02 0.22421096047E+02
 0.19288913057E+02 0.15299668507E+02 0.11707992485E+02 0.93228579585E+01 0.80784944005E+01
 0.72427012580E+01 0.66506797745E+01 0.63234170637E+01 0.62228788225E+01 0.63242114621E+01
 0.66504957674E+01 0.72407357091E+01 0.80766347551E+01 0.93239159443E+01 0.11712572026E+02
 0.10125719595E+02 0.11912601754E+02 0.13696026419E+02 0.14812069731E+02 0.14809566154E+02
 0.13690705289E+02 0.11908950955E+02 0.10126466231E+02 0.88232668476E+01 0.79570454340E+01
 0.72361338641E+01 0.67008698375E+01 0.63720811878E+01 0.62228538395E+01 0.62231803431E+01
 0.63726538439E+01 0.67005534921E+01 0.72337167085E+01 0.79526314142E+01 0.88191276049E+01
 0.83924196824E+01 0.90141379309E+01 0.96954149184E+01 0.10269524020E+02 0.10495469445E+02
 0.10267547559E+02 0.96953589048E+01 0.90186578976E+01 0.83992849094E+01 0.77934660571E+01
 0.72429768709E+01 0.68138847277E+01 0.65280525857E+01 0.63727268031E+01 0.63243941687E+01
 0.63726983459E+01 0.65292124926E+01 0.68158429669E+01 0.72428026080E+01 0.77889563436E+01
 0.76150665688E+01 0.79734680461E+01 0.83089915276E+01 0.85684859232E+01 0.87130071103E+01
 0.87135658815E+01 0.85707451497E+01 0.83131610178E+01 0.79773352949E+01 0.76152930101E+01
 0.72784011798E+01 0.70049901636E+01 0.68134460635E+01 0.67010767886E+01 0.66514625333E+01
 0.66505903109E+01 0.67003161538E+01 0.68157674613E+01 0.70101267658E+01 0.72824997443E+01
 0.73562839214E+01 0.74607969745E+01 0.75863921837E+01 0.77133452423E+01 0.78111983085E+01
 0.78491512520E+01 0.78131814562E+01 0.77151898938E+01 0.75855655336E+01 0.74564846256E+01
 0.73502514587E+01 0.72779862492E+01 0.72419997659E+01 0.72354645153E+01 0.72427012580E+01
 0.72466062068E+01 0.72405574000E+01 0.72335888945E+01 0.72430785875E+01 0.72825960197E+01
 0.76147750823E+01 0.74607037657E+01 0.73492092486E+01 0.72884695377E+01 0.72697410392E+01
 0.72710010201E+01 0.72717428004E+01 0.72702187203E+01 0.72859529166E+01 0.73441457552E+01
 0.74569163615E+01 0.76153236719E+01 0.77930580548E+01 0.79568078211E+01 0.80785583082E+01
 0.81459464856E+01 0.81455333464E+01 0.80766087143E+01 0.79528403545E+01 0.77891020206E+01
 0.83922006703E+01 0.79733396699E+01 0.75866682952E+01 0.72885311186E+01 0.70977016864E+01
 0.70010561848E+01 0.69733440774E+01 0.70013147397E+01 0.70966599399E+01 0.72863609190E+01
 0.75865107219E+01 0.79777739591E+01 0.83993168260E+01 0.88239124628E+01 0.93238031468E+01
 0.97720059915E+01 0.99554434432E+01 0.97740666397E+01 0.93238009991E+01 0.88191100480E+01
 0.10125843635E+02 0.90141899096E+01 0.83091949065E+01 0.77134149212E+01 0.72695115139E+01
 0.70010489515E+01 0.68818321238E+01 0.68815939416E+01 0.70006801177E+01 0.72699921005E+01
 0.77158007823E+01 0.83133569757E+01 0.90180232755E+01 0.10126477224E+02 0.11708971201E+02
 0.13327200478E+02 0.14354800188E+02 0.14357150515E+02 0.13332207228E+02 0.11712439955E+02
 0.15305842289E+02 0.11912756831E+02 0.96952889199E+01 0.85684125947E+01 0.78110367119E+01
 0.72710220117E+01 0.69735102411E+01 0.68815439040E+01 0.69723988891E+01 0.72709883959E+01
 0.78131814562E+01 0.85706528878E+01 0.96943817999E+01 0.11907958937E+02 0.15299668507E+02
 0.19105234780E+02 0.22111629886E+02 0.23253798042E+02 0.22113640501E+02 0.19109792908E+02
 0.26128038476E+02 0.19293303417E+02 0.13695718635E+02 0.10269401559E+02 0.87131271781E+01
 0.78492322783E+01 0.72718480279E+01 0.70012039596E+01 0.70005765708E+01 0.72710726317E+01
 0.78496545995E+01 0.87135249317E+01 0.10267067945E+02 0.13690539287E+02 0.19289048576E+02
 0.26128305256E+02 0.32392718715E+02 0.36142044161E+02 0.36139921911E+02 0.32389093153E+02
 0.42941001892E+02 0.32530089566E+02 0.22422991461E+02 0.14812146841E+02 0.10495735520E+02
 0.87136067921E+01 0.78130704167E+01 0.72701461360E+01 0.70966131699E+01 0.72701490415E+01
 0.78132320133E+01 0.87134457744E+01 0.10494412845E+02 0.14810211769E+02 0.22423129752E+02
 0.32534802627E+02 0.42949140311E+02 0.50820217833E+02 0.53753075030E+02 0.50813733632E+02
 0.63780440745E+02 0.50900195643E+02 0.36355573677E+02 0.23607786163E+02 0.14809676805E+02
 0.10267411137E+02 0.85705362285E+01 0.77152503351E+01 0.72860610826E+01 0.72864075040E+01
 0.77157915447E+01 0.85705172951E+01 0.10267053984E+02 0.14810245310E+02 0.23610302344E+02
 0.36359687129E+02 0.50904445678E+02 0.63783418687E+02 0.71383989397E+02 0.71382952284E+02
 0.84544885711E+02 0.71422651549E+02 0.53867988840E+02 0.36357897400E+02 0.22420957756E+02
 0.13690445262E+02 0.96952889199E+01 0.83133540438E+01 0.75857231069E+01 0.73440074869E+01
 0.75863921837E+01 0.83133466228E+01 0.96944378134E+01 0.13690587045E+02 0.22423133164E+02
 0.36359731751E+02 0.53865706650E+02 0.71416059014E+02 0.84538907963E+02 0.89419153803E+02
 0.10002701412E+03 0.89430781309E+02 0.71423420160E+02 0.50906690828E+02 0.32534114715E+02
 0.19288798655E+02 0.11909078085E+02 0.90188496800E+01 0.79773648182E+01 0.74562706151E+01
 0.74567955598E+01 0.79779318586E+01 0.90181630792E+01 0.11907930990E+02 0.19288968812E+02
 0.32534896956E+02 0.50904428632E+02 0.71415920122E+02 0.89421439057E+02 0.10002271603E+03
 0.73688006073E+02 0.69647094497E+02 0.58774079959E+02 0.44255315490E+02 0.29875371190E+02
 0.18630277230E+02 0.11831266902E+02 0.88799344213E+01 0.77627594988E+01 0.71132978721E+01
 0.69007112895E+01 0.71135508602E+01 0.77629522837E+01 0.88798362476E+01 0.11831008516E+02
 0.18630166760E+02 0.29875510019E+02 0.44255513657E+02 0.58774140956E+02 0.69647051971E+02
 0.69649206844E+02 0.69646879948E+02 0.62178621846E+02 0.49516319401E+02 0.35209018511E+02
 0.22679210121E+02 0.14065469786E+02 0.96603709250E+01 0.80337309316E+01 0.72050816487E+01