    2    2    1    1
  0.1002358E+02  0.2376600E-09  0.2376600E-09  0.4098360E-09  0.5000000E-15
  1.000000000000000E-004
  CAR 
 unknown system                          
     16     96     40
 
  0.0000000E+00  0.0000000E+00  0.0000000E+00  0.7513148E-03
    1       -1.913256   1.000000
    2        2.010227   1.000000
    3        4.966373   1.000000
    4        5.463503   1.000000
    5        5.463613   1.000000
    6        5.804532   1.000000
    7        5.804664   1.000000
    8        6.590777   1.002042
    9        6.652028   1.006505
   10        6.652059   1.006508
   11        7.833255  -0.000000
   12        7.833287  -0.000000
   13       14.801930   0.000000
   14       30.339450   0.000000
   15       31.376635   0.000000
   16       33.488947   0.000000
   17       35.510615   0.000000
   18       35.510673   0.000000
   19       36.379200   0.000000
   20       36.379362   0.000000
   21       38.221087   0.000000
   22       39.387117   0.000000
   23       39.387145   0.000000
   24       40.450513   0.000000
   25       43.121049   0.000000
   26       43.121061   0.000000
   27       44.155899   0.000000
   28       46.819385   0.000000
   29       46.819746   0.000000
   30       48.698890   0.000000
   31       48.699004   0.000000
   32       51.470995   0.000000
   33       59.505262   0.000000
   34       62.120863   0.000000
   35       62.121796   0.000000
   36       62.422896   0.000000
   37       63.387226   0.000000
   38       64.457300   0.000000
   39       64.458431   0.000000
   40       65.810085   0.000000
 
  0.9090909E-01 -0.7281411E-17  0.0000000E+00  0.4507889E-02
    1       -1.583886   1.000000
    2        2.249777   1.000000
    3        4.921977   1.000000
    4        5.450614   1.000000
    5        5.639826   1.000000
    6        5.651640   1.000000
    7        5.696639   1.000000
    8        5.979529   1.000000
    9        6.524841   1.000457
   10        6.536018   1.000599
   11        7.867246  -0.000000
   12        9.035547  -0.000000
   13       14.820489   0.000000
   14       29.060349   0.000000
   15       31.672667   0.000000
   16       31.703539   0.000000
   17       32.741069   0.000000
   18       35.237005   0.000000
   19       35.420816   0.000000
   20       37.993830   0.000000
   21       38.819734   0.000000
   22       39.245252   0.000000
   23       39.970887   0.000000
   24       40.012636   0.000000
   25       44.213727   0.000000
   26       44.251280   0.000000
   27       44.473352   0.000000
   28       44.627001   0.000000
   29       48.238371   0.000000
   30       50.114119   0.000000
   31       51.081199   0.000000
   32       53.312655   0.000000
   33       58.748790   0.000000
   34       60.919872   0.000000
   35       61.176282   0.000000
   36       61.592195   0.000000
   37       61.972174   0.000000
   38       65.276560   0.000000
   39       65.716757   0.000000
   40       66.406073   0.000000
 
  0.1818182E+00  0.8651941E-17  0.0000000E+00  0.4507889E-02
    1       -0.650730   1.000000
    2        2.815208   1.000000
    3        4.520952   1.000000
    4        4.654311   1.000000
    5        5.297522   1.000000
    6        5.876548   1.000000
    7        6.187347   1.000000
    8        6.202814   1.000000
    9        6.264362   1.000000
   10        6.470014   1.000109
   11        7.931935  -0.000000
   12       10.913078  -0.000000
   13       14.915817   0.000000
   14       25.318107   0.000000
   15       29.929459   0.000000
   16       30.478899   0.000000
   17       31.074192   0.000000
   18       32.466252   0.000000
   19       35.922426   0.000000
   20       37.280838   0.000000
   21       37.796714   0.000000
   22       37.973137   0.000000
   23       40.457525   0.000000
   24       41.645515   0.000000
   25       43.956916   0.000000
   26       45.142207   0.000000
   27       46.832114   0.000000
   28       49.107014   0.000000
   29       51.073802   0.000000
   30       53.575806   0.000000
   31       54.018209   0.000000
   32       56.784790   0.000000
   33       57.251717   0.000000
   34       58.149760   0.000000
   35       59.216529   0.000000
   36       60.837174   0.000000
   37       62.267149   0.000000
   38       65.470522   0.000000
   39       66.361866   0.000000
   40       67.625026   0.000000
 
  0.2727273E+00  0.9616017E-17  0.0000000E+00  0.4507889E-02
    1        0.679770   1.000000
    2        3.103559   1.000000
    3        3.659883   1.000000
    4        4.559904   1.000000
    5        5.133287   1.000000
    6        5.799139   1.000000
    7        5.956552   1.000000
    8        6.615748   1.003368
    9        6.947186   0.913829
   10        7.152899   0.163314
   11        7.977004  -0.000000
   12       13.015669   0.000000
   13       15.121615   0.000000
   14       21.352726   0.000000
   15       27.480762   0.000000
   16       27.504980   0.000000
   17       28.904138   0.000000
   18       32.116383   0.000000
   19       34.040347   0.000000
   20       37.342815   0.000000
   21       37.889015   0.000000
   22       38.084091   0.000000
   23       38.133669   0.000000
   24       42.155539   0.000000
   25       47.496181   0.000000
   26       49.228852   0.000000
   27       50.281790   0.000000
   28       51.861204   0.000000
   29       53.244119   0.000000
   30       54.082788   0.000000
   31       55.614198   0.000000
   32       56.892327   0.000000
   33       58.732521   0.000000
   34       59.337410   0.000000
   35       59.747848   0.000000
   36       61.149098   0.000000
   37       63.106765   0.000000
   38       65.205010   0.000000
   39       66.950860   0.000000
   40       66.975873   0.000000
 
  0.3636364E+00  0.4094886E-16  0.0000000E+00  0.4507889E-02
    1        1.896689   1.000000
    2        2.855316   1.000000
    3        3.086039   1.000000
    4        4.754106   1.000000
    5        5.435755   1.000000
    6        5.469087   1.000000
    7        5.701876   1.000000
    8        7.710373  -0.000024
    9        7.813192  -0.000001
   10        7.842052  -0.000000
   11        7.993762  -0.000000
   12       14.908312   0.000000
   13       15.257031   0.000000
   14       18.582295   0.000000
   15       24.224102   0.000000
   16       25.653815   0.000000
   17       26.167802   0.000000
   18       31.151881   0.000000
   19       32.876297   0.000000
   20       36.120849   0.000000
   21       36.945039   0.000000
   22       38.968539   0.000000
   23       39.978479   0.000000
   24       42.603640   0.000000
   25       50.206447   0.000000
   26       50.946986   0.000000
   27       51.149156   0.000000
   28       54.387910   0.000000
   29       54.588168   0.000000
   30       55.457642   0.000000
   31       57.736289   0.000000
   32       58.584590   0.000000
   33       58.619457   0.000000
   34       60.001535   0.000000
   35       61.765022   0.000000
   36       63.503352   0.000000
   37       64.714153   0.000000
   38       65.631833   0.000000
   39       66.672230   0.000000
   40       66.910358   0.000000
 
  0.4545455E+00 -0.1210080E-16  0.0000000E+00  0.4507889E-02
    1        2.408946   1.000000
    2        2.622725   1.000000
    3        2.801583   1.000000
    4        5.224237   1.000000
    5        5.260530   1.000000
    6        5.558675   1.000000
    7        5.711006   1.000000
    8        7.998152  -0.000000
    9        8.177404  -0.000000
   10        8.311311  -0.000000
   11        9.463556  -0.000000
   12       12.901486   0.000000
   13       17.373330   0.000000
   14       18.692007   0.000000
   15       21.632997   0.000000
   16       23.559829   0.000000
   17       24.622107   0.000000
   18       30.515578   0.000000
   19       32.540488   0.000000
   20       35.005221   0.000000
   21       36.737502   0.000000
   22       39.741088   0.000000
   23       42.180061   0.000000
   24       42.778562   0.000000
   25       46.833943   0.000000
   26       51.538476   0.000000
   27       52.949696   0.000000
   28       56.674319   0.000000
   29       57.465816   0.000000
   30       57.562977   0.000000
   31       58.780854   0.000000
   32       60.248973   0.000000
   33       60.349839   0.000000
   34       62.128767   0.000000
   35       62.300328   0.000000
   36       63.302851   0.000000
   37       65.154861   0.000000
   38       65.642803   0.000000
   39       66.032349   0.000000
   40       66.729401   0.000000
 
  0.9090909E-01  0.9090909E-01  0.0000000E+00  0.4507889E-02
    1       -0.950102   1.000000
    2        2.669411   1.000000
    3        4.704545   1.000000
    4        4.814801   1.000000
    5        5.487651   1.000000
    6        5.579841   1.000000
    7        6.042784   1.000000
    8        6.129648   1.000000
    9        6.361346   1.000004
   10        6.520292   1.000408
   11        7.889643  -0.000000
   12       10.391793  -0.000000
   13       14.882580   0.000000
   14       27.033005   0.000000
   15       28.305857   0.000000
   16       32.001932   0.000000
   17       32.664132   0.000000
   18       33.860821   0.000000
   19       34.262225   0.000000
   20       36.212224   0.000000
   21       37.497302   0.000000
   22       41.098536   0.000000
   23       41.585849   0.000000
   24       42.262873   0.000000
   25       43.214471   0.000000
   26       43.242258   0.000000
   27       43.401463   0.000000
   28       49.577255   0.000000
   29       51.762873   0.000000
   30       51.962818   0.000000
   31       52.047644   0.000000
   32       56.094703   0.000000
   33       57.745534   0.000000
   34       59.025077   0.000000
   35       59.583547   0.000000
   36       60.847278   0.000000
   37       61.807178   0.000000
   38       65.751793   0.000000
   39       66.468862   0.000000
   40       67.936861   0.000000
 
  0.1818182E+00  0.9090909E-01  0.0000000E+00  0.9015778E-02
    1        0.205096   1.000000
    2        3.208671   1.000000
    3        3.972450   1.000000
    4        4.365073   1.000000
    5        5.221316   1.000000
    6        5.719172   1.000000
    7        6.013479   1.000000
    8        6.276521   1.000000
    9        6.742215   1.022545
   10        7.068793   0.481718
   11        7.905559  -0.000000
   12       12.276428  -0.000000
   13       15.079589   0.000000
   14       23.371968   0.000000
   15       25.948085   0.000000
   16       29.256846   0.000000
   17       31.520346   0.000000
   18       31.706318   0.000000
   19       34.852288   0.000000
   20       35.786834   0.000000
   21       36.273478   0.000000
   22       40.888586   0.000000
   23       41.016198   0.000000
   24       41.783465   0.000000
   25       44.945281   0.000000
   26       45.957697   0.000000
   27       47.737850   0.000000
   28       52.055358   0.000000
   29       54.116164   0.000000
   30       54.912694   0.000000
   31       55.034201   0.000000
   32       57.198168   0.000000
   33       58.107717   0.000000
   34       58.202483   0.000000
   35       59.405344   0.000000
   36       59.615507   0.000000
   37       62.454648   0.000000
   38       65.799180   0.000000
   39       66.792930   0.000000
   40       67.846885   0.000000
 
  0.2727273E+00  0.9090909E-01  0.0000000E+00  0.9015778E-02
    1        1.562602   1.000000
    2        3.173452   1.000000
    3        3.338078   1.000000
    4        4.414880   1.000000
    5        5.282446   1.000000
    6        5.395148   1.000000
    7        5.914583   1.000000
    8        6.754252   1.025328
    9        7.512743  -0.003398
   10        7.909496  -0.000000
   11        7.990660  -0.000000
   12       14.418172   0.000000
   13       15.370139   0.000000
   14       19.742103   0.000000
   15       24.236329   0.000000
   16       25.929796   0.000000
   17       28.461223   0.000000
   18       30.290135   0.000000
   19       34.121176   0.000000
   20       35.194128   0.000000
   21       37.150233   0.000000
   22       40.620257   0.000000
   23       40.689032   0.000000
   24       43.236528   0.000000
   25       46.937719   0.000000
   26       49.725726   0.000000
   27       51.385779   0.000000
   28       52.260996   0.000000
   29       52.969174   0.000000
   30       55.789940   0.000000
   31       57.275321   0.000000
   32       58.209169   0.000000
   33       59.021641   0.000000
   34       59.544683   0.000000
   35       61.181062   0.000000
   36       62.929980   0.000000
   37       64.299103   0.000000
   38       65.506076   0.000000
   39       66.015749   0.000000
   40       67.845637   0.000000
 
  0.3636364E+00  0.9090909E-01  0.0000000E+00  0.9015778E-02
    1        2.451986   1.000000
    2        2.871236   1.000000
    3        2.955788   1.000000
    4        4.807854   1.000000
    5        5.220010   1.000000
    6        5.581940   1.000000
    7        5.625998   1.000000
    8        7.634021  -0.000213
    9        7.904524  -0.000000
   10        8.054060  -0.000000
   11        9.184642  -0.000000
   12       14.338738   0.000000
   13       16.670742   0.000000
   14       18.457921   0.000000
   15       22.915827   0.000000
   16       22.968840   0.000000
   17       25.278942   0.000000
   18       29.394626   0.000000
   19       33.153957   0.000000
   20       34.651084   0.000000
   21       38.020740   0.000000
   22       41.052252   0.000000
   23       42.001211   0.000000
   24       43.132317   0.000000
   25       48.775165   0.000000
   26       49.746650   0.000000
   27       51.878261   0.000000
   28       53.536777   0.000000
   29       54.994721   0.000000
   30       57.357810   0.000000
   31       57.715671   0.000000
   32       59.437223   0.000000
   33       60.419367   0.000000
   34       62.553397   0.000000
   35       62.762198   0.000000
   36       63.967875   0.000000
   37       64.405635   0.000000
   38       65.730114   0.000000
   39       66.901894   0.000000
   40       67.148214   0.000000
 
  0.4545455E+00  0.9090909E-01  0.0000000E+00  0.4507889E-02
    1        2.626541   1.000000
    2        2.769580   1.000000
    3        2.829091   1.000000
    4        5.159711   1.000000
    5        5.184880   1.000000
    6        5.430938   1.000000
    7        5.749572   1.000000
    8        7.901050  -0.000000
    9        8.129163  -0.000000
   10        8.146025  -0.000000
   11       10.410185  -0.000000
   12       12.571641   0.000000
   13       18.198618   0.000000
   14       19.138849   0.000000
   15       21.210008   0.000000
   16       22.153300   0.000000
   17       23.792301   0.000000
   18       29.076773   0.000000
   19       32.758415   0.000000
   20       34.487554   0.000000
   21       38.136008   0.000000
   22       41.887962   0.000000
   23       42.163848   0.000000
   24       43.834229   0.000000
   25       46.455976   0.000000
   26       51.669594   0.000000
   27       51.693525   0.000000
   28       54.736597   0.000000
   29       56.543382   0.000000
   30       56.861470   0.000000
   31       60.090545   0.000000
   32       60.395659   0.000000
   33       60.638505   0.000000
   34       60.720507   0.000000
   35       62.832275   0.000000
   36       65.271350   0.000000
   37       65.904236   0.000000
   38       66.067250   0.000000
   39       66.412754   0.000000
   40       68.288372   0.000000
 
  0.1818182E+00  0.1818182E+00  0.0000000E+00  0.4507889E-02
    1        1.456339   1.000000
    2        3.486100   1.000000
    3        3.638060   1.000000
    4        3.916617   1.000000
    5        5.279496   1.000000
    6        5.286738   1.000000
    7        6.067538   1.000000
    8        6.264374   1.000000
    9        7.489486  -0.005228
   10        7.819800  -0.000001
   11        8.051230  -0.000000
   12       14.149430   0.000000
   13       15.531940   0.000000
   14       21.397279   0.000000
   15       22.171261   0.000000
   16       27.413901   0.000000
   17       28.832200   0.000000
   18       30.749611   0.000000
   19       31.509040   0.000000
   20       36.879650   0.000000
   21       37.940187   0.000000
   22       41.665110   0.000000
   23       41.938550   0.000000
   24       44.386741   0.000000
   25       45.001483   0.000000
   26       47.043374   0.000000
   27       48.517230   0.000000
   28       53.752037   0.000000
   29       53.788090   0.000000
   30       55.647747   0.000000
   31       55.844323   0.000000
   32       58.715344   0.000000
   33       58.746579   0.000000
   34       61.306982   0.000000
   35       61.672709   0.000000
   36       61.815497   0.000000
   37       61.962610   0.000000
   38       65.862775   0.000000
   39       66.077066   0.000000
   40       68.816010   0.000000
 
  0.2727273E+00  0.1818182E+00  0.0000000E+00  0.9015778E-02
    1        2.663470   1.000000
    2        3.161632   1.000000
    3        3.392973   1.000000
    4        4.087598   1.000000
    5        5.050825   1.000000
    6        5.550906   1.000000
    7        5.687480   1.000000
    8        6.809833   1.035119
    9        7.744714  -0.000008
   10        8.004783  -0.000000
   11        9.306878  -0.000000
   12       15.915631   0.000000
   13       16.326384   0.000000
   14       18.628726   0.000000
   15       20.576000   0.000000
   16       24.823773   0.000000
   17       27.231091   0.000000
   18       27.344185   0.000000
   19       30.169904   0.000000
   20       38.397878   0.000000
   21       38.912682   0.000000
   22       41.961677   0.000000
   23       44.043518   0.000000
   24       44.875405   0.000000
   25       46.491378   0.000000
   26       48.280076   0.000000
   27       49.747462   0.000000
   28       51.464031   0.000000
   29       54.605680   0.000000
   30       55.099188   0.000000
   31       57.049852   0.000000
   32       59.375786   0.000000
   33       60.762346   0.000000
   34       61.777912   0.000000
   35       63.961205   0.000000
   36       64.038518   0.000000
   37       65.164579   0.000000
   38       66.242693   0.000000
   39       67.103647   0.000000
   40       68.368453   0.000000
 
  0.3636364E+00  0.1818182E+00  0.0000000E+00  0.9015778E-02
    1        3.006770   1.000000
    2        3.093839   1.000000
    3        3.193845   1.000000
    4        4.557424   1.000000
    5        5.059911   1.000000
    6        5.303450   1.000000
    7        5.814697   1.000000
    8        7.487089  -0.005454
    9        7.702311  -0.000031
   10        8.043641  -0.000000
   11       10.894714  -0.000000
   12       13.951920   0.000000
   13       18.552706   0.000000
   14       18.971291   0.000000
   15       19.848476   0.000000
   16       22.193923   0.000000
   17       24.459109   0.000000
   18       26.631302   0.000000
   19       29.519182   0.000000
   20       38.267354   0.000000
   21       40.579742   0.000000
   22       42.506674   0.000000
   23       44.170808   0.000000
   24       44.840132   0.000000
   25       48.655647   0.000000
   26       48.741478   0.000000
   27       50.864107   0.000000
   28       51.000977   0.000000
   29       54.700987   0.000000
   30       55.916017   0.000000
   31       56.311920   0.000000
   32       59.783934   0.000000
   33       60.188202   0.000000
   34       61.058011   0.000000
   35       65.084698   0.000000
   36       65.480658   0.000000
   37       66.880290   0.000000
   38       67.299807   0.000000
   39       67.379746   0.000000
   40       67.851365   0.000000
 
  0.2727273E+00  0.2727273E+00  0.0000000E+00  0.4507889E-02
    1        3.129515   1.000000
    2        3.441823   1.000000
    3        3.781123   1.000000
    4        3.799491   1.000000
    5        4.901165   1.000000
    6        5.319836   1.000000
    7        5.862076   1.000000
    8        7.073682   0.461071
    9        7.599533  -0.000511
   10        8.016778  -0.000000
   11       11.016271  -0.000000
   12       16.064328   0.000000
   13       16.570956   0.000000
   14       18.580202   0.000000
   15       19.756724   0.000000
   16       24.154869   0.000000
   17       24.248253   0.000000
   18       26.128185   0.000000
   19       27.027933   0.000000
   20       40.451741   0.000000
   21       41.430704   0.000000
   22       44.236681   0.000000
   23       45.211322   0.000000
   24       46.540285   0.000000
   25       46.617793   0.000000
   26       46.868076   0.000000
   27       49.388425   0.000000
   28       51.925274   0.000000
   29       52.283064   0.000000
   30       55.342684   0.000000
   31       56.155058   0.000000
   32       58.599761   0.000000
   33       60.042556   0.000000
   34       61.247617   0.000000
   35       64.833075   0.000000
   36       65.910351   0.000000
   37       66.080251   0.000000
   38       67.692964   0.000000
   39       68.224562   0.000000
   40       68.530981   0.000000
 
  0.3636364E+00  0.2727273E+00  0.0000000E+00  0.4507889E-02
    1        3.141934   1.000000
    2        3.604718   1.000000
    3        3.632571   1.000000
    4        4.133435   1.000000
    5        4.965326   1.000000
    6        5.039725   1.000000
    7        6.010778   1.000000
    8        7.433454  -0.012765
    9        7.544018  -0.001806
   10        7.727347  -0.000014
   11       12.766018   0.000000
   12       14.051785   0.000000
   13       16.190833   0.000000
   14       20.535948   0.000000
   15       20.729358   0.000000
   16       21.998846   0.000000
   17       23.972664   0.000000
   18       24.514095   0.000000
   19       26.416576   0.000000
   20       40.896065   0.000000
   21       43.561483   0.000000
   22       44.551492   0.000000
   23       45.027177   0.000000
   24       45.840125   0.000000
   25       47.524269   0.000000
   26       47.853011   0.000000
   27       50.696958   0.000000
   28       50.919222   0.000000
   29       51.238237   0.000000
   30       54.730439   0.000000
   31       56.292770   0.000000
   32       56.717880   0.000000
   33       59.906983   0.000000
   34       60.445490   0.000000
   35       65.574021   0.000000
   36       66.207830   0.000000
   37       67.723756   0.000000
   38       67.893833   0.000000
   39       68.076520   0.000000
   40       68.143429   0.000000
 
  0.0000000E+00  0.0000000E+00  0.9090909E-01  0.1502630E-02
    1       -1.830113   1.000000
    2        1.982435   1.000000
    3        4.942130   1.000000
    4        5.450633   1.000000
    5        5.450741   1.000000
    6        5.784132   1.000000
    7        5.784263   1.000000
    8        6.355619   1.000003
    9        6.696037   1.012864
   10        6.696069   1.012870
   11        7.821491  -0.000001
   12        7.821524  -0.000001
   13       15.197246   0.000000
   14       30.068250   0.000000
   15       31.069459   0.000000
   16       33.309408   0.000000
   17       35.564053   0.000000
   18       35.564105   0.000000
   19       36.382685   0.000000
   20       36.382842   0.000000
   21       38.663517   0.000000
   22       39.283556   0.000000
   23       39.283574   0.000000
   24       40.711897   0.000000
   25       42.743146   0.000000
   26       42.743160   0.000000
   27       44.432342   0.000000
   28       47.093915   0.000000
   29       47.094256   0.000000
   30       49.147833   0.000000
   31       49.147937   0.000000
   32       51.355086   0.000000
   33       58.812906   0.000000
   34       61.850168   0.000000
   35       61.851052   0.000000
   36       62.499520   0.000000
   37       62.895424   0.000000
   38       62.895947   0.000000
   39       64.168000   0.000000
   40       66.136408   0.000000
 
  0.9090909E-01 -0.7281411E-17  0.9090909E-01  0.9015778E-02
    1       -1.502606   1.000000
    2        2.226612   1.000000
    3        4.915526   1.000000
    4        5.406189   1.000000
    5        5.440209   1.000000
    6        5.634680   1.000000
    7        5.770320   1.000000
    8        5.956774   1.000000
    9        6.575207   1.001467
   10        6.590199   1.002018
   11        7.855057  -0.000000
   12        8.867482  -0.000000
   13       15.251156   0.000000
   14       29.049768   0.000000
   15       31.000588   0.000000
   16       31.768610   0.000000
   17       32.813999   0.000000
   18       34.557022   0.000000
   19       36.010326   0.000000
   20       38.176493   0.000000
   21       38.490658   0.000000
   22       39.348986   0.000000
   23       39.906528   0.000000
   24       40.467712   0.000000
   25       43.836675   0.000000
   26       44.088200   0.000000
   27       45.047221   0.000000
   28       45.126745   0.000000
   29       48.100171   0.000000
   30       50.415922   0.000000
   31       51.402288   0.000000
   32       53.280159   0.000000
   33       57.605718   0.000000
   34       60.365211   0.000000
   35       61.106340   0.000000
   36       62.053688   0.000000
   37       62.417045   0.000000
   38       64.059739   0.000000
   39       65.234611   0.000000
   40       66.220687   0.000000
 
  0.1818182E+00  0.8651941E-17  0.9090909E-01  0.9015778E-02
    1       -0.577051   1.000000
    2        2.807493   1.000000
    3        4.431206   1.000000
    4        4.673829   1.000000
    5        5.264807   1.000000
    6        5.779030   1.000000
    7        6.102162   1.000000
    8        6.340135   1.000002
    9        6.349476   1.000003
   10        6.488448   1.000180
   11        7.915118  -0.000000
   12       10.549926  -0.000000
   13       15.471142   0.000000
   14       25.379204   0.000000
   15       30.012440   0.000000
   16       30.023988   0.000000
   17       31.353845   0.000000
   18       31.898627   0.000000
   19       35.745161   0.000000
   20       37.177231   0.000000
   21       37.445784   0.000000
   22       38.383570   0.000000
   23       40.851045   0.000000
   24       42.326344   0.000000
   25       44.243291   0.000000
   26       45.154443   0.000000
   27       46.618012   0.000000
   28       49.143267   0.000000
   29       50.976025   0.000000
   30       53.624702   0.000000
   31       54.345786   0.000000
   32       55.710673   0.000000
   33       56.609858   0.000000
   34       58.664934   0.000000
   35       59.568232   0.000000
   36       60.881039   0.000000
   37       62.406269   0.000000
   38       65.081748   0.000000
   39       66.466911   0.000000
   40       67.112447   0.000000
 
  0.2727273E+00  0.9616017E-17  0.9090909E-01  0.9015778E-02
    1        0.731646   1.000000
    2        3.109048   1.000000
    3        3.628722   1.000000
    4        4.572146   1.000000
    5        5.079239   1.000000
    6        5.817546   1.000000
    7        5.977979   1.000000
    8        6.653948   1.006720
    9        6.958845   0.885154
   10        7.134198   0.223899
   11        7.955118  -0.000000
   12       12.304677  -0.000000
   13       15.967334   0.000000
   14       21.421143   0.000000
   15       26.970468   0.000000
   16       27.615633   0.000000
   17       29.304714   0.000000
   18       31.894452   0.000000
   19       34.030942   0.000000
   20       36.247008   0.000000
   21       36.674437   0.000000
   22       39.080370   0.000000
   23       39.232481   0.000000
   24       43.017461   0.000000
   25       47.612461   0.000000
   26       49.105972   0.000000
   27       49.932743   0.000000
   28       50.440009   0.000000
   29       53.874581   0.000000
   30       54.374237   0.000000
   31       55.891481   0.000000
   32       57.381145   0.000000
   33       58.285940   0.000000
   34       58.376414   0.000000
   35       60.240123   0.000000
   36       61.179263   0.000000
   37       63.308327   0.000000
   38       65.360792   0.000000
   39       65.956545   0.000000
   40       67.192842   0.000000
 
  0.3636364E+00  0.4094886E-16  0.9090909E-01  0.9015778E-02
    1        1.888585   1.000000
    2        2.829062   1.000000
    3        3.170691   1.000000
    4        4.564815   1.000000
    5        5.472695   1.000000
    6        5.679231   1.000000
    7        5.737359   1.000000
    8        7.714285  -0.000022
    9        7.777023  -0.000003
   10        7.777842  -0.000003
   11        8.003486  -0.000000
   12       13.679628   0.000000
   13       16.460776   0.000000
   14       18.732125   0.000000
   15       23.782176   0.000000
   16       25.779358   0.000000
   17       26.664881   0.000000
   18       31.106507   0.000000
   19       32.885455   0.000000
   20       34.964732   0.000000
   21       37.754917   0.000000
   22       38.127821   0.000000
   23       40.353685   0.000000
   24       43.665713   0.000000
   25       48.539168   0.000000
   26       51.052265   0.000000
   27       52.391969   0.000000
   28       53.466290   0.000000
   29       54.579172   0.000000
   30       56.287156   0.000000
   31       57.347120   0.000000
   32       58.364979   0.000000
   33       59.222577   0.000000
   34       59.843322   0.000000
   35       61.871349   0.000000
   36       63.437782   0.000000
   37       65.011373   0.000000
   38       65.041616   0.000000
   39       66.810173   0.000000
   40       67.014896   0.000000
 
  0.4545455E+00 -0.1210080E-16  0.9090909E-01  0.9015778E-02
    1        2.322706   1.000000
    2        2.531564   1.000000
    3        3.044937   1.000000
    4        4.642809   1.000000
    5        5.599365   1.000000
    6        5.691599   1.000000
    7        5.944463   1.000000
    8        7.928587  -0.000000
    9        8.184531  -0.000000
   10        8.312657  -0.000000
   11        9.373714  -0.000000
   12       12.725294   0.000000
   13       17.163800   0.000000
   14       18.771883   0.000000
   15       21.719350   0.000000
   16       23.992419   0.000000
   17       24.755386   0.000000
   18       30.509346   0.000000
   19       32.525852   0.000000
   20       34.108929   0.000000
   21       37.673474   0.000000