<?xml version="1.0" encoding="ISO-8859-1"?>
<modeling>
 <generator>
  <i name="program" type="string">vasp </i>
  <i name="version" type="string">6.2.0  </i>
  <i name="subversion" type="string">18Jan21 (build Mar 17 2021 09:06:54) complex                          serial </i>
  <i name="platform" type="string">LinuxIFC </i>
  <i name="date" type="string">2021 09 09 </i>
  <i name="time" type="string">12:07:06 </i>
 </generator>
 <incar>
  <i type="string" name="PREC">normal</i>
  <i type="int" name="ICHARG">     1</i>
  <i type="int" name="IBRION">     1</i>
  <i name="EDIFF">      0.00000100</i>
  <i type="int" name="NSW">     0</i>
  <i type="int" name="ISIF">     2</i>
  <i name="ENCUT">    280.00000000</i>
  <i type="int" name="NBANDS">    40</i>
  <i type="int" name="ISMEAR">     1</i>
  <i name="SIGMA">      0.20000000</i>
  <i type="logical" name="LCHARG"> T  </i>
  <i type="int" name="KPAR">     1</i>
  <i type="int" name="NCORE">     1</i>
  <i type="string" name="GGA">PE</i>
 </incar>
 <primitive_cell>
  <structure name="primitive_cell" >
   <crystal>
    <varray name="basis" >
     <v>       2.37660000       0.00000000       0.00000000 </v>
     <v>      -1.18830000       2.05819597       0.00000000 </v>
     <v>       0.00000000       0.00000000       4.09836000 </v>
    </varray>
    <i name="volume">     20.04716299 </i>
    <varray name="rec_basis" >
     <v>       0.42076917       0.24293119       0.00000000 </v>
     <v>       0.00000000       0.48586238       0.00000000 </v>
     <v>       0.00000000       0.00000000       0.24400004 </v>
    </varray>
   </crystal>
   <varray name="positions" >
    <v>       0.00000000       0.00000000       0.00000000 </v>
    <v>       0.33333333       0.66666667       0.50000000 </v>
   </varray>
  </structure>
  <varray name="primitive_index" >
   <v type="int" >        1 </v>
   <v type="int" >        2 </v>
  </varray>
 </primitive_cell>
 <kpoints>
  <generation param="Monkhorst-Pack">
   <v type="int" name="divisions">      11       11       11 </v>
   <v name="usershift">      0.00000000       0.00000000       0.00000000 </v>
   <v name="genvec1">      0.09090909      -0.00000000       0.00000000 </v>
   <v name="genvec2">      0.00000000       0.09090909       0.00000000 </v>
   <v name="genvec3">      0.00000000       0.00000000       0.09090909 </v>
   <v name="shift">      0.00000000       0.00000000       0.00000000 </v>
  </generation>
  <varray name="kpointlist" >
   <v>       0.00000000       0.00000000       0.00000000 </v>
   <v>       0.09090909      -0.00000000       0.00000000 </v>
   <v>       0.18181818       0.00000000       0.00000000 </v>
   <v>       0.27272727       0.00000000       0.00000000 </v>
   <v>       0.36363636       0.00000000       0.00000000 </v>
   <v>       0.45454545      -0.00000000       0.00000000 </v>
   <v>       0.09090909       0.09090909       0.00000000 </v>
   <v>       0.18181818       0.09090909       0.00000000 </v>
   <v>       0.27272727       0.09090909       0.00000000 </v>
   <v>       0.36363636       0.09090909       0.00000000 </v>
   <v>       0.45454545       0.09090909       0.00000000 </v>
   <v>       0.18181818       0.18181818       0.00000000 </v>
   <v>       0.27272727       0.18181818       0.00000000 </v>
   <v>       0.36363636       0.18181818       0.00000000 </v>
   <v>       0.27272727       0.27272727       0.00000000 </v>
   <v>       0.36363636       0.27272727       0.00000000 </v>
   <v>       0.00000000       0.00000000       0.09090909 </v>
   <v>       0.09090909      -0.00000000       0.09090909 </v>
   <v>       0.18181818       0.00000000       0.09090909 </v>
   <v>       0.27272727       0.00000000       0.09090909 </v>
   <v>       0.36363636       0.00000000       0.09090909 </v>
   <v>       0.45454545      -0.00000000       0.09090909 </v>
   <v>       0.09090909       0.09090909       0.09090909 </v>
   <v>       0.18181818       0.09090909       0.09090909 </v>
   <v>       0.27272727       0.09090909       0.09090909 </v>
   <v>       0.36363636       0.09090909       0.09090909 </v>
   <v>       0.45454545       0.09090909       0.09090909 </v>
   <v>       0.18181818       0.18181818       0.09090909 </v>
   <v>       0.27272727       0.18181818       0.09090909 </v>
   <v>       0.36363636       0.18181818       0.09090909 </v>
   <v>       0.27272727       0.27272727       0.09090909 </v>
   <v>       0.36363636       0.27272727       0.09090909 </v>
   <v>       0.00000000       0.00000000       0.18181818 </v>
   <v>       0.09090909      -0.00000000       0.18181818 </v>
   <v>       0.18181818       0.00000000       0.18181818 </v>
   <v>       0.27272727       0.00000000       0.18181818 </v>
   <v>       0.36363636       0.00000000       0.18181818 </v>
   <v>       0.45454545      -0.00000000       0.18181818 </v>
   <v>       0.09090909       0.09090909       0.18181818 </v>
   <v>       0.18181818       0.09090909       0.18181818 </v>
   <v>       0.27272727       0.09090909       0.18181818 </v>
   <v>       0.36363636       0.09090909       0.18181818 </v>
   <v>       0.45454545       0.09090909       0.18181818 </v>
   <v>       0.18181818       0.18181818       0.18181818 </v>
   <v>       0.27272727       0.18181818       0.18181818 </v>
   <v>       0.36363636       0.18181818       0.18181818 </v>
   <v>       0.27272727       0.27272727       0.18181818 </v>
   <v>       0.36363636       0.27272727       0.18181818 </v>
   <v>       0.00000000       0.00000000       0.27272727 </v>
   <v>       0.09090909      -0.00000000       0.27272727 </v>
   <v>       0.18181818       0.00000000       0.27272727 </v>
   <v>       0.27272727       0.00000000       0.27272727 </v>
   <v>       0.36363636       0.00000000       0.27272727 </v>
   <v>       0.45454545      -0.00000000       0.27272727 </v>
   <v>       0.09090909       0.09090909       0.27272727 </v>
   <v>       0.18181818       0.09090909       0.27272727 </v>
   <v>       0.27272727       0.09090909       0.27272727 </v>
   <v>       0.36363636       0.09090909       0.27272727 </v>
   <v>       0.45454545       0.09090909       0.27272727 </v>
   <v>       0.18181818       0.18181818       0.27272727 </v>
   <v>       0.27272727       0.18181818       0.27272727 </v>
   <v>       0.36363636       0.18181818       0.27272727 </v>
   <v>       0.27272727       0.27272727       0.27272727 </v>
   <v>       0.36363636       0.27272727       0.27272727 </v>
   <v>       0.00000000       0.00000000       0.36363636 </v>
   <v>       0.09090909      -0.00000000       0.36363636 </v>
   <v>       0.18181818       0.00000000       0.36363636 </v>
   <v>       0.27272727       0.00000000       0.36363636 </v>
   <v>       0.36363636       0.00000000       0.36363636 </v>
   <v>       0.45454545      -0.00000000       0.36363636 </v>
   <v>       0.09090909       0.09090909       0.36363636 </v>
   <v>       0.18181818       0.09090909       0.36363636 </v>
   <v>       0.27272727       0.09090909       0.36363636 </v>
   <v>       0.36363636       0.09090909       0.36363636 </v>
   <v>       0.45454545       0.09090909       0.36363636 </v>
   <v>       0.18181818       0.18181818       0.36363636 </v>
   <v>       0.27272727       0.18181818       0.36363636 </v>
   <v>       0.36363636       0.18181818       0.36363636 </v>
   <v>       0.27272727       0.27272727       0.36363636 </v>
   <v>       0.36363636       0.27272727       0.36363636 </v>
   <v>       0.00000000       0.00000000       0.45454545 </v>
   <v>       0.09090909      -0.00000000       0.45454545 </v>
   <v>       0.18181818       0.00000000       0.45454545 </v>
   <v>       0.27272727       0.00000000       0.45454545 </v>
   <v>       0.36363636       0.00000000       0.45454545 </v>
   <v>       0.45454545      -0.00000000       0.45454545 </v>
   <v>       0.09090909       0.09090909       0.45454545 </v>
   <v>       0.18181818       0.09090909       0.45454545 </v>
   <v>       0.27272727       0.09090909       0.45454545 </v>
   <v>       0.36363636       0.09090909       0.45454545 </v>
   <v>       0.45454545       0.09090909       0.45454545 </v>
   <v>       0.18181818       0.18181818       0.45454545 </v>
   <v>       0.27272727       0.18181818       0.45454545 </v>
   <v>       0.36363636       0.18181818       0.45454545 </v>
   <v>       0.27272727       0.27272727       0.45454545 </v>
   <v>       0.36363636       0.27272727       0.45454545 </v>
  </varray>
  <varray name="weights" >
   <v>       0.00075131 </v>
   <v>       0.00450789 </v>
   <v>       0.00450789 </v>
   <v>       0.00450789 </v>
   <v>       0.00450789 </v>
   <v>       0.00450789 </v>
   <v>       0.00450789 </v>
   <v>       0.00901578 </v>
   <v>       0.00901578 </v>
   <v>       0.00901578 </v>
   <v>       0.00450789 </v>
   <v>       0.00450789 </v>
   <v>       0.00901578 </v>
   <v>       0.00901578 </v>
   <v>       0.00450789 </v>
   <v>       0.00450789 </v>
   <v>       0.00150263 </v>
   <v>       0.00901578 </v>
   <v>       0.00901578 </v>
   <v>       0.00901578 </v>
   <v>       0.00901578 </v>
   <v>       0.00901578 </v>
   <v>       0.00901578 </v>
   <v>       0.01803156 </v>
   <v>       0.01803156 </v>
   <v>       0.01803156 </v>
   <v>       0.00901578 </v>
   <v>       0.00901578 </v>
   <v>       0.01803156 </v>
   <v>       0.01803156 </v>
   <v>       0.00901578 </v>
   <v>       0.00901578 </v>
   <v>       0.00150263 </v>
   <v>       0.00901578 </v>
   <v>       0.00901578 </v>
   <v>       0.00901578 </v>
   <v>       0.00901578 </v>
   <v>       0.00901578 </v>
   <v>       0.00901578 </v>
   <v>       0.01803156 </v>
   <v>       0.01803156 </v>
   <v>       0.01803156 </v>
   <v>       0.00901578 </v>
   <v>       0.00901578 </v>
   <v>       0.01803156 </v>
   <v>       0.01803156 </v>
   <v>       0.00901578 </v>
   <v>       0.00901578 </v>
   <v>       0.00150263 </v>
   <v>       0.00901578 </v>
   <v>       0.00901578 </v>
   <v>       0.00901578 </v>
   <v>       0.00901578 </v>
   <v>       0.00901578 </v>
   <v>       0.00901578 </v>
   <v>       0.01803156 </v>
   <v>       0.01803156 </v>
   <v>       0.01803156 </v>
   <v>       0.00901578 </v>
   <v>       0.00901578 </v>
   <v>       0.01803156 </v>
   <v>       0.01803156 </v>
   <v>       0.00901578 </v>
   <v>       0.00901578 </v>
   <v>       0.00150263 </v>
   <v>       0.00901578 </v>
   <v>       0.00901578 </v>
   <v>       0.00901578 </v>
   <v>       0.00901578 </v>
   <v>       0.00901578 </v>
   <v>       0.00901578 </v>
   <v>       0.01803156 </v>
   <v>       0.01803156 </v>
   <v>       0.01803156 </v>
   <v>       0.00901578 </v>
   <v>       0.00901578 </v>
   <v>       0.01803156 </v>
   <v>       0.01803156 </v>
   <v>       0.00901578 </v>
   <v>       0.00901578 </v>
   <v>       0.00150263 </v>
   <v>       0.00901578 </v>
   <v>       0.00901578 </v>
   <v>       0.00901578 </v>
   <v>       0.00901578 </v>
   <v>       0.00901578 </v>
   <v>       0.00901578 </v>
   <v>       0.01803156 </v>
   <v>       0.01803156 </v>
   <v>       0.01803156 </v>
   <v>       0.00901578 </v>
   <v>       0.00901578 </v>
   <v>       0.01803156 </v>
   <v>       0.01803156 </v>
   <v>       0.00901578 </v>
   <v>       0.00901578 </v>
  </varray>
 </kpoints>
 <parameters>
  <separator name="general" >
   <i type="string" name="SYSTEM">unknown system</i>
   <i type="logical" name="LCOMPAT"> F  </i>
  </separator>
  <separator name="electronic" >
   <i type="string" name="PREC">normal</i>
   <i name="ENMAX">    280.00000000</i>
   <i name="ENAUG">    511.36800000</i>
   <i name="EDIFF">      0.00000100</i>
   <i type="int" name="IALGO">    38</i>
   <i type="int" name="IWAVPR">     0</i>
   <i type="int" name="NBANDS">    40</i>
   <i type="int" name="NBANDSLOW">    -1</i>
   <i type="int" name="NBANDSHIGH">    -1</i>
   <i name="NELECT">     16.00000000</i>
   <i type="int" name="TURBO">     0</i>
   <i type="int" name="IRESTART">     0</i>
   <i type="int" name="NREBOOT">     0</i>
   <i type="int" name="NMIN">     0</i>
   <i name="EREF">      0.00000000</i>
   <separator name="electronic smearing" >
    <i type="int" name="ISMEAR">     1</i>
    <i name="SIGMA">      0.20000000</i>
    <i name="KSPACING">      0.50000000</i>
    <i type="logical" name="KGAMMA"> T  </i>
    <i type="logical" name="KBLOWUP"> T  </i>
   </separator>
   <separator name="electronic projectors" >
    <i type="logical" name="LREAL"> F  </i>
    <v name="ROPT">      0.00000000</v>
    <i type="int" name="LMAXPAW">  -100</i>
    <i type="int" name="LMAXMIX">     2</i>
    <i type="logical" name="NLSPLINE"> F  </i>
   </separator>
   <separator name="electronic startup" >
    <i type="int" name="ISTART">     0</i>
    <i type="int" name="ICHARG">     1</i>
    <i type="int" name="INIWAV">     1</i>
   </separator>
   <separator name="electronic spin" >
    <i type="int" name="ISPIN">     1</i>
    <i type="logical" name="LNONCOLLINEAR"> F  </i>
    <v name="MAGMOM">      1.00000000      1.00000000</v>
    <i name="NUPDOWN">     -1.00000000</i>
    <i type="logical" name="LSORBIT"> F  </i>
    <v name="SAXIS">      0.00000000      0.00000000      1.00000000</v>
    <i type="logical" name="LSPIRAL"> F  </i>
    <v name="QSPIRAL">      0.00000000      0.00000000      0.00000000</v>
    <i type="logical" name="LZEROZ"> F  </i>
   </separator>
   <separator name="electronic exchange-correlation" >
    <i type="logical" name="LASPH"> F  </i>
    <i type="logical" name="LMETAGGA"> F  </i>
   </separator>
   <separator name="electronic convergence" >
    <i type="int" name="NELM">    60</i>
    <i type="int" name="NELMDL">    -5</i>
    <i type="int" name="NELMIN">     2</i>
    <i name="ENINI">    280.00000000</i>
    <separator name="electronic convergence detail" >
     <i type="logical" name="LDIAG"> T  </i>
     <i type="logical" name="LSUBROT"> F  </i>
     <i name="WEIMIN">      0.00000000</i>
     <i name="EBREAK">      0.00000001</i>
     <i name="DEPER">      0.30000000</i>
     <i type="int" name="NRMM">     4</i>
     <i name="TIME">      0.40000000</i>
    </separator>
   </separator>
   <separator name="electronic mixer" >
    <i name="AMIX">      0.40000000</i>
    <i name="BMIX">      1.00000000</i>
    <i name="AMIN">      0.10000000</i>
    <i name="AMIX_MAG">      1.60000000</i>
    <i name="BMIX_MAG">      1.00000000</i>
    <separator name="electronic mixer details" >
     <i type="int" name="IMIX">     4</i>
     <i type="logical" name="MIXFIRST"> F  </i>
     <i type="int" name="MAXMIX">   -45</i>
     <i name="WC">    100.00000000</i>
     <i type="int" name="INIMIX">     1</i>
     <i type="int" name="MIXPRE">     1</i>
     <i type="int" name="MREMOVE">     5</i>
    </separator>
   </separator>
   <separator name="electronic dipolcorrection" >
    <i type="logical" name="LDIPOL"> F  </i>
    <i type="logical" name="LMONO"> F  </i>
    <i type="int" name="IDIPOL">     0</i>
    <i name="EPSILON">      1.00000000</i>
    <v name="DIPOL">   -100.00000000   -100.00000000   -100.00000000</v>
    <i name="EFIELD">      0.00000000</i>
   </separator>
  </separator>
  <separator name="grids" >
   <i type="int" name="NGX">    10</i>
   <i type="int" name="NGY">    10</i>
   <i type="int" name="NGZ">    18</i>
   <i type="int" name="NGXF">    20</i>
   <i type="int" name="NGYF">    20</i>
   <i type="int" name="NGZF">    36</i>
   <i type="logical" name="ADDGRID"> F  </i>
  </separator>
  <separator name="ionic" >
   <i type="int" name="NSW">     0</i>
   <i type="int" name="IBRION">    -1</i>
   <i type="int" name="MDALGO">     0</i>
   <i type="int" name="ISIF">     2</i>
   <i name="PSTRESS">      0.00000000</i>
   <i name="EDIFFG">      0.00001000</i>
   <i type="int" name="NFREE">     0</i>
   <i name="POTIM">      0.50000000</i>
   <i name="SMASS">     -3.00000000</i>
   <i name="SCALEE">      1.00000000</i>
  </separator>
  <separator name="ionic md" >
   <i name="TEBEG">      0.00010000</i>
   <i name="TEEND">      0.00010000</i>
   <i type="int" name="NBLOCK">     1</i>
   <i type="int" name="KBLOCK">     1</i>
   <i type="int" name="NPACO">   256</i>
   <i name="APACO">     16.00000000</i>
  </separator>
  <separator name="symmetry" >
   <i type="int" name="ISYM">     2</i>
   <i name="SYMPREC">      0.00001000</i>
  </separator>
  <separator name="dos" >
   <i type="int" name="LORBIT">     0</i>
   <v name="RWIGS">     -1.00000000</v>
   <i type="int" name="NEDOS">   301</i>
   <i name="EMIN">     10.00000000</i>
   <i name="EMAX">    -10.00000000</i>
   <i name="EFERMI">      0.00000000</i>
  </separator>
  <separator name="writing" >
   <i type="int" name="NWRITE">     2</i>
   <i type="logical" name="LWAVE"> T  </i>
   <i type="logical" name="LDOWNSAMPLE"> F  </i>
   <i type="logical" name="LCHARG"> T  </i>
   <i type="logical" name="LPARD"> F  </i>
   <i type="logical" name="LVTOT"> F  </i>
   <i type="logical" name="LVHAR"> F  </i>
   <i type="logical" name="LELF"> F  </i>
   <i type="logical" name="LOPTICS"> F  </i>
   <v name="STM">      0.00000000      0.00000000      0.00000000      0.00000000      0.00000000      0.00000000      0.00000000</v>
  </separator>
  <separator name="performance" >
   <i type="int" name="NPAR">     1</i>
   <i type="int" name="NSIM">     4</i>
   <i type="int" name="NBLK">    -1</i>
   <i type="logical" name="LPLANE"> T  </i>
   <i type="logical" name="LSCALAPACK"> F  </i>
   <i type="logical" name="LSCAAWARE"> F  </i>
   <i type="logical" name="LSCALU"> F  </i>
   <i type="logical" name="LASYNC"> F  </i>
   <i type="logical" name="LORBITALREAL"> F  </i>
  </separator>
  <separator name="miscellaneous" >
   <i type="int" name="IDIOT">     3</i>
   <i type="int" name="PHON_NSTRUCT">    -1</i>
   <i type="logical" name="LMUSIC"> F  </i>
   <v name="POMASS">     55.84700000</v>
   <v name="DARWINR">      0.00000000</v>
   <v name="DARWINV">      1.00000000</v>
   <i type="logical" name="LCORR"> T  </i>
  </separator>
  <i type="logical" name="GGA_COMPAT"> T  </i>
  <i type="logical" name="LBERRY"> F  </i>
  <i type="int" name="ICORELEVEL">     0</i>
  <i type="logical" name="LDAU"> F  </i>
  <i type="int" name="I_CONSTRAINED_M">     0</i>
  <separator name="electronic exchange-correlation" >
   <i type="string" name="GGA">PE</i>
   <i type="int" name="VOSKOWN">     0</i>
   <i type="logical" name="LHFCALC"> F  </i>
   <i type="string" name="PRECFOCK"></i>
   <i type="logical" name="LSYMGRAD"> F  </i>
   <i type="logical" name="LHFONE"> F  </i>
   <i type="logical" name="LRHFCALC"> F  </i>
   <i type="logical" name="LTHOMAS"> F  </i>
   <i type="logical" name="LMODELHF"> F  </i>
   <i type="logical" name="LFOCKACE"> F  </i>
   <i name="ENCUT4O">     -1.00000000</i>
   <i type="int" name="EXXOEP">     0</i>
   <i type="int" name="FOURORBIT">     0</i>
   <i name="AEXX">      0.00000000</i>
   <i name="HFALPHA">      0.00000000</i>
   <i name="MCALPHA">      0.00000000</i>
   <i name="ALDAX">      1.00000000</i>
   <i name="AGGAX">      1.00000000</i>
   <i name="ALDAC">      1.00000000</i>
   <i name="AGGAC">      1.00000000</i>
   <i type="int" name="NKREDX">     1</i>
   <i type="int" name="NKREDY">     1</i>
   <i type="int" name="NKREDZ">     1</i>
   <i type="logical" name="SHIFTRED"> F  </i>
   <i type="logical" name="ODDONLY"> F  </i>
   <i type="logical" name="EVENONLY"> F  </i>
   <i type="int" name="LMAXFOCK">     0</i>
   <i type="int" name="NMAXFOCKAE">     0</i>
   <i type="logical" name="LFOCKAEDFT"> F  </i>
   <i name="HFSCREEN">      0.00000000</i>
   <i name="HFSCREENC">      0.00000000</i>
   <i type="int" name="NBANDSGWLOW">     0</i>
  </separator>
  <separator name="vdW DFT" >
   <i type="logical" name="LUSE_VDW"> F  </i>
   <i name="Zab_VDW">     -0.84910000</i>
   <i name="PARAM1">      0.12340000</i>
   <i name="PARAM2">      1.00000000</i>
   <i name="PARAM3">      0.00000000</i>
  </separator>
  <separator name="model GW" >
   <i type="int" name="MODEL_GW">     0</i>
   <i name="MODEL_EPS0">      6.01414890</i>
   <i name="MODEL_ALPHA">      1.00000000</i>
  </separator>
  <separator name="linear response parameters" >
   <i type="logical" name="LEPSILON"> F  </i>
   <i type="logical" name="LRPA"> F  </i>
   <i type="logical" name="LNABLA"> F  </i>
   <i type="logical" name="LVEL"> F  </i>
   <i type="int" name="KINTER">     0</i>
   <i name="CSHIFT">      0.10000000</i>
   <i name="OMEGAMAX">     -1.00000000</i>
   <i name="DEG_THRESHOLD">      0.00200000</i>
   <i name="RTIME">     -0.10000000</i>
   <i name="WPLASMAI">      0.00000000</i>
   <v name="DFIELD">      0.00000000      0.00000000      0.00000000</v>
   <v name="WPLASMA">      0.00000000      0.00000000      0.00000000      0.00000000      0.00000000      0.00000000      0.00000000      0.00000000      0.00000000</v>
  </separator>
  <separator name="orbital magnetization" >
   <i type="logical" name="NUCIND"> F  </i>
   <v name="MAGPOS">      0.00000000      0.00000000      0.00000000</v>
   <i type="logical" name="LNICSALL"> T  </i>
   <i type="logical" name="ORBITALMAG"> F  </i>
   <i type="logical" name="LMAGBLOCH"> F  </i>
   <i type="logical" name="LCHIMAG"> F  </i>
   <i type="logical" name="LGAUGE"> T  </i>
   <i type="int" name="MAGATOM">     0</i>
   <v name="MAGDIPOL">      0.00000000      0.00000000      0.00000000</v>
   <v name="AVECCONST">      0.00000000      0.00000000      0.00000000</v>
  </separator>
  <separator name="response functions" >
   <i type="logical" name="LFINITE_TEMPERATURE"> F  </i>
   <i type="logical" name="LADDER"> F  </i>
   <i type="logical" name="LRPAFORCE"> F  </i>
   <i type="logical" name="LFXC"> F  </i>
   <i type="logical" name="LHARTREE"> T  </i>
   <i type="int" name="IBSE">     0</i>
   <v type="int" name="KPOINT">    -1     0     0     0</v>
   <i type="logical" name="LTCTC"> F  </i>
   <i type="logical" name="LTCTE"> F  </i>
   <i type="logical" name="LTETE"> F  </i>
   <i type="logical" name="LTRIPLET"> F  </i>
   <i type="logical" name="LFXCEPS"> F  </i>
   <i type="logical" name="LFXHEG"> F  </i>
   <i type="int" name="NATURALO">     2</i>
   <i type="logical" name="LHOLEGF"> F  </i>
   <i type="logical" name="L2ORDER"> F  </i>
   <i type="logical" name="LDMP1"> F  </i>
   <i type="logical" name="LMP2LT"> F  </i>
   <i type="logical" name="LSMP2LT"> F  </i>
   <i type="logical" name="LGWLF"> F  </i>
   <i name="ENCUTGW">     -2.00000000</i>
   <i name="ENCUTGWSOFT">     -2.00000000</i>
   <i name="ENCUTLF">     -1.00000000</i>
   <i type="logical" name="LESF_SPLINES"> F  </i>
   <i type="int" name="LMAXMP2">    -1</i>
   <i name="SCISSOR">      0.00000000</i>
   <i type="int" name="NOMEGA">     0</i>
   <i type="int" name="NOMEGAR">     0</i>
   <i type="int" name="NBANDSGW">    -1</i>
   <i type="int" name="NBANDSO">    -1</i>
   <i type="int" name="NBANDSV">    -1</i>
   <i type="int" name="NELM">     1</i>
   <i type="int" name="NELMHF">     1</i>
   <i type="int" name="DIM">     3</i>
   <i type="int" name="IESPILON">     4</i>
   <i type="int" name="ANTIRES">     0</i>
   <i name="OMEGAMAX">    -30.00000000</i>
   <i name="OMEGAMIN">    -30.00000000</i>
   <i name="OMEGATL">   -200.00000000</i>
   <i type="int" name="OMEGAGRID">     0</i>
   <i name="CSHIFT">     -0.10000000</i>
   <i type="logical" name="LSELFENERGY"> F  </i>
   <i type="logical" name="LSPECTRAL"> F  </i>
   <i type="logical" name="LSPECTRALGW"> F  </i>
   <i type="logical" name="LSINGLES"> F  </i>
   <i type="logical" name="LFERMIGW"> F  </i>
   <i type="logical" name="ODDONLYGW"> F  </i>
   <i type="logical" name="EVENONLYGW"> F  </i>
   <i type="int" name="NKREDLFX">     1</i>
   <i type="int" name="NKREDLFY">     1</i>
   <i type="int" name="NKREDLFZ">     1</i>
   <i type="int" name="MAXMEM">  2800</i>
   <i type="int" name="TELESCOPE">     0</i>
   <i type="int" name="NTAUPAR">    -1</i>
   <i type="int" name="NOMEGAPAR">    -1</i>
   <i name="DAMP_NEWTON">      0.80000001</i>
   <i name="LAMBDA">      1.00000000</i>
  </separator>
  <separator name="External order field" >
   <i name="OFIELD_KAPPA">      0.00000000</i>
   <v name="OFIELD_K">      0.00000000      0.00000000      0.00000000</v>
   <i name="OFIELD_Q6_NEAR">      0.00000000</i>
   <i name="OFIELD_Q6_FAR">      0.00000000</i>
   <i name="OFIELD_A">      0.00000000</i>
  </separator>
 </parameters>
 <atominfo>
  <atoms>       2 </atoms>
  <types>       1 </types>
  <array name="atoms" >
   <dimension dim="1">ion</dimension>
   <field type="string">element</field>
   <field type="int">atomtype</field>
   <set>
    <rc><c>Fe</c><c>   1</c></rc>
    <rc><c>Fe</c><c>   1</c></rc>
   </set>
  </array>
  <array name="atomtypes" >
   <dimension dim="1">type</dimension>
   <field type="int">atomspertype</field>
   <field type="string">element</field>
   <field>mass</field>
   <field>valence</field>
   <field type="string">pseudopotential</field>
   <set>
    <rc><c>   2</c><c>Fe</c><c>     55.84700000</c><c>      8.00000000</c><c>  PAW_PBE Fe 06Sep2000                  </c></rc>
   </set>
  </array>
 </atominfo>
 <structure name="initialpos" >
  <crystal>
   <varray name="basis" >
    <v>       2.37660000       0.00000000       0.00000000 </v>
    <v>      -1.18830000       2.05819597       0.00000000 </v>
    <v>       0.00000000       0.00000000       4.09836000 </v>
   </varray>
   <i name="volume">     20.04716299 </i>
   <varray name="rec_basis" >
    <v>       0.42076917       0.24293119       0.00000000 </v>
    <v>       0.00000000       0.48586238       0.00000000 </v>
    <v>       0.00000000       0.00000000       0.24400004 </v>
   </varray>
  </crystal>
  <varray name="positions" >
   <v>       0.00000000       0.00000000       0.00000000 </v>
   <v>       0.33333333       0.66666667       0.50000000 </v>
  </varray>
 </structure>
 <calculation>
  <scstep>
   <time name="dav">    0.78    0.80</time>
   <time name="total">    0.80    0.82</time>
   <energy>
    <i name="alphaZ">    137.90235759 </i>
    <i name="ewald">  -1233.96272273 </i>
    <i name="hartreedc">   -204.74102637 </i>
    <i name="XCdc">      8.59435283 </i>
    <i name="pawpsdc">   1109.69170683 </i>
    <i name="pawaedc">  -1125.09647265 </i>
    <i name="eentropy">      0.00070343 </i>
    <i name="bandstr">    180.22913328 </i>
    <i name="atom">   1188.57490811 </i>
    <i name="e_fr_energy">     61.19294032 </i>
    <i name="e_wo_entrp">     61.19223689 </i>
    <i name="e_0_energy">     61.19270584 </i>
   </energy>
  </scstep>
  <scstep>
   <time name="dav">    0.69    0.69</time>
   <time name="total">    0.70    0.70</time>
   <energy>
    <i name="e_fr_energy">    -14.68096984 </i>
    <i name="e_wo_entrp">    -14.68295368 </i>
    <i name="e_0_energy">    -14.68163112 </i>
   </energy>
  </scstep>
  <scstep>
   <time name="dav">    0.79    0.79</time>
   <time name="total">    0.79    0.79</time>
   <energy>
    <i name="e_fr_energy">    -19.24785244 </i>
    <i name="e_wo_entrp">    -19.24768116 </i>
    <i name="e_0_energy">    -19.24779535 </i>
   </energy>
  </scstep>
  <scstep>
   <time name="dav">    0.76    0.76</time>
   <time name="total">    0.77    0.77</time>
   <energy>
    <i name="e_fr_energy">    -19.26804375 </i>
    <i name="e_wo_entrp">    -19.26792188 </i>
    <i name="e_0_energy">    -19.26800313 </i>
   </energy>
  </scstep>
  <scstep>
   <time name="dav">    0.75    0.75</time>
   <time name="total">    0.78    0.78</time>
   <energy>
    <i name="e_fr_energy">    -19.26806601 </i>
    <i name="e_wo_entrp">    -19.26794419 </i>
    <i name="e_0_energy">    -19.26802541 </i>
   </energy>
  </scstep>
  <scstep>
   <time name="dav">    0.91    0.91</time>
   <time name="total">    0.94    0.94</time>
   <energy>
    <i name="e_fr_energy">    -16.39273398 </i>
    <i name="e_wo_entrp">    -16.39437459 </i>
    <i name="e_0_energy">    -16.39328085 </i>
   </energy>
  </scstep>
  <scstep>
   <time name="dav">    0.83    0.83</time>
   <time name="total">    0.86    0.86</time>
   <energy>
    <i name="e_fr_energy">    -16.20730902 </i>
    <i name="e_wo_entrp">    -16.20892510 </i>
    <i name="e_0_energy">    -16.20784771 </i>
   </energy>
  </scstep>
  <scstep>
   <time name="dav">    0.82    0.82</time>
   <time name="total">    0.85    0.85</time>
   <energy>
    <i name="e_fr_energy">    -16.18024757 </i>
    <i name="e_wo_entrp">    -16.18189197 </i>
    <i name="e_0_energy">    -16.18079570 </i>
   </energy>
  </scstep>
  <scstep>
   <time name="dav">    0.89    0.89</time>
   <time name="total">    0.93    0.93</time>
   <energy>
    <i name="e_fr_energy">    -16.16925375 </i>
    <i name="e_wo_entrp">    -16.17088991 </i>
    <i name="e_0_energy">    -16.16979914 </i>
   </energy>
  </scstep>
  <scstep>
   <time name="dav">    0.74    0.74</time>
   <time name="total">    0.77    0.77</time>
   <energy>
    <i name="e_fr_energy">    -16.16927781 </i>
    <i name="e_wo_entrp">    -16.17090854 </i>
    <i name="e_0_energy">    -16.16982139 </i>
   </energy>
  </scstep>
  <scstep>
   <time name="dav">    0.74    0.74</time>
   <time name="total">    0.77    0.77</time>
   <energy>
    <i name="e_fr_energy">    -16.16927014 </i>
    <i name="e_wo_entrp">    -16.17090087 </i>
    <i name="e_0_energy">    -16.16981371 </i>
   </energy>
  </scstep>
  <scstep>
   <time name="dav">    0.56    0.56</time>
   <time name="total">    0.57    0.57</time>
   <energy>
    <i name="alphaZ">    137.90235759 </i>
    <i name="ewald">  -1233.96272273 </i>
    <i name="hartreedc">   -170.47502608 </i>
    <i name="XCdc">      6.99438205 </i>
    <i name="pawpsdc">   1492.16922620 </i>
    <i name="pawaedc">  -1509.76955814 </i>
    <i name="eentropy">      0.00163112 </i>
    <i name="bandstr">     72.39553233 </i>
    <i name="atom">   1188.57490811 </i>
    <i name="e_fr_energy">    -16.16926955 </i>
    <i name="e_wo_entrp">    -16.17090067 </i>
    <i name="e_0_energy">    -16.16981325 </i>
   </energy>
  </scstep>
  <structure>
   <crystal>
    <varray name="basis" >
     <v>       2.37660000       0.00000000       0.00000000 </v>
     <v>      -1.18830000       2.05819597       0.00000000 </v>
     <v>       0.00000000       0.00000000       4.09836000 </v>
    </varray>
    <i name="volume">     20.04716299 </i>
    <varray name="rec_basis" >
     <v>       0.42076917       0.24293119       0.00000000 </v>
     <v>       0.00000000       0.48586238       0.00000000 </v>
     <v>       0.00000000       0.00000000       0.24400004 </v>
    </varray>
   </crystal>
   <varray name="positions" >
    <v>       0.00000000       0.00000000       0.00000000 </v>
    <v>       0.33333333       0.66666667       0.50000000 </v>
   </varray>
  </structure>
  <varray name="forces" >
   <v>      -0.00000000      -0.00000000      -0.00000000 </v>
   <v>       0.00000000       0.00000000       0.00000000 </v>
  </varray>
  <varray name="stress" >
   <v>     174.94529868      -0.00000000       0.00000000 </v>
   <v>      -0.00000000     174.94529868      -0.00000000 </v>
   <v>       0.00000000      -0.00000000    -228.37238364 </v>
  </varray>
  <energy>
   <i name="e_fr_energy">    -16.16926955 </i>
   <i name="e_wo_entrp">    -16.17090067 </i>
   <i name="e_0_energy">    -16.16981325 </i>
  </energy>
  <time name="totalsc">    9.84    9.86</time>
  <eigenvalues>
   <array>
    <dimension dim="1">band</dimension>
    <dimension dim="2">kpoint</dimension>
    <dimension dim="3">spin</dimension>
    <field>eigene</field>
    <field>occ</field>
    <set>
     <set comment="spin 1">
      <set comment="kpoint 1">
       <r>   -1.9133    1.0000 </r>
       <r>    2.0102    1.0000 </r>
       <r>    4.9664    1.0000 </r>
       <r>    5.4635    1.0000 </r>
       <r>    5.4636    1.0000 </r>
       <r>    5.8045    1.0000 </r>
       <r>    5.8047    1.0000 </r>
       <r>    6.5908    1.0020 </r>
       <r>    6.6520    1.0065 </r>
       <r>    6.6521    1.0065 </r>
       <r>    7.8333   -0.0000 </r>
       <r>    7.8333   -0.0000 </r>
       <r>   14.8019    0.0000 </r>
       <r>   30.3394    0.0000 </r>
       <r>   31.3766    0.0000 </r>
       <r>   33.4889    0.0000 </r>
       <r>   35.5106    0.0000 </r>
       <r>   35.5107    0.0000 </r>
       <r>   36.3792    0.0000 </r>
       <r>   36.3794    0.0000 </r>
       <r>   38.2211    0.0000 </r>
       <r>   39.3871    0.0000 </r>
       <r>   39.3871    0.0000 </r>
       <r>   40.4505    0.0000 </r>
       <r>   43.1210    0.0000 </r>
       <r>   43.1211    0.0000 </r>
       <r>   44.1559    0.0000 </r>
       <r>   46.8194    0.0000 </r>
       <r>   46.8197    0.0000 </r>
       <r>   48.6989    0.0000 </r>
       <r>   48.6990    0.0000 </r>
       <r>   51.4710    0.0000 </r>
       <r>   59.5053    0.0000 </r>
       <r>   62.1209    0.0000 </r>
       <r>   62.1218    0.0000 </r>
       <r>   62.4229    0.0000 </r>
       <r>   63.3872    0.0000 </r>
       <r>   64.4573    0.0000 </r>
       <r>   64.4584    0.0000 </r>
       <r>   65.8101    0.0000 </r>
      </set>
      <set comment="kpoint 2">
       <r>   -1.5839    1.0000 </r>
       <r>    2.2498    1.0000 </r>
       <r>    4.9220    1.0000 </r>
       <r>    5.4506    1.0000 </r>
       <r>    5.6398    1.0000 </r>
       <r>    5.6516    1.0000 </r>
       <r>    5.6966    1.0000 </r>
       <r>    5.9795    1.0000 </r>
       <r>    6.5248    1.0005 </r>
       <r>    6.5360    1.0006 </r>
       <r>    7.8672   -0.0000 </r>
       <r>    9.0355   -0.0000 </r>
       <r>   14.8205    0.0000 </r>
       <r>   29.0603    0.0000 </r>
       <r>   31.6727    0.0000 </r>
       <r>   31.7035    0.0000 </r>
       <r>   32.7411    0.0000 </r>
       <r>   35.2370    0.0000 </r>
       <r>   35.4208    0.0000 </r>
       <r>   37.9938    0.0000 </r>
       <r>   38.8197    0.0000 </r>
       <r>   39.2453    0.0000 </r>
       <r>   39.9709    0.0000 </r>
       <r>   40.0126    0.0000 </r>
       <r>   44.2137    0.0000 </r>
       <r>   44.2513    0.0000 </r>
       <r>   44.4734    0.0000 </r>
       <r>   44.6270    0.0000 </r>
       <r>   48.2384    0.0000 </r>
       <r>   50.1141    0.0000 </r>
       <r>   51.0812    0.0000 </r>
       <r>   53.3127    0.0000 </r>
       <r>   58.7488    0.0000 </r>
       <r>   60.9199    0.0000 </r>
       <r>   61.1763    0.0000 </r>
       <r>   61.5922    0.0000 </r>
       <r>   61.9722    0.0000 </r>
       <r>   65.2766    0.0000 </r>
       <r>   65.7168    0.0000 </r>
       <r>   66.4061    0.0000 </r>
      </set>
      <set comment="kpoint 3">
       <r>   -0.6507    1.0000 </r>
       <r>    2.8152    1.0000 </r>
       <r>    4.5210    1.0000 </r>
       <r>    4.6543    1.0000 </r>
       <r>    5.2975    1.0000 </r>
       <r>    5.8765    1.0000 </r>
       <r>    6.1873    1.0000 </r>
       <r>    6.2028    1.0000 </r>
       <r>    6.2644    1.0000 </r>
       <r>    6.4700    1.0001 </r>
       <r>    7.9319   -0.0000 </r>
       <r>   10.9131   -0.0000 </r>
       <r>   14.9158    0.0000 </r>
       <r>   25.3181    0.0000 </r>
       <r>   29.9295    0.0000 </r>
       <r>   30.4789    0.0000 </r>
       <r>   31.0742    0.0000 </r>
       <r>   32.4663    0.0000 </r>
       <r>   35.9224    0.0000 </r>
       <r>   37.2808    0.0000 </r>
       <r>   37.7967    0.0000 </r>
       <r>   37.9731    0.0000 </r>
       <r>   40.4575    0.0000 </r>
       <r>   41.6455    0.0000 </r>
       <r>   43.9569    0.0000 </r>
       <r>   45.1422    0.0000 </r>
       <r>   46.8321    0.0000 </r>
       <r>   49.1070    0.0000 </r>
       <r>   51.0738    0.0000 </r>
       <r>   53.5758    0.0000 </r>
       <r>   54.0182    0.0000 </r>
       <r>   56.7848    0.0000 </r>
       <r>   57.2517    0.0000 </r>
       <r>   58.1498    0.0000 </r>
       <r>   59.2165    0.0000 </r>
       <r>   60.8372    0.0000 </r>
       <r>   62.2671    0.0000 </r>
       <r>   65.4705    0.0000 </r>
       <r>   66.3619    0.0000 </r>
       <r>   67.6250    0.0000 </r>
      </set>
      <set comment="kpoint 4">
       <r>    0.6798    1.0000 </r>
       <r>    3.1036    1.0000 </r>
       <r>    3.6599    1.0000 </r>
       <r>    4.5599    1.0000 </r>
       <r>    5.1333    1.0000 </r>
       <r>    5.7991    1.0000 </r>
       <r>    5.9566    1.0000 </r>
       <r>    6.6157    1.0034 </r>
       <r>    6.9472    0.9138 </r>
       <r>    7.1529    0.1633 </r>
       <r>    7.9770   -0.0000 </r>
       <r>   13.0157    0.0000 </r>
       <r>   15.1216    0.0000 </r>
       <r>   21.3527    0.0000 </r>
       <r>   27.4808    0.0000 </r>
       <r>   27.5050    0.0000 </r>
       <r>   28.9041    0.0000 </r>
       <r>   32.1164    0.0000 </r>
       <r>   34.0403    0.0000 </r>
       <r>   37.3428    0.0000 </r>
       <r>   37.8890    0.0000 </r>
       <r>   38.0841    0.0000 </r>
       <r>   38.1337    0.0000 </r>
       <r>   42.1555    0.0000 </r>
       <r>   47.4962    0.0000 </r>
       <r>   49.2289    0.0000 </r>
       <r>   50.2818    0.0000 </r>
       <r>   51.8612    0.0000 </r>
       <r>   53.2441    0.0000 </r>
       <r>   54.0828    0.0000 </r>
       <r>   55.6142    0.0000 </r>
       <r>   56.8923    0.0000 </r>
       <r>   58.7325    0.0000 </r>
       <r>   59.3374    0.0000 </r>
       <r>   59.7478    0.0000 </r>
       <r>   61.1491    0.0000 </r>
       <r>   63.1068    0.0000 </r>
       <r>   65.2050    0.0000 </r>
       <r>   66.9509    0.0000 </r>
       <r>   66.9759    0.0000 </r>
      </set>
      <set comment="kpoint 5">
       <r>    1.8967    1.0000 </r>
       <r>    2.8553    1.0000 </r>
       <r>    3.0860    1.0000 </r>
       <r>    4.7541    1.0000 </r>
       <r>    5.4358    1.0000 </r>
       <r>    5.4691    1.0000 </r>
       <r>    5.7019    1.0000 </r>
       <r>    7.7104   -0.0000 </r>
       <r>    7.8132   -0.0000 </r>
       <r>    7.8421   -0.0000 </r>
       <r>    7.9938   -0.0000 </r>
       <r>   14.9083    0.0000 </r>
       <r>   15.2570    0.0000 </r>
       <r>   18.5823    0.0000 </r>
       <r>   24.2241    0.0000 </r>
       <r>   25.6538    0.0000 </r>
       <r>   26.1678    0.0000 </r>
       <r>   31.1519    0.0000 </r>
       <r>   32.8763    0.0000 </r>
       <r>   36.1208    0.0000 </r>
       <r>   36.9450    0.0000 </r>
       <r>   38.9685    0.0000 </r>
       <r>   39.9785    0.0000 </r>
       <r>   42.6036    0.0000 </r>
       <r>   50.2064    0.0000 </r>
       <r>   50.9470    0.0000 </r>
       <r>   51.1492    0.0000 </r>
       <r>   54.3879    0.0000 </r>
       <r>   54.5882    0.0000 </r>
       <r>   55.4576    0.0000 </r>
       <r>   57.7363    0.0000 </r>
       <r>   58.5846    0.0000 </r>
       <r>   58.6195    0.0000 </r>
       <r>   60.0015    0.0000 </r>
       <r>   61.7650    0.0000 </r>
       <r>   63.5034    0.0000 </r>
       <r>   64.7142    0.0000 </r>
       <r>   65.6318    0.0000 </r>
       <r>   66.6722    0.0000 </r>
       <r>   66.9104    0.0000 </r>
      </set>
      <set comment="kpoint 6">
       <r>    2.4089    1.0000 </r>
       <r>    2.6227    1.0000 </r>
       <r>    2.8016    1.0000 </r>
       <r>    5.2242    1.0000 </r>
       <r>    5.2605    1.0000 </r>
       <r>    5.5587    1.0000 </r>
       <r>    5.7110    1.0000 </r>
       <r>    7.9982   -0.0000 </r>
       <r>    8.1774   -0.0000 </r>
       <r>    8.3113   -0.0000 </r>
       <r>    9.4636   -0.0000 </r>
       <r>   12.9015    0.0000 </r>
       <r>   17.3733    0.0000 </r>
       <r>   18.6920    0.0000 </r>
       <r>   21.6330    0.0000 </r>
       <r>   23.5598    0.0000 </r>
       <r>   24.6221    0.0000 </r>
       <r>   30.5156    0.0000 </r>
       <r>   32.5405    0.0000 </r>
       <r>   35.0052    0.0000 </r>
       <r>   36.7375    0.0000 </r>
       <r>   39.7411    0.0000 </r>
       <r>   42.1801    0.0000 </r>
       <r>   42.7786    0.0000 </r>
       <r>   46.8339    0.0000 </r>
       <r>   51.5385    0.0000 </r>
       <r>   52.9497    0.0000 </r>
       <r>   56.6743    0.0000 </r>
       <r>   57.4658    0.0000 </r>
       <r>   57.5630    0.0000 </r>
       <r>   58.7809    0.0000 </r>
       <r>   60.2490    0.0000 </r>
       <r>   60.3498    0.0000 </r>
       <r>   62.1288    0.0000 </r>
       <r>   62.3003    0.0000 </r>
       <r>   63.3029    0.0000 </r>
       <r>   65.1549    0.0000 </r>
       <r>   65.6428    0.0000 </r>
       <r>   66.0323    0.0000 </r>
       <r>   66.7294    0.0000 </r>
      </set>
      <set comment="kpoint 7">
       <r>   -0.9501    1.0000 </r>
       <r>    2.6694    1.0000 </r>
       <r>    4.7045    1.0000 </r>
       <r>    4.8148    1.0000 </r>
       <r>    5.4877    1.0000 </r>
       <r>    5.5798    1.0000 </r>
       <r>    6.0428    1.0000 </r>
       <r>    6.1296    1.0000 </r>
       <r>    6.3613    1.0000 </r>
       <r>    6.5203    1.0004 </r>
       <r>    7.8896   -0.0000 </r>
       <r>   10.3918   -0.0000 </r>
       <r>   14.8826    0.0000 </r>
       <r>   27.0330    0.0000 </r>
       <r>   28.3059    0.0000 </r>
       <r>   32.0019    0.0000 </r>
       <r>   32.6641    0.0000 </r>
       <r>   33.8608    0.0000 </r>
       <r>   34.2622    0.0000 </r>
       <r>   36.2122    0.0000 </r>
       <r>   37.4973    0.0000 </r>
       <r>   41.0985    0.0000 </r>
       <r>   41.5858    0.0000 </r>
       <r>   42.2629    0.0000 </r>
       <r>   43.2145    0.0000 </r>
       <r>   43.2423    0.0000 </r>
       <r>   43.4015    0.0000 </r>
       <r>   49.5773    0.0000 </r>
       <r>   51.7629    0.0000 </r>
       <r>   51.9628    0.0000 </r>
       <r>   52.0476    0.0000 </r>
       <r>   56.0947    0.0000 </r>
       <r>   57.7455    0.0000 </r>
       <r>   59.0251    0.0000 </r>
       <r>   59.5835    0.0000 </r>
       <r>   60.8473    0.0000 </r>
       <r>   61.8072    0.0000 </r>
       <r>   65.7518    0.0000 </r>
       <r>   66.4689    0.0000 </r>
       <r>   67.9369    0.0000 </r>
      </set>
      <set comment="kpoint 8">
       <r>    0.2051    1.0000 </r>
       <r>    3.2087    1.0000 </r>
       <r>    3.9724    1.0000 </r>
       <r>    4.3651    1.0000 </r>
       <r>    5.2213    1.0000 </r>
       <r>    5.7192    1.0000 </r>
       <r>    6.0135    1.0000 </r>
       <r>    6.2765    1.0000 </r>
       <r>    6.7422    1.0225 </r>
       <r>    7.0688    0.4817 </r>
       <r>    7.9056   -0.0000 </r>
       <r>   12.2764   -0.0000 </r>
       <r>   15.0796    0.0000 </r>
       <r>   23.3720    0.0000 </r>
       <r>   25.9481    0.0000 </r>
       <r>   29.2568    0.0000 </r>
       <r>   31.5203    0.0000 </r>
       <r>   31.7063    0.0000 </r>
       <r>   34.8523    0.0000 </r>
       <r>   35.7868    0.0000 </r>
       <r>   36.2735    0.0000 </r>
       <r>   40.8886    0.0000 </r>
       <r>   41.0162    0.0000 </r>
       <r>   41.7835    0.0000 </r>
       <r>   44.9453    0.0000 </r>
       <r>   45.9577    0.0000 </r>
       <r>   47.7379    0.0000 </r>
       <r>   52.0554    0.0000 </r>
       <r>   54.1162    0.0000 </r>
       <r>   54.9127    0.0000 </r>
       <r>   55.0342    0.0000 </r>
       <r>   57.1982    0.0000 </r>
       <r>   58.1077    0.0000 </r>
       <r>   58.2025    0.0000 </r>
       <r>   59.4053    0.0000 </r>
       <r>   59.6155    0.0000 </r>
       <r>   62.4546    0.0000 </r>
       <r>   65.7992    0.0000 </r>
       <r>   66.7929    0.0000 </r>
       <r>   67.8469    0.0000 </r>
      </set>
      <set comment="kpoint 9">
       <r>    1.5626    1.0000 </r>
       <r>    3.1735    1.0000 </r>
       <r>    3.3381    1.0000 </r>
       <r>    4.4149    1.0000 </r>
       <r>    5.2824    1.0000 </r>
       <r>    5.3951    1.0000 </r>
       <r>    5.9146    1.0000 </r>
       <r>    6.7543    1.0253 </r>
       <r>    7.5127   -0.0034 </r>
       <r>    7.9095   -0.0000 </r>
       <r>    7.9907   -0.0000 </r>
       <r>   14.4182    0.0000 </r>
       <r>   15.3701    0.0000 </r>
       <r>   19.7421    0.0000 </r>
       <r>   24.2363    0.0000 </r>
       <r>   25.9298    0.0000 </r>
       <r>   28.4612    0.0000 </r>
       <r>   30.2901    0.0000 </r>
       <r>   34.1212    0.0000 </r>
       <r>   35.1941    0.0000 </r>
       <r>   37.1502    0.0000 </r>
       <r>   40.6203    0.0000 </r>
       <r>   40.6890    0.0000 </r>
       <r>   43.2365    0.0000 </r>
       <r>   46.9377    0.0000 </r>
       <r>   49.7257    0.0000 </r>
       <r>   51.3858    0.0000 </r>
       <r>   52.2610    0.0000 </r>
       <r>   52.9692    0.0000 </r>
       <r>   55.7899    0.0000 </r>
       <r>   57.2753    0.0000 </r>
       <r>   58.2092    0.0000 </r>
       <r>   59.0216    0.0000 </r>
       <r>   59.5447    0.0000 </r>
       <r>   61.1811    0.0000 </r>
       <r>   62.9300    0.0000 </r>
       <r>   64.2991    0.0000 </r>
       <r>   65.5061    0.0000 </r>
       <r>   66.0157    0.0000 </r>
       <r>   67.8456    0.0000 </r>
      </set>
      <set comment="kpoint 10">
       <r>    2.4520    1.0000 </r>
       <r>    2.8712    1.0000 </r>
       <r>    2.9558    1.0000 </r>
       <r>    4.8079    1.0000 </r>
       <r>    5.2200    1.0000 </r>
       <r>    5.5819    1.0000 </r>
       <r>    5.6260    1.0000 </r>
       <r>    7.6340   -0.0002 </r>
       <r>    7.9045   -0.0000 </r>
       <r>    8.0541   -0.0000 </r>
       <r>    9.1846   -0.0000 </r>
       <r>   14.3387    0.0000 </r>
       <r>   16.6707    0.0000 </r>
       <r>   18.4579    0.0000 </r>
       <r>   22.9158    0.0000 </r>
       <r>   22.9688    0.0000 </r>
       <r>   25.2789    0.0000 </r>
       <r>   29.3946    0.0000 </r>
       <r>   33.1540    0.0000 </r>
       <r>   34.6511    0.0000 </r>
       <r>   38.0207    0.0000 </r>
       <r>   41.0523    0.0000 </r>
       <r>   42.0012    0.0000 </r>
       <r>   43.1323    0.0000 </r>
       <r>   48.7752    0.0000 </r>
       <r>   49.7466    0.0000 </r>
       <r>   51.8783    0.0000 </r>
       <r>   53.5368    0.0000 </r>
       <r>   54.9947    0.0000 </r>
       <r>   57.3578    0.0000 </r>
       <r>   57.7157    0.0000 </r>
       <r>   59.4372    0.0000 </r>
       <r>   60.4194    0.0000 </r>
       <r>   62.5534    0.0000 </r>
       <r>   62.7622    0.0000 </r>
       <r>   63.9679    0.0000 </r>
       <r>   64.4056    0.0000 </r>
       <r>   65.7301    0.0000 </r>
       <r>   66.9019    0.0000 </r>
       <r>   67.1482    0.0000 </r>
      </set>
      <set comment="kpoint 11">
       <r>    2.6265    1.0000 </r>
       <r>    2.7696    1.0000 </r>
       <r>    2.8291    1.0000 </r>
       <r>    5.1597    1.0000 </r>
       <r>    5.1849    1.0000 </r>
       <r>    5.4309    1.0000 </r>
       <r>    5.7496    1.0000 </r>
       <r>    7.9010   -0.0000 </r>
       <r>    8.1292   -0.0000 </r>
       <r>    8.1460   -0.0000 </r>
       <r>   10.4102   -0.0000 </r>
       <r>   12.5716    0.0000 </r>
       <r>   18.1986    0.0000 </r>
       <r>   19.1388    0.0000 </r>
       <r>   21.2100    0.0000 </r>
       <r>   22.1533    0.0000 </r>
       <r>   23.7923    0.0000 </r>
       <r>   29.0768    0.0000 </r>
       <r>   32.7584    0.0000 </r>
       <r>   34.4876    0.0000 </r>
       <r>   38.1360    0.0000 </r>
       <r>   41.8880    0.0000 </r>
       <r>   42.1638    0.0000 </r>
       <r>   43.8342    0.0000 </r>
       <r>   46.4560    0.0000 </r>
       <r>   51.6696    0.0000 </r>
       <r>   51.6935    0.0000 </r>
       <r>   54.7366    0.0000 </r>
       <r>   56.5434    0.0000 </r>
       <r>   56.8615    0.0000 </r>
       <r>   60.0905    0.0000 </r>
       <r>   60.3957    0.0000 </r>
       <r>   60.6385    0.0000 </r>
       <r>   60.7205    0.0000 </r>
       <r>   62.8323    0.0000 </r>
       <r>   65.2713    0.0000 </r>
       <r>   65.9042    0.0000 </r>
       <r>   66.0673    0.0000 </r>
       <r>   66.4128    0.0000 </r>
       <r>   68.2884    0.0000 </r>
      </set>
      <set comment="kpoint 12">
       <r>    1.4563    1.0000 </r>
       <r>    3.4861    1.0000 </r>
       <r>    3.6381    1.0000 </r>
       <r>    3.9166    1.0000 </r>
       <r>    5.2795    1.0000 </r>
       <r>    5.2867    1.0000 </r>
       <r>    6.0675    1.0000 </r>
       <r>    6.2644    1.0000 </r>
       <r>    7.4895   -0.0052 </r>
       <r>    7.8198   -0.0000 </r>
       <r>    8.0512   -0.0000 </r>
       <r>   14.1494    0.0000 </r>
       <r>   15.5319    0.0000 </r>
       <r>   21.3973    0.0000 </r>
       <r>   22.1713    0.0000 </r>
       <r>   27.4139    0.0000 </r>
       <r>   28.8322    0.0000 </r>
       <r>   30.7496    0.0000 </r>
       <r>   31.5090    0.0000 </r>
       <r>   36.8797    0.0000 </r>
       <r>   37.9402    0.0000 </r>
       <r>   41.6651    0.0000 </r>
       <r>   41.9386    0.0000 </r>
       <r>   44.3867    0.0000 </r>
       <r>   45.0015    0.0000 </r>
       <r>   47.0434    0.0000 </r>
       <r>   48.5172    0.0000 </r>
       <r>   53.7520    0.0000 </r>
       <r>   53.7881    0.0000 </r>
       <r>   55.6477    0.0000 </r>
       <r>   55.8443    0.0000 </r>
       <r>   58.7153    0.0000 </r>
       <r>   58.7466    0.0000 </r>
       <r>   61.3070    0.0000 </r>
       <r>   61.6727    0.0000 </r>
       <r>   61.8155    0.0000 </r>
       <r>   61.9626    0.0000 </r>
       <r>   65.8628    0.0000 </r>
       <r>   66.0771    0.0000 </r>
       <r>   68.8160    0.0000 </r>
      </set>
      <set comment="kpoint 13">
       <r>    2.6635    1.0000 </r>
       <r>    3.1616    1.0000 </r>
       <r>    3.3930    1.0000 </r>
       <r>    4.0876    1.0000 </r>
       <r>    5.0508    1.0000 </r>
       <r>    5.5509    1.0000 </r>
       <r>    5.6875    1.0000 </r>
       <r>    6.8098    1.0351 </r>
       <r>    7.7447   -0.0000 </r>
       <r>    8.0048   -0.0000 </r>
       <r>    9.3069   -0.0000 </r>
       <r>   15.9156    0.0000 </r>
       <r>   16.3264    0.0000 </r>
       <r>   18.6287    0.0000 </r>
       <r>   20.5760    0.0000 </r>
       <r>   24.8238    0.0000 </r>
       <r>   27.2311    0.0000 </r>
       <r>   27.3442    0.0000 </r>
       <r>   30.1699    0.0000 </r>
       <r>   38.3979    0.0000 </r>
       <r>   38.9127    0.0000 </r>
       <r>   41.9617    0.0000 </r>
       <r>   44.0435    0.0000 </r>
       <r>   44.8754    0.0000 </r>
       <r>   46.4914    0.0000 </r>
       <r>   48.2801    0.0000 </r>
       <r>   49.7475    0.0000 </r>
       <r>   51.4640    0.0000 </r>
       <r>   54.6057    0.0000 </r>
       <r>   55.0992    0.0000 </r>
       <r>   57.0499    0.0000 </r>
       <r>   59.3758    0.0000 </r>
       <r>   60.7623    0.0000 </r>
       <r>   61.7779    0.0000 </r>
       <r>   63.9612    0.0000 </r>
       <r>   64.0385    0.0000 </r>
       <r>   65.1646    0.0000 </r>
       <r>   66.2427    0.0000 </r>
       <r>   67.1036    0.0000 </r>
       <r>   68.3685    0.0000 </r>
      </set>
      <set comment="kpoint 14">
       <r>    3.0068    1.0000 </r>
       <r>    3.0938    1.0000 </r>
       <r>    3.1938    1.0000 </r>
       <r>    4.5574    1.0000 </r>
       <r>    5.0599    1.0000 </r>
       <r>    5.3034    1.0000 </r>
       <r>    5.8147    1.0000 </r>
       <r>    7.4871   -0.0055 </r>
       <r>    7.7023   -0.0000 </r>
       <r>    8.0436   -0.0000 </r>
       <r>   10.8947   -0.0000 </r>
       <r>   13.9519    0.0000 </r>
       <r>   18.5527    0.0000 </r>
       <r>   18.9713    0.0000 </r>
       <r>   19.8485    0.0000 </r>
       <r>   22.1939    0.0000 </r>
       <r>   24.4591    0.0000 </r>
       <r>   26.6313    0.0000 </r>
       <r>   29.5192    0.0000 </r>
       <r>   38.2674    0.0000 </r>
       <r>   40.5797    0.0000 </r>
       <r>   42.5067    0.0000 </r>
       <r>   44.1708    0.0000 </r>
       <r>   44.8401    0.0000 </r>
       <r>   48.6556    0.0000 </r>
       <r>   48.7415    0.0000 </r>
       <r>   50.8641    0.0000 </r>
       <r>   51.0010    0.0000 </r>
       <r>   54.7010    0.0000 </r>
       <r>   55.9160    0.0000 </r>
       <r>   56.3119    0.0000 </r>
       <r>   59.7839    0.0000 </r>
       <r>   60.1882    0.0000 </r>
       <r>   61.0580    0.0000 </r>
       <r>   65.0847    0.0000 </r>
       <r>   65.4807    0.0000 </r>
       <r>   66.8803    0.0000 </r>
       <r>   67.2998    0.0000 </r>
       <r>   67.3797    0.0000 </r>
       <r>   67.8514    0.0000 </r>
      </set>
      <set comment="kpoint 15">
       <r>    3.1295    1.0000 </r>
       <r>    3.4418    1.0000 </r>
       <r>    3.7811    1.0000 </r>
       <r>    3.7995    1.0000 </r>
       <r>    4.9012    1.0000 </r>
       <r>    5.3198    1.0000 </r>
       <r>    5.8621    1.0000 </r>
       <r>    7.0737    0.4611 </r>
       <r>    7.5995   -0.0005 </r>
       <r>    8.0168   -0.0000 </r>
       <r>   11.0163   -0.0000 </r>
       <r>   16.0643    0.0000 </r>
       <r>   16.5710    0.0000 </r>
       <r>   18.5802    0.0000 </r>
       <r>   19.7567    0.0000 </r>
       <r>   24.1549    0.0000 </r>
       <r>   24.2483    0.0000 </r>
       <r>   26.1282    0.0000 </r>
       <r>   27.0279    0.0000 </r>
       <r>   40.4517    0.0000 </r>
       <r>   41.4307    0.0000 </r>
       <r>   44.2367    0.0000 </r>
       <r>   45.2113    0.0000 </r>
       <r>   46.5403    0.0000 </r>
       <r>   46.6178    0.0000 </r>
       <r>   46.8681    0.0000 </r>
       <r>   49.3884    0.0000 </r>
       <r>   51.9253    0.0000 </r>
       <r>   52.2831    0.0000 </r>
       <r>   55.3427    0.0000 </r>
       <r>   56.1551    0.0000 </r>
       <r>   58.5998    0.0000 </r>
       <r>   60.0426    0.0000 </r>
       <r>   61.2476    0.0000 </r>
       <r>   64.8331    0.0000 </r>
       <r>   65.9104    0.0000 </r>
       <r>   66.0803    0.0000 </r>
       <r>   67.6930    0.0000 </r>
       <r>   68.2246    0.0000 </r>
       <r>   68.5310    0.0000 </r>
      </set>
      <set comment="kpoint 16">
       <r>    3.1419    1.0000 </r>
       <r>    3.6047    1.0000 </r>
       <r>    3.6326    1.0000 </r>
       <r>    4.1334    1.0000 </r>
       <r>    4.9653    1.0000 </r>
       <r>    5.0397    1.0000 </r>
       <r>    6.0108    1.0000 </r>
       <r>    7.4335   -0.0128 </r>
       <r>    7.5440   -0.0018 </r>
       <r>    7.7273   -0.0000 </r>
       <r>   12.7660    0.0000 </r>
       <r>   14.0518    0.0000 </r>
       <r>   16.1908    0.0000 </r>
       <r>   20.5359    0.0000 </r>
       <r>   20.7294    0.0000 </r>
       <r>   21.9988    0.0000 </r>
       <r>   23.9727    0.0000 </r>
       <r>   24.5141    0.0000 </r>
       <r>   26.4166    0.0000 </r>
       <r>   40.8961    0.0000 </r>
       <r>   43.5615    0.0000 </r>
       <r>   44.5515    0.0000 </r>
       <r>   45.0272    0.0000 </r>
       <r>   45.8401    0.0000 </r>
       <r>   47.5243    0.0000 </r>
       <r>   47.8530    0.0000 </r>
       <r>   50.6970    0.0000 </r>
       <r>   50.9192    0.0000 </r>
       <r>   51.2382    0.0000 </r>
       <r>   54.7304    0.0000 </r>
       <r>   56.2928    0.0000 </r>
       <r>   56.7179    0.0000 </r>
       <r>   59.9070    0.0000 </r>
       <r>   60.4455    0.0000 </r>
       <r>   65.5740    0.0000 </r>
       <r>   66.2078    0.0000 </r>
       <r>   67.7238    0.0000 </r>
       <r>   67.8938    0.0000 </r>
       <r>   68.0765    0.0000 </r>
       <r>   68.1434    0.0000 </r>
      </set>
      <set comment="kpoint 17">
       <r>   -1.8301    1.0000 </r>
       <r>    1.9824    1.0000 </r>
       <r>    4.9421    1.0000 </r>
       <r>    5.4506    1.0000 </r>
       <r>    5.4507    1.0000 </r>
       <r>    5.7841    1.0000 </r>
       <r>    5.7843    1.0000 </r>
       <r>    6.3556    1.0000 </r>
       <r>    6.6960    1.0129 </r>
       <r>    6.6961    1.0129 </r>
       <r>    7.8215   -0.0000 </r>
       <r>    7.8215   -0.0000 </r>
       <r>   15.1972    0.0000 </r>
       <r>   30.0683    0.0000 </r>
       <r>   31.0695    0.0000 </r>
       <r>   33.3094    0.0000 </r>
       <r>   35.5641    0.0000 </r>
       <r>   35.5641    0.0000 </r>
       <r>   36.3827    0.0000 </r>
       <r>   36.3828    0.0000 </r>
       <r>   38.6635    0.0000 </r>
       <r>   39.2836    0.0000 </r>
       <r>   39.2836    0.0000 </r>
       <r>   40.7119    0.0000 </r>
       <r>   42.7431    0.0000 </r>
       <r>   42.7432    0.0000 </r>
       <r>   44.4323    0.0000 </r>
       <r>   47.0939    0.0000 </r>
       <r>   47.0943    0.0000 </r>
       <r>   49.1478    0.0000 </r>
       <r>   49.1479    0.0000 </r>
       <r>   51.3551    0.0000 </r>
       <r>   58.8129    0.0000 </r>
       <r>   61.8502    0.0000 </r>
       <r>   61.8511    0.0000 </r>
       <r>   62.4995    0.0000 </r>
       <r>   62.8954    0.0000 </r>
       <r>   62.8959    0.0000 </r>
       <r>   64.1680    0.0000 </r>
       <r>   66.1364    0.0000 </r>
      </set>
      <set comment="kpoint 18">
       <r>   -1.5026    1.0000 </r>
       <r>    2.2266    1.0000 </r>
       <r>    4.9155    1.0000 </r>
       <r>    5.4062    1.0000 </r>
       <r>    5.4402    1.0000 </r>
       <r>    5.6347    1.0000 </r>
       <r>    5.7703    1.0000 </r>
       <r>    5.9568    1.0000 </r>
       <r>    6.5752    1.0015 </r>
       <r>    6.5902    1.0020 </r>
       <r>    7.8551   -0.0000 </r>
       <r>    8.8675   -0.0000 </r>
       <r>   15.2512    0.0000 </r>
       <r>   29.0498    0.0000 </r>
       <r>   31.0006    0.0000 </r>
       <r>   31.7686    0.0000 </r>
       <r>   32.8140    0.0000 </r>
       <r>   34.5570    0.0000 </r>
       <r>   36.0103    0.0000 </r>
       <r>   38.1765    0.0000 </r>
       <r>   38.4907    0.0000 </r>
       <r>   39.3490    0.0000 </r>
       <r>   39.9065    0.0000 </r>
       <r>   40.4677    0.0000 </r>
       <r>   43.8367    0.0000 </r>
       <r>   44.0882    0.0000 </r>
       <r>   45.0472    0.0000 </r>
       <r>   45.1267    0.0000 </r>
       <r>   48.1002    0.0000 </r>
       <r>   50.4159    0.0000 </r>
       <r>   51.4023    0.0000 </r>
       <r>   53.2802    0.0000 </r>
       <r>   57.6057    0.0000 </r>
       <r>   60.3652    0.0000 </r>
       <r>   61.1063    0.0000 </r>
       <r>   62.0537    0.0000 </r>
       <r>   62.4170    0.0000 </r>
       <r>   64.0597    0.0000 </r>
       <r>   65.2346    0.0000 </r>
       <r>   66.2207    0.0000 </r>
      </set>
      <set comment="kpoint 19">
       <r>   -0.5771    1.0000 </r>
       <r>    2.8075    1.0000 </r>
       <r>    4.4312    1.0000 </r>
       <r>    4.6738    1.0000 </r>
       <r>    5.2648    1.0000 </r>
       <r>    5.7790    1.0000 </r>
       <r>    6.1022    1.0000 </r>
       <r>    6.3401    1.0000 </r>
       <r>    6.3495    1.0000 </r>
       <r>    6.4884    1.0002 </r>
       <r>    7.9151   -0.0000 </r>
       <r>   10.5499   -0.0000 </r>
       <r>   15.4711    0.0000 </r>
       <r>   25.3792    0.0000 </r>
       <r>   30.0124    0.0000 </r>
       <r>   30.0240    0.0000 </r>
       <r>   31.3538    0.0000 </r>
       <r>   31.8986    0.0000 </r>
       <r>   35.7452    0.0000 </r>
       <r>   37.1772    0.0000 </r>
       <r>   37.4458    0.0000 </r>
       <r>   38.3836    0.0000 </r>
       <r>   40.8510    0.0000 </r>
       <r>   42.3263    0.0000 </r>
       <r>   44.2433    0.0000 </r>
       <r>   45.1544    0.0000 </r>
       <r>   46.6180    0.0000 </r>
       <r>   49.1433    0.0000 </r>
       <r>   50.9760    0.0000 </r>
       <r>   53.6247    0.0000 </r>
       <r>   54.3458    0.0000 </r>
       <r>   55.7107    0.0000 </r>
       <r>   56.6099    0.0000 </r>
       <r>   58.6649    0.0000 </r>
       <r>   59.5682    0.0000 </r>
       <r>   60.8810    0.0000 </r>
       <r>   62.4063    0.0000 </r>
       <r>   65.0817    0.0000 </r>
       <r>   66.4669    0.0000 </r>
       <r>   67.1124    0.0000 </r>
      </set>
      <set comment="kpoint 20">
       <r>    0.7316    1.0000 </r>
       <r>    3.1090    1.0000 </r>
       <r>    3.6287    1.0000 </r>
       <r>    4.5721    1.0000 </r>
       <r>    5.0792    1.0000 </r>
       <r>    5.8175    1.0000 </r>
       <r>    5.9780    1.0000 </r>
       <r>    6.6539    1.0067 </r>
       <r>    6.9588    0.8852 </r>
       <r>    7.1342    0.2239 </r>
       <r>    7.9551   -0.0000 </r>
       <r>   12.3047   -0.0000 </r>
       <r>   15.9673    0.0000 </r>
       <r>   21.4211    0.0000 </r>
       <r>   26.9705    0.0000 </r>
       <r>   27.6156    0.0000 </r>
       <r>   29.3047    0.0000 </r>
       <r>   31.8945    0.0000 </r>
       <r>   34.0309    0.0000 </r>
       <r>   36.2470    0.0000 </r>
       <r>   36.6744    0.0000 </r>
       <r>   39.0804    0.0000 </r>
       <r>   39.2325    0.0000 </r>
       <r>   43.0175    0.0000 </r>
       <r>   47.6125    0.0000 </r>
       <r>   49.1060    0.0000 </r>
       <r>   49.9327    0.0000 </r>
       <r>   50.4400    0.0000 </r>
       <r>   53.8746    0.0000 </r>
       <r>   54.3742    0.0000 </r>
       <r>   55.8915    0.0000 </r>
       <r>   57.3811    0.0000 </r>
       <r>   58.2859    0.0000 </r>
       <r>   58.3764    0.0000 </r>
       <r>   60.2401    0.0000 </r>
       <r>   61.1793    0.0000 </r>
       <r>   63.3083    0.0000 </r>
       <r>   65.3608    0.0000 </r>
       <r>   65.9565    0.0000 </r>
       <r>   67.1928    0.0000 </r>
      </set>
      <set comment="kpoint 21">
       <r>    1.8886    1.0000 </r>
       <r>    2.8291    1.0000 </r>
       <r>    3.1707    1.0000 </r>
       <r>    4.5648    1.0000 </r>
       <r>    5.4727    1.0000 </r>
       <r>    5.6792    1.0000 </r>
       <r>    5.7374    1.0000 </r>
       <r>    7.7143   -0.0000 </r>
       <r>    7.7770   -0.0000 </r>
       <r>    7.7778   -0.0000 </r>
       <r>    8.0035   -0.0000 </r>
       <r>   13.6796    0.0000 </r>
       <r>   16.4608    0.0000 </r>
       <r>   18.7321    0.0000 </r>
       <r>   23.7822    0.0000 </r>
       <r>   25.7794    0.0000 </r>
       <r>   26.6649    0.0000 </r>
       <r>   31.1065    0.0000 </r>
       <r>   32.8855    0.0000 </r>
       <r>   34.9647    0.0000 </r>
       <r>   37.7549    0.0000 </r>
       <r>   38.1278    0.0000 </r>
       <r>   40.3537    0.0000 </r>
       <r>   43.6657    0.0000 </r>
       <r>   48.5392    0.0000 </r>
       <r>   51.0523    0.0000 </r>
       <r>   52.3920    0.0000 </r>
       <r>   53.4663    0.0000 </r>
       <r>   54.5792    0.0000 </r>
       <r>   56.2872    0.0000 </r>
       <r>   57.3471    0.0000 </r>
       <r>   58.3650    0.0000 </r>
       <r>   59.2226    0.0000 </r>
       <r>   59.8433    0.0000 </r>
       <r>   61.8713    0.0000 </r>
       <r>   63.4378    0.0000 </r>
       <r>   65.0114    0.0000 </r>
       <r>   65.0416    0.0000 </r>
       <r>   66.8102    0.0000 </r>
       <r>   67.0149    0.0000 </r>
      </set>
      <set comment="kpoint 22">
       <r>    2.3227    1.0000 </r>
       <r>    2.5316    1.0000 </r>
       <r>    3.0449    1.0000 </r>
       <r>    4.6428    1.0000 </r>
       <r>    5.5994    1.0000 </r>
       <r>    5.6916    1.0000 </r>
       <r>    5.9445    1.0000 </r>
       <r>    7.9286   -0.0000 </r>
       <r>    8.1845   -0.0000 </r>
       <r>    8.3127   -0.0000 </r>
       <r>    9.3737   -0.0000 </r>
       <r>   12.7253    0.0000 </r>
       <r>   17.1638    0.0000 </r>
       <r>   18.7719    0.0000 </r>
       <r>   21.7194    0.0000 </r>
       <r>   23.9924    0.0000 </r>
       <r>   24.7554    0.0000 </r>
       <r>   30.5093    0.0000 </r>
       <r>   32.5259    0.0000 </r>
       <r>   34.1089    0.0000 </r>
       <r>   37.6735    0.0000 </r>
       <r>   39.2867    0.0000 </r>
       <r>   40.5905    0.0000 </r>
       <r>   44.5072    0.0000 </r>
       <r>   46.6209    0.0000 </r>
       <r>   52.4147    0.0000 </r>
       <r>   52.4194    0.0000 </r>
       <r>   56.2012    0.0000 </r>
       <r>   56.4857    0.0000 </r>
       <r>   57.9418    0.0000 </r>
       <r>   59.4480    0.0000 </r>
       <r>   60.1097    0.0000 </r>
       <r>   60.2405    0.0000 </r>
       <r>   62.2607    0.0000 </r>
       <r>   62.7903    0.0000 </r>
       <r>   63.5357    0.0000 </r>
       <r>   64.9285    0.0000 </r>
       <r>   66.1313    0.0000 </r>
       <r>   66.1547    0.0000 </r>
       <r>   66.6203    0.0000 </r>
      </set>
      <set comment="kpoint 23">
       <r>   -0.8735    1.0000 </r>
       <r>    2.6566    1.0000 </r>
       <r>    4.7030    1.0000 </r>
       <r>    4.7180    1.0000 </r>
       <r>    5.4675    1.0000 </r>
       <r>    5.5200    1.0000 </r>
       <r>    6.0036    1.0000 </r>
       <r>    6.1967    1.0000 </r>
       <r>    6.3923    1.0000 </r>
       <r>    6.5754    1.0015 </r>
       <r>    7.8728   -0.0000 </r>
       <r>   10.0894   -0.0000 </r>
       <r>   15.3917    0.0000 </r>
       <r>   27.0753    0.0000 </r>
       <r>   28.3652    0.0000 </r>
       <r>   31.3475    0.0000 </r>
       <r>   32.1765    0.0000 </r>
       <r>   34.0785    0.0000 </r>
       <r>   34.7525    0.0000 </r>
       <r>   35.4904    0.0000 </r>
       <r>   38.0566    0.0000 </r>
       <r>   41.1549    0.0000 </r>
       <r>   41.7163    0.0000 </r>
       <r>   42.2144    0.0000 </r>
       <r>   42.6319    0.0000 </r>
       <r>   43.7368    0.0000 </r>
       <r>   44.2798    0.0000 </r>
       <r>   49.4047    0.0000 </r>
       <r>   51.3565    0.0000 </r>
       <r>   52.2301    0.0000 </r>
       <r>   52.5216    0.0000 </r>
       <r>   55.9341    0.0000 </r>
       <r>   56.2086    0.0000 </r>
       <r>   58.9555    0.0000 </r>
       <r>   60.2724    0.0000 </r>
       <r>   61.2909    0.0000 </r>
       <r>   61.7615    0.0000 </r>
       <r>   65.1173    0.0000 </r>
       <r>   66.2835    0.0000 </r>
       <r>   66.8385    0.0000 </r>
      </set>
      <set comment="kpoint 24">
       <r>    0.2684    1.0000 </r>
       <r>    3.2171    1.0000 </r>
       <r>    3.9067    1.0000 </r>
       <r>    4.3880    1.0000 </r>
       <r>    5.1930    1.0000 </r>
       <r>    5.6291    1.0000 </r>
       <r>    6.1238    1.0000 </r>
       <r>    6.2569    1.0000 </r>
       <r>    6.8006    1.0343 </r>
       <r>    7.0486    0.5670 </r>
       <r>    7.8902   -0.0000 </r>
       <r>   11.7231   -0.0000 </r>
       <r>   15.7906    0.0000 </r>
       <r>   23.4388    0.0000 </r>
       <r>   26.0177    0.0000 </r>
       <r>   28.8714    0.0000 </r>
       <r>   31.0356    0.0000 </r>
       <r>   32.1693    0.0000 </r>
       <r>   34.5996    0.0000 </r>
       <r>   35.2654    0.0000 </r>
       <r>   36.7586    0.0000 </r>
       <r>   40.2856    0.0000 </r>
       <r>   41.7544    0.0000 </r>
       <r>   42.4817    0.0000 </r>
       <r>   44.9885    0.0000 </r>
       <r>   45.8612    0.0000 </r>
       <r>   47.9844    0.0000 </r>
       <r>   51.5491    0.0000 </r>
       <r>   53.5538    0.0000 </r>
       <r>   54.9264    0.0000 </r>
       <r>   55.3434    0.0000 </r>
       <r>   57.0298    0.0000 </r>
       <r>   57.2033    0.0000 </r>
       <r>   58.9084    0.0000 </r>
       <r>   59.3040    0.0000 </r>
       <r>   60.4429    0.0000 </r>
       <r>   62.5331    0.0000 </r>
       <r>   65.8834    0.0000 </r>
       <r>   66.3684    0.0000 </r>
       <r>   66.8579    0.0000 </r>
      </set>
      <set comment="kpoint 25">
       <r>    1.5894    1.0000 </r>
       <r>    3.1714    1.0000 </r>
       <r>    3.3461    1.0000 </r>
       <r>    4.4051    1.0000 </r>
       <r>    5.1834    1.0000 </r>
       <r>    5.5386    1.0000 </r>
       <r>    5.9129    1.0000 </r>
       <r>    6.7661    1.0280 </r>
       <r>    7.5373   -0.0021 </r>
       <r>    7.7805   -0.0000 </r>
       <r>    8.0667   -0.0000 </r>
       <r>   13.3702    0.0000 </r>
       <r>   16.5171    0.0000 </r>
       <r>   19.8194    0.0000 </r>
       <r>   24.2943    0.0000 </r>
       <r>   25.5434    0.0000 </r>
       <r>   28.8735    0.0000 </r>
       <r>   30.0506    0.0000 </r>
       <r>   34.4152    0.0000 </r>
       <r>   35.0041    0.0000 </r>
       <r>   36.3884    0.0000 </r>
       <r>   39.9670    0.0000 </r>
       <r>   41.8503    0.0000 </r>
       <r>   43.9639    0.0000 </r>
       <r>   46.8071    0.0000 </r>
       <r>   48.7928    0.0000 </r>
       <r>   50.8162    0.0000 </r>
       <r>   52.6651    0.0000 </r>
       <r>   53.7649    0.0000 </r>
       <r>   55.2902    0.0000 </r>
       <r>   57.6388    0.0000 </r>
       <r>   58.2639    0.0000 </r>
       <r>   58.7248    0.0000 </r>
       <r>   59.7923    0.0000 </r>
       <r>   61.4789    0.0000 </r>
       <r>   62.6302    0.0000 </r>
       <r>   64.4456    0.0000 </r>
       <r>   65.5965    0.0000 </r>
       <r>   65.7565    0.0000 </r>
       <r>   67.0616    0.0000 </r>
      </set>
      <set comment="kpoint 26">
       <r>    2.3816    1.0000 </r>
       <r>    2.8140    1.0000 </r>
       <r>    3.1442    1.0000 </r>
       <r>    4.5219    1.0000 </r>
       <r>    5.4329    1.0000 </r>
       <r>    5.6102    1.0000 </r>
       <r>    5.7453    1.0000 </r>
       <r>    7.6184   -0.0003 </r>
       <r>    7.8380   -0.0000 </r>
       <r>    8.0704   -0.0000 </r>
       <r>    9.1685   -0.0000 </r>
       <r>   13.8911    0.0000 </r>
       <r>   16.7798    0.0000 </r>
       <r>   18.8261    0.0000 </r>
       <r>   22.4825    0.0000 </r>
       <r>   23.2357    0.0000 </r>
       <r>   25.7504    0.0000 </r>
       <r>   29.1459    0.0000 </r>
       <r>   33.3953    0.0000 </r>
       <r>   34.6318    0.0000 </r>
       <r>   37.4207    0.0000 </r>
       <r>   39.9971    0.0000 </r>
       <r>   42.5005    0.0000 </r>
       <r>   44.2793    0.0000 </r>
       <r>   47.8070    0.0000 </r>
       <r>   49.9535    0.0000 </r>
       <r>   51.9016    0.0000 </r>
       <r>   53.8192    0.0000 </r>
       <r>   55.6188    0.0000 </r>
       <r>   57.1189    0.0000 </r>
       <r>   57.6701    0.0000 </r>
       <r>   59.2878    0.0000 </r>
       <r>   60.4135    0.0000 </r>
       <r>   62.3209    0.0000 </r>
       <r>   63.2030    0.0000 </r>
       <r>   64.1083    0.0000 </r>
       <r>   64.4335    0.0000 </r>
       <r>   65.3941    0.0000 </r>
       <r>   66.5515    0.0000 </r>
       <r>   67.8297    0.0000 </r>
      </set>
      <set comment="kpoint 27">
       <r>    2.5161    1.0000 </r>
       <r>    2.6436    1.0000 </r>
       <r>    3.1417    1.0000 </r>
       <r>    4.6087    1.0000 </r>
       <r>    5.3957    1.0000 </r>
       <r>    5.7712    1.0000 </r>
       <r>    5.8259    1.0000 </r>
       <r>    7.8306   -0.0000 </r>
       <r>    8.1245   -0.0000 </r>
       <r>    8.1538   -0.0000 </r>
       <r>   10.3487   -0.0000 </r>
       <r>   12.4953   -0.0000 </r>
       <r>   18.0072    0.0000 </r>
       <r>   18.7052    0.0000 </r>
       <r>   21.7977    0.0000 </r>
       <r>   22.3620    0.0000 </r>
       <r>   24.0679    0.0000 </r>
       <r>   28.8349    0.0000 </r>
       <r>   32.9843    0.0000 </r>
       <r>   34.4792    0.0000 </r>
       <r>   37.8325    0.0000 </r>
       <r>   40.3770    0.0000 </r>
       <r>   42.1610    0.0000 </r>
       <r>   45.7853    0.0000 </r>
       <r>   45.9767    0.0000 </r>
       <r>   50.7703    0.0000 </r>
       <r>   52.4224    0.0000 </r>
       <r>   55.1302    0.0000 </r>
       <r>   56.6326    0.0000 </r>
       <r>   57.0844    0.0000 </r>
       <r>   59.5579    0.0000 </r>
       <r>   60.0668    0.0000 </r>
       <r>   60.7116    0.0000 </r>
       <r>   61.1718    0.0000 </r>
       <r>   62.5384    0.0000 </r>
       <r>   65.5114    0.0000 </r>
       <r>   65.7567    0.0000 </r>
       <r>   66.4790    0.0000 </r>
       <r>   66.6145    0.0000 </r>
       <r>   68.2136    0.0000 </r>
      </set>
      <set comment="kpoint 28">
       <r>    1.4964    1.0000 </r>
       <r>    3.4360    1.0000 </r>
       <r>    3.6786    1.0000 </r>
       <r>    3.9369    1.0000 </r>
       <r>    5.2586    1.0000 </r>
       <r>    5.2765    1.0000 </r>
       <r>    6.0351    1.0000 </r>
       <r>    6.3251    1.0000 </r>
       <r>    7.5294   -0.0024 </r>
       <r>    7.7071   -0.0000 </r>
       <r>    8.1157   -0.0000 </r>
       <r>   13.2432    0.0000 </r>
       <r>   16.5573    0.0000 </r>
       <r>   21.4681    0.0000 </r>
       <r>   22.2533    0.0000 </r>
       <r>   27.0546    0.0000 </r>
       <r>   28.3713    0.0000 </r>
       <r>   31.2256    0.0000 </r>
       <r>   31.9174    0.0000 </r>
       <r>   35.7468    0.0000 </r>
       <r>   38.3303    0.0000 </r>
       <r>   41.6144    0.0000 </r>
       <r>   42.7485    0.0000 </r>
       <r>   44.2935    0.0000 </r>
       <r>   44.3658    0.0000 </r>
       <r>   47.7307    0.0000 </r>
       <r>   48.4599    0.0000 </r>
       <r>   52.7681    0.0000 </r>
       <r>   53.7525    0.0000 </r>
       <r>   54.9405    0.0000 </r>
       <r>   57.5987    0.0000 </r>
       <r>   58.7542    0.0000 </r>
       <r>   58.8553    0.0000 </r>
       <r>   60.5548    0.0000 </r>
       <r>   61.0336    0.0000 </r>
       <r>   62.4877    0.0000 </r>
       <r>   62.6945    0.0000 </r>
       <r>   65.9997    0.0000 </r>
       <r>   66.1427    0.0000 </r>
       <r>   66.8793    0.0000 </r>
      </set>
      <set comment="kpoint 29">
       <r>    2.6414    1.0000 </r>
       <r>    3.1728    1.0000 </r>
       <r>    3.4220    1.0000 </r>
       <r>    4.0965    1.0000 </r>
       <r>    5.0780    1.0000 </r>
       <r>    5.5177    1.0000 </r>
       <r>    5.7166    1.0000 </r>
       <r>    6.8325    1.0347 </r>
       <r>    7.6685   -0.0001 </r>
       <r>    8.0359   -0.0000 </r>
       <r>    9.3280   -0.0000 </r>
       <r>   14.7489    0.0000 </r>
       <r>   17.4067    0.0000 </r>
       <r>   18.8576    0.0000 </r>
       <r>   20.6582    0.0000 </r>
       <r>   24.4056    0.0000 </r>
       <r>   26.7964    0.0000 </r>
       <r>   27.8984    0.0000 </r>
       <r>   30.6820    0.0000 </r>
       <r>   37.2667    0.0000 </r>
       <r>   39.0281    0.0000 </r>
       <r>   42.1996    0.0000 </r>
       <r>   44.0289    0.0000 </r>
       <r>   45.0908    0.0000 </r>
       <r>   46.5253    0.0000 </r>
       <r>   47.5212    0.0000 </r>
       <r>   50.5297    0.0000 </r>
       <r>   51.4629    0.0000 </r>
       <r>   53.9798    0.0000 </r>
       <r>   56.1141    0.0000 </r>
       <r>   57.3725    0.0000 </r>
       <r>   59.4152    0.0000 </r>
       <r>   60.7035    0.0000 </r>
       <r>   61.7300    0.0000 </r>
       <r>   63.7536    0.0000 </r>
       <r>   64.2058    0.0000 </r>
       <r>   65.0452    0.0000 </r>
       <r>   66.2724    0.0000 </r>
       <r>   66.9297    0.0000 </r>
       <r>   68.1511    0.0000 </r>
      </set>
      <set comment="kpoint 30">
       <r>    2.8536    1.0000 </r>
       <r>    3.1344    1.0000 </r>
       <r>    3.3838    1.0000 </r>
       <r>    4.3726    1.0000 </r>
       <r>    5.1226    1.0000 </r>
       <r>    5.3519    1.0000 </r>
       <r>    5.8861    1.0000 </r>
       <r>    7.4913   -0.0051 </r>
       <r>    7.6257   -0.0003 </r>
       <r>    8.0634   -0.0000 </r>
       <r>   10.9137   -0.0000 </r>
       <r>   13.8651    0.0000 </r>
       <r>   17.9171    0.0000 </r>
       <r>   19.5384    0.0000 </r>
       <r>   19.7543    0.0000 </r>
       <r>   22.3172    0.0000 </r>
       <r>   24.9464    0.0000 </r>
       <r>   26.1942    0.0000 </r>
       <r>   30.0711    0.0000 </r>
       <r>   38.0431    0.0000 </r>
       <r>   39.7492    0.0000 </r>
       <r>   41.4456    0.0000 </r>
       <r>   44.9402    0.0000 </r>
       <r>   45.6726    0.0000 </r>
       <r>   47.9745    0.0000 </r>
       <r>   48.5238    0.0000 </r>
       <r>   50.5618    0.0000 </r>
       <r>   52.4637    0.0000 </r>
       <r>   55.0956    0.0000 </r>
       <r>   55.7916    0.0000 </r>
       <r>   56.4938    0.0000 </r>
       <r>   59.7001    0.0000 </r>
       <r>   60.0026    0.0000 </r>
       <r>   61.3999    0.0000 </r>
       <r>   64.8531    0.0000 </r>
       <r>   65.3511    0.0000 </r>
       <r>   66.5500    0.0000 </r>
       <r>   66.7712    0.0000 </r>
       <r>   67.6293    0.0000 </r>
       <r>   68.0775    0.0000 </r>
      </set>
      <set comment="kpoint 31">
       <r>    3.1220    1.0000 </r>
       <r>    3.4480    1.0000 </r>
       <r>    3.7484    1.0000 </r>
       <r>    3.8540    1.0000 </r>
       <r>    4.9548    1.0000 </r>
       <r>    5.2537    1.0000 </r>
       <r>    5.8785    1.0000 </r>
       <r>    7.1044    0.3348 </r>
       <r>    7.5204   -0.0029 </r>
       <r>    8.0429   -0.0000 </r>
       <r>   11.0586   -0.0000 </r>
       <r>   15.7485    0.0000 </r>
       <r>   16.6496    0.0000 </r>
       <r>   18.3964    0.0000 </r>
       <r>   20.2749    0.0000 </r>
       <r>   23.7757    0.0000 </r>
       <r>   23.7827    0.0000 </r>
       <r>   26.7813    0.0000 </r>
       <r>   27.6042    0.0000 </r>
       <r>   39.0783    0.0000 </r>
       <r>   41.8669    0.0000 </r>
       <r>   43.8659    0.0000 </r>
       <r>   44.3269    0.0000 </r>
       <r>   46.2091    0.0000 </r>
       <r>   46.6345    0.0000 </r>
       <r>   48.3564    0.0000 </r>
       <r>   50.0838    0.0000 </r>
       <r>   51.8980    0.0000 </r>
       <r>   52.2771    0.0000 </r>
       <r>   55.4728    0.0000 </r>
       <r>   56.6365    0.0000 </r>
       <r>   58.7978    0.0000 </r>
       <r>   59.6661    0.0000 </r>
       <r>   61.5795    0.0000 </r>
       <r>   64.8378    0.0000 </r>
       <r>   65.8823    0.0000 </r>
       <r>   65.9413    0.0000 </r>
       <r>   67.7683    0.0000 </r>
       <r>   68.1685    0.0000 </r>
       <r>   68.3667    0.0000 </r>
      </set>
      <set comment="kpoint 32">
       <r>    3.1433    1.0000 </r>
       <r>    3.6277    1.0000 </r>
       <r>    3.6735    1.0000 </r>
       <r>    4.0881    1.0000 </r>
       <r>    4.9446    1.0000 </r>
       <r>    5.0465    1.0000 </r>
       <r>    6.0221    1.0000 </r>
       <r>    7.4580   -0.0089 </r>
       <r>    7.4619   -0.0083 </r>
       <r>    7.7553   -0.0000 </r>
       <r>   12.8440    0.0000 </r>
       <r>   14.0507    0.0000 </r>
       <r>   16.2100    0.0000 </r>
       <r>   20.0686    0.0000 </r>
       <r>   20.2662    0.0000 </r>
       <r>   22.4544    0.0000 </r>
       <r>   23.8289    0.0000 </r>
       <r>   24.9850    0.0000 </r>
       <r>   27.0281    0.0000 </r>
       <r>   40.0270    0.0000 </r>
       <r>   42.3358    0.0000 </r>
       <r>   43.8028    0.0000 </r>
       <r>   44.8880    0.0000 </r>
       <r>   46.8598    0.0000 </r>
       <r>   47.7540    0.0000 </r>
       <r>   49.0351    0.0000 </r>
       <r>   50.6118    0.0000 </r>
       <r>   51.0532    0.0000 </r>
       <r>   51.9071    0.0000 </r>
       <r>   54.5201    0.0000 </r>
       <r>   56.0620    0.0000 </r>
       <r>   57.0486    0.0000 </r>
       <r>   60.0964    0.0000 </r>
       <r>   60.5874    0.0000 </r>
       <r>   65.5085    0.0000 </r>
       <r>   66.1904    0.0000 </r>
       <r>   67.5622    0.0000 </r>
       <r>   67.6820    0.0000 </r>
       <r>   68.3241    0.0000 </r>
       <r>   68.5145    0.0000 </r>
      </set>
      <set comment="kpoint 33">
       <r>   -1.5841    1.0000 </r>
       <r>    1.8778    1.0000 </r>
       <r>    4.8738    1.0000 </r>
       <r>    5.4214    1.0000 </r>
       <r>    5.4216    1.0000 </r>
       <r>    5.7276    1.0000 </r>
       <r>    5.7277    1.0000 </r>
       <r>    5.8010    1.0000 </r>
       <r>    6.8152    1.0354 </r>
       <r>    6.8153    1.0354 </r>
       <r>    7.7892   -0.0000 </r>
       <r>    7.7892   -0.0000 </r>
       <r>   16.2502    0.0000 </r>
       <r>   28.9402    0.0000 </r>
       <r>   30.7841    0.0000 </r>
       <r>   32.8580    0.0000 </r>
       <r>   35.7192    0.0000 </r>
       <r>   35.7192    0.0000 </r>
       <r>   36.3730    0.0000 </r>
       <r>   36.3732    0.0000 </r>
       <r>   39.0467    0.0000 </r>
[...]
       <r>   21.8649    0.0000 </r>
       <r>   22.6261    0.0000 </r>
       <r>   27.4402    0.0000 </r>
       <r>   28.5803    0.0000 </r>
       <r>   32.9780    0.0000 </r>
       <r>   34.0573    0.0000 </r>
       <r>   36.1949    0.0000 </r>
       <r>   37.6893    0.0000 </r>
       <r>   42.3542    0.0000 </r>
       <r>   42.6988    0.0000 </r>
       <r>   51.8116    0.0000 </r>
       <r>   52.4355    0.0000 </r>
       <r>   53.2530    0.0000 </r>
       <r>   54.9609    0.0000 </r>
       <r>   56.5471    0.0000 </r>
       <r>   57.1056    0.0000 </r>
       <r>   58.3819    0.0000 </r>
       <r>   59.8310    0.0000 </r>
       <r>   61.8120    0.0000 </r>
       <r>   62.0087    0.0000 </r>
       <r>   63.8071    0.0000 </r>
       <r>   63.9970    0.0000 </r>
       <r>   65.2157    0.0000 </r>
       <r>   65.4733    0.0000 </r>
       <r>   66.2323    0.0000 </r>
       <r>   66.9161    0.0000 </r>
      </set>
      <set comment="kpoint 95">
       <r>    3.1388    1.0000 </r>
       <r>    3.1874    1.0000 </r>
       <r>    4.1424    1.0000 </r>
       <r>    4.3681    1.0000 </r>
       <r>    4.7410    1.0000 </r>
       <r>    4.9591    1.0000 </r>
       <r>    6.1859    1.0000 </r>
       <r>    6.3927    1.0000 </r>
       <r>    7.8980   -0.0000 </r>
       <r>    8.0786   -0.0000 </r>
       <r>   12.0089   -0.0000 </r>
       <r>   12.5457    0.0000 </r>
       <r>   18.2286    0.0000 </r>
       <r>   18.6643    0.0000 </r>
       <r>   20.0743    0.0000 </r>
       <r>   20.4760    0.0000 </r>
       <r>   27.6034    0.0000 </r>
       <r>   29.2578    0.0000 </r>
       <r>   33.0586    0.0000 </r>
       <r>   34.4952    0.0000 </r>
       <r>   36.0341    0.0000 </r>
       <r>   37.1597    0.0000 </r>
       <r>   44.3958    0.0000 </r>
       <r>   44.8000    0.0000 </r>
       <r>   48.7714    0.0000 </r>
       <r>   48.8822    0.0000 </r>
       <r>   55.7990    0.0000 </r>
       <r>   56.3972    0.0000 </r>
       <r>   56.6147    0.0000 </r>
       <r>   57.9622    0.0000 </r>
       <r>   59.4243    0.0000 </r>
       <r>   59.5970    0.0000 </r>
       <r>   60.1912    0.0000 </r>
       <r>   60.4196    0.0000 </r>
       <r>   63.0195    0.0000 </r>
       <r>   63.6574    0.0000 </r>
       <r>   64.9405    0.0000 </r>
       <r>   65.1506    0.0000 </r>
       <r>   65.9744    0.0000 </r>
       <r>   66.4403    0.0000 </r>
      </set>
      <set comment="kpoint 96">
       <r>    3.3405    1.0000 </r>
       <r>    3.4711    1.0000 </r>
       <r>    4.0596    1.0000 </r>
       <r>    4.1414    1.0000 </r>
       <r>    4.7706    1.0000 </r>
       <r>    4.8888    1.0000 </r>
       <r>    6.2541    1.0000 </r>
       <r>    6.4123    1.0000 </r>
       <r>    7.8690   -0.0000 </r>
       <r>    7.9356   -0.0000 </r>
       <r>   13.8223    0.0000 </r>
       <r>   13.9521    0.0000 </r>
       <r>   16.5731    0.0000 </r>
       <r>   16.9209    0.0000 </r>
       <r>   19.4280    0.0000 </r>
       <r>   19.8805    0.0000 </r>
       <r>   29.2676    0.0000 </r>
       <r>   30.0469    0.0000 </r>
       <r>   32.1992    0.0000 </r>
       <r>   32.5199    0.0000 </r>
       <r>   35.7846    0.0000 </r>
       <r>   36.6205    0.0000 </r>
       <r>   45.5998    0.0000 </r>
       <r>   46.2491    0.0000 </r>
       <r>   50.2570    0.0000 </r>
       <r>   50.6638    0.0000 </r>
       <r>   53.0608    0.0000 </r>
       <r>   53.4220    0.0000 </r>
       <r>   57.2534    0.0000 </r>
       <r>   58.6837    0.0000 </r>
       <r>   59.6576    0.0000 </r>
       <r>   60.5333    0.0000 </r>
       <r>   61.0563    0.0000 </r>
       <r>   61.3923    0.0000 </r>
       <r>   61.7887    0.0000 </r>
       <r>   63.0420    0.0000 </r>
       <r>   64.6148    0.0000 </r>
       <r>   65.8545    0.0000 </r>
       <r>   67.6456    0.0000 </r>
       <r>   67.7507    0.0000 </r>
      </set>
     </set>
    </set>
   </array>
  </eigenvalues>
  <separator name="orbital magnetization" >
   <v name="MAGDIPOLOUT">      0.00000000      0.00000000      0.00000000</v>
  </separator>
  <dos>
   <i name="efermi">      7.06447088 </i>
   <total>
    <array>
     <dimension dim="1">gridpoints</dimension>
     <dimension dim="2">spin</dimension>
     <field>energy</field>
     <field>total</field>
     <field>integrated</field>
     <set>
      <set comment="spin 1">
       <r>    -5.4813     0.0000     0.0000 </r>
       <r>    -5.2197     0.0000     0.0000 </r>
       <r>    -4.9580     0.0000     0.0000 </r>
       <r>    -4.6963     0.0000     0.0000 </r>
       <r>    -4.4347     0.0000     0.0000 </r>
       <r>    -4.1730     0.0000     0.0000 </r>
       <r>    -3.9114     0.0000     0.0000 </r>
       <r>    -3.6497    -0.0000    -0.0000 </r>
       <r>    -3.3881    -0.0000    -0.0000 </r>
       <r>    -3.1264    -0.0000    -0.0000 </r>
       <r>    -2.8647    -0.0000    -0.0000 </r>
       <r>    -2.6031    -0.0000    -0.0000 </r>
       <r>    -2.3414    -0.0000    -0.0000 </r>
       <r>    -2.0798    -0.0004    -0.0001 </r>
       <r>    -1.8181     0.0084     0.0021 </r>
       <r>    -1.5564     0.0552     0.0165 </r>
       <r>    -1.2948     0.0972     0.0420 </r>
       <r>    -1.0331     0.0606     0.0578 </r>
       <r>    -0.7715     0.1531     0.0979 </r>
       <r>    -0.5098     0.1760     0.1439 </r>
       <r>    -0.2482     0.1844     0.1922 </r>
       <r>     0.0135     0.0821     0.2137 </r>
       <r>     0.2752     0.2579     0.2812 </r>
       <r>     0.5368     0.2957     0.3585 </r>
       <r>     0.7985     0.2838     0.4328 </r>
       <r>     1.0601     0.3035     0.5122 </r>
       <r>     1.3218     0.2013     0.5649 </r>
       <r>     1.5834     0.5004     0.6958 </r>
       <r>     1.8451     0.7162     0.8832 </r>
       <r>     2.1068     1.0005     1.1450 </r>
       <r>     2.3684     1.6728     1.5827 </r>
       <r>     2.6301     2.1547     2.1465 </r>
       <r>     2.8917     2.6639     2.8435 </r>
       <r>     3.1534     2.5256     3.5044 </r>
       <r>     3.4150     2.6106     4.1875 </r>
       <r>     3.6767     2.3585     4.8046 </r>
       <r>     3.9384     3.1963     5.6409 </r>
       <r>     4.2000     3.1660     6.4693 </r>
       <r>     4.4617     2.8723     7.2209 </r>
       <r>     4.7233     2.0973     7.7697 </r>
       <r>     4.9850     2.8852     8.5246 </r>
       <r>     5.2467     4.0559     9.5858 </r>
       <r>     5.5083     3.8291    10.5878 </r>
       <r>     5.7700     4.0726    11.6534 </r>
       <r>     6.0316     3.9884    12.6970 </r>
       <r>     6.2933     3.7165    13.6694 </r>
       <r>     6.5549     2.8685    14.4200 </r>
       <r>     6.8166     3.1095    15.2336 </r>
       <r>     7.0783     3.0648    16.0356 </r>
       <r>     7.3399     2.3037    16.6383 </r>
       <r>     7.6016     3.9380    17.6687 </r>
       <r>     7.8632     5.1838    19.0251 </r>
       <r>     8.1249     4.9796    20.3281 </r>
       <r>     8.3865     3.2084    21.1676 </r>
       <r>     8.6482     0.3121    21.2492 </r>
       <r>     8.9099     0.2071    21.3034 </r>
       <r>     9.1715     0.9907    21.5627 </r>
       <r>     9.4332     0.8126    21.7753 </r>
       <r>     9.6948     0.4588    21.8953 </r>
       <r>     9.9565     0.5826    22.0478 </r>
       <r>    10.2182     0.5364    22.1881 </r>
       <r>    10.4798     0.3250    22.2732 </r>
       <r>    10.7415     0.2437    22.3369 </r>
       <r>    11.0031     0.8116    22.5493 </r>
       <r>    11.2648     0.6562    22.7210 </r>
       <r>    11.5264     0.3542    22.8137 </r>
       <r>    11.7881     0.3091    22.8946 </r>
       <r>    12.0498     0.4426    23.0104 </r>
       <r>    12.3114     0.4944    23.1397 </r>
       <r>    12.5731     0.3828    23.2399 </r>
       <r>    12.8347     0.2571    23.3072 </r>
       <r>    13.0964     0.3222    23.3915 </r>
       <r>    13.3580     0.3649    23.4869 </r>
       <r>    13.6197     0.3716    23.5842 </r>
       <r>    13.8814     0.3760    23.6826 </r>
       <r>    14.1430     0.5972    23.8388 </r>
       <r>    14.4047     0.1526    23.8788 </r>
       <r>    14.6663     0.0741    23.8981 </r>
       <r>    14.9280     0.2300    23.9583 </r>
       <r>    15.1896     0.2158    24.0148 </r>
       <r>    15.4513     0.2407    24.0778 </r>
       <r>    15.7130     0.1514    24.1174 </r>
       <r>    15.9746     0.2423    24.1808 </r>
       <r>    16.2363     0.2037    24.2341 </r>
       <r>    16.4979     0.4621    24.3550 </r>
       <r>    16.7596     0.6538    24.5261 </r>
       <r>    17.0213     0.9109    24.7644 </r>
       <r>    17.2829     0.7988    24.9735 </r>
       <r>    17.5446     0.7387    25.1668 </r>
       <r>    17.8062     0.4480    25.2840 </r>
       <r>    18.0679     0.5432    25.4261 </r>
       <r>    18.3295     0.7997    25.6354 </r>
       <r>    18.5912     0.6308    25.8004 </r>
       <r>    18.8529     0.9748    26.0555 </r>
       <r>    19.1145     0.5465    26.1985 </r>
       <r>    19.3762     0.6209    26.3609 </r>
       <r>    19.6378     0.7126    26.5474 </r>
       <r>    19.8995     0.8964    26.7819 </r>
       <r>    20.1611     0.6463    26.9510 </r>
       <r>    20.4228     0.5721    27.1007 </r>
       <r>    20.6845     0.6855    27.2801 </r>
       <r>    20.9461     0.6817    27.4585 </r>
       <r>    21.2078     0.5882    27.6124 </r>
       <r>    21.4694     0.3492    27.7037 </r>
       <r>    21.7311     0.6538    27.8748 </r>
       <r>    21.9928     0.5459    28.0177 </r>
       <r>    22.2544     0.5547    28.1628 </r>
       <r>    22.5161     0.7768    28.3661 </r>
       <r>    22.7777     0.5766    28.5169 </r>
       <r>    23.0394     0.6671    28.6915 </r>
       <r>    23.3010     0.6388    28.8586 </r>
       <r>    23.5627     0.9692    29.1122 </r>
       <r>    23.8244     0.8716    29.3403 </r>
       <r>    24.0860     0.8067    29.5514 </r>
       <r>    24.3477     1.0174    29.8176 </r>
       <r>    24.6093     0.8712    30.0456 </r>
       <r>    24.8710     0.6032    30.2034 </r>
       <r>    25.1326     1.0632    30.4816 </r>
       <r>    25.3943     0.6467    30.6508 </r>
       <r>    25.6560     0.6087    30.8101 </r>
       <r>    25.9176     1.1831    31.1196 </r>
       <r>    26.1793     1.5740    31.5315 </r>
       <r>    26.4409     0.7238    31.7209 </r>
       <r>    26.7026     0.6297    31.8856 </r>
       <r>    26.9642     0.8229    32.1010 </r>
       <r>    27.2259     0.6167    32.2623 </r>
       <r>    27.4876     1.2268    32.5833 </r>
       <r>    27.7492     1.3025    32.9241 </r>
       <r>    28.0109     0.4382    33.0388 </r>
       <r>    28.2725     0.8343    33.2571 </r>
       <r>    28.5342     0.8974    33.4919 </r>
       <r>    28.7959     0.8750    33.7208 </r>
       <r>    29.0575     1.0628    33.9989 </r>
       <r>    29.3192     0.8058    34.2098 </r>
       <r>    29.5808     0.3653    34.3053 </r>
       <r>    29.8425     0.5076    34.4382 </r>
       <r>    30.1041     1.1494    34.7389 </r>
       <r>    30.3658     0.6578    34.9110 </r>
       <r>    30.6275     0.6725    35.0870 </r>
       <r>    30.8891     0.6410    35.2547 </r>
       <r>    31.1508     0.7885    35.4611 </r>
       <r>    31.4124     0.9622    35.7128 </r>
       <r>    31.6741     0.5204    35.8490 </r>
       <r>    31.9357     0.6287    36.0135 </r>
       <r>    32.1974     0.6248    36.1770 </r>
       <r>    32.4591     0.9298    36.4203 </r>
       <r>    32.7207     0.9468    36.6680 </r>
       <r>    32.9824     0.7221    36.8569 </r>
       <r>    33.2440     0.9110    37.0953 </r>
       <r>    33.5057     0.7520    37.2921 </r>
       <r>    33.7674     0.5601    37.4386 </r>
       <r>    34.0290     1.0582    37.7155 </r>
       <r>    34.2907     0.7992    37.9246 </r>
       <r>    34.5523     0.9774    38.1804 </r>
       <r>    34.8140     1.0164    38.4463 </r>
       <r>    35.0756     0.6319    38.6117 </r>
       <r>    35.3373     1.1898    38.9230 </r>
       <r>    35.5990     0.7780    39.1266 </r>
       <r>    35.8606     0.7719    39.3286 </r>
       <r>    36.1223     1.2899    39.6661 </r>
       <r>    36.3839     1.1870    39.9767 </r>
       <r>    36.6456     0.8403    40.1965 </r>
       <r>    36.9072     0.7756    40.3995 </r>
       <r>    37.1689     0.6344    40.5655 </r>
       <r>    37.4306     1.0351    40.8363 </r>
       <r>    37.6922     0.5995    40.9932 </r>
       <r>    37.9539     0.7206    41.1817 </r>
       <r>    38.2155     0.8081    41.3932 </r>
       <r>    38.4772     0.7196    41.5815 </r>
       <r>    38.7388     0.9166    41.8213 </r>
       <r>    39.0005     0.8302    42.0385 </r>
       <r>    39.2622     0.9457    42.2860 </r>
       <r>    39.5238     0.8950    42.5202 </r>
       <r>    39.7855     0.8697    42.7477 </r>
       <r>    40.0471     1.0983    43.0351 </r>
       <r>    40.3088     0.8433    43.2558 </r>
       <r>    40.5705     0.9921    43.5154 </r>
       <r>    40.8321     0.7608    43.7145 </r>
       <r>    41.0938     0.6855    43.8938 </r>
       <r>    41.3554     0.5673    44.0423 </r>
       <r>    41.6171     0.7283    44.2328 </r>
       <r>    41.8787     1.1717    44.5394 </r>
       <r>    42.1404     0.9472    44.7873 </r>
       <r>    42.4021     1.1995    45.1011 </r>
       <r>    42.6637     1.3856    45.4637 </r>
       <r>    42.9254     0.8104    45.6757 </r>
       <r>    43.1870     0.7903    45.8825 </r>
       <r>    43.4487     1.1338    46.1792 </r>
       <r>    43.7103     0.7733    46.3815 </r>
       <r>    43.9720     0.9615    46.6331 </r>
       <r>    44.2337     1.5813    47.0469 </r>
       <r>    44.4953     1.3850    47.4093 </r>
       <r>    44.7570     0.5078    47.5421 </r>
       <r>    45.0186     1.3240    47.8886 </r>
       <r>    45.2803     1.5251    48.2876 </r>
       <r>    45.5420     0.6476    48.4571 </r>
       <r>    45.8036     0.9516    48.7061 </r>
       <r>    46.0653     0.8986    48.9412 </r>
       <r>    46.3269     0.6301    49.1061 </r>
       <r>    46.5886     0.6643    49.2799 </r>
       <r>    46.8502     0.8875    49.5121 </r>
       <r>    47.1119     0.7835    49.7171 </r>
       <r>    47.3736     0.4571    49.8367 </r>
       <r>    47.6352     0.9274    50.0794 </r>
       <r>    47.8969     1.4779    50.4661 </r>
       <r>    48.1585     1.1390    50.7641 </r>
       <r>    48.4202     0.8168    50.9778 </r>
       <r>    48.6818     1.1248    51.2722 </r>
       <r>    48.9435     0.9200    51.5129 </r>
       <r>    49.2052     1.5510    51.9187 </r>
       <r>    49.4668     1.2878    52.2557 </r>
       <r>    49.7285     0.8564    52.4798 </r>
       <r>    49.9901     0.7716    52.6817 </r>
       <r>    50.2518     0.4978    52.8119 </r>
       <r>    50.5134     1.0705    53.0920 </r>
       <r>    50.7751     1.4160    53.4625 </r>
       <r>    51.0368     1.3881    53.8257 </r>
       <r>    51.2984     1.2796    54.1606 </r>
       <r>    51.5601     1.1165    54.4527 </r>
       <r>    51.8217     1.1030    54.7413 </r>
       <r>    52.0834     1.0719    55.0218 </r>
       <r>    52.3451     0.8914    55.2550 </r>
       <r>    52.6067     1.3228    55.6012 </r>
       <r>    52.8684     1.1727    55.9080 </r>
       <r>    53.1300     1.1488    56.2086 </r>
       <r>    53.3917     0.7065    56.3934 </r>
       <r>    53.6533     1.3416    56.7445 </r>
       <r>    53.9150     1.4340    57.1197 </r>
       <r>    54.1767     1.1922    57.4316 </r>
       <r>    54.4383     0.8374    57.6507 </r>
       <r>    54.7000     1.1942    57.9632 </r>
       <r>    54.9616     1.1029    58.2518 </r>
       <r>    55.2233     1.7336    58.7054 </r>
       <r>    55.4849     1.1567    59.0081 </r>
       <r>    55.7466     0.9267    59.2506 </r>
       <r>    56.0083     1.2601    59.5803 </r>
       <r>    56.2699     1.2792    59.9150 </r>
       <r>    56.5316     1.5167    60.3118 </r>
       <r>    56.7932     1.5051    60.7057 </r>
       <r>    57.0549     1.5355    61.1074 </r>
       <r>    57.3166     2.0152    61.6347 </r>
       <r>    57.5782     1.6027    62.0541 </r>
       <r>    57.8399     1.0986    62.3416 </r>
       <r>    58.1015     0.9913    62.6009 </r>
       <r>    58.3632     1.9295    63.1058 </r>
       <r>    58.6248     1.4099    63.4747 </r>
       <r>    58.8865     1.9843    63.9939 </r>
       <r>    59.1482     1.7492    64.4516 </r>
       <r>    59.4098     1.6303    64.8782 </r>
       <r>    59.6715     2.2480    65.4664 </r>
       <r>    59.9331     2.0659    66.0070 </r>
       <r>    60.1948     1.8820    66.4994 </r>
       <r>    60.4564     1.3724    66.8585 </r>
       <r>    60.7181     1.8678    67.3472 </r>
       <r>    60.9798     1.4032    67.7144 </r>
       <r>    61.2414     0.7777    67.9179 </r>
       <r>    61.5031     1.4306    68.2922 </r>
       <r>    61.7647     1.6330    68.7195 </r>
       <r>    62.0264     1.6531    69.1521 </r>
       <r>    62.2880     1.5947    69.5693 </r>
       <r>    62.5497     1.9577    70.0816 </r>
       <r>    62.8114     1.7055    70.5278 </r>
       <r>    63.0730     1.7197    70.9778 </r>
       <r>    63.3347     1.6368    71.4061 </r>
       <r>    63.5963     1.5873    71.8214 </r>
       <r>    63.8580     1.4408    72.1984 </r>
       <r>    64.1197     1.9592    72.7111 </r>
       <r>    64.3813     1.3753    73.0709 </r>
       <r>    64.6430     1.1609    73.3747 </r>
       <r>    64.9046     1.9228    73.8778 </r>
       <r>    65.1663     2.3219    74.4853 </r>
       <r>    65.4279     1.8399    74.9668 </r>
       <r>    65.6896     1.8025    75.4384 </r>
       <r>    65.9513     2.0612    75.9777 </r>
       <r>    66.2129     2.0017    76.5015 </r>
       <r>    66.4746     1.7608    76.9622 </r>
       <r>    66.7362     1.5682    77.3726 </r>
       <r>    66.9979     1.9132    77.8732 </r>
       <r>    67.2595     1.3971    78.2387 </r>
       <r>    67.5212     1.3011    78.5792 </r>
       <r>    67.7829     1.7731    79.0431 </r>
       <r>    68.0445     1.3772    79.4035 </r>
       <r>    68.3062     1.0219    79.6709 </r>
       <r>    68.5678     0.9047    79.9076 </r>
       <r>    68.8295     0.2504    79.9731 </r>
       <r>    69.0912     0.0367    79.9827 </r>
       <r>    69.3528     0.0070    79.9846 </r>
       <r>    69.6145     0.0588    80.0000 </r>
       <r>    69.8761     0.0005    80.0001 </r>
       <r>    70.1378    -0.0003    80.0000 </r>
       <r>    70.3994    -0.0000    80.0000 </r>
       <r>    70.6611    -0.0000    80.0000 </r>
       <r>    70.9228    -0.0000    80.0000 </r>
       <r>    71.1844     0.0000    80.0000 </r>
       <r>    71.4461     0.0000    80.0000 </r>
       <r>    71.7077     0.0000    80.0000 </r>
       <r>    71.9694     0.0000    80.0000 </r>
       <r>    72.2310     0.0000    80.0000 </r>
       <r>    72.4927     0.0000    80.0000 </r>
       <r>    72.7544     0.0000    80.0000 </r>
       <r>    73.0160     0.0000    80.0000 </r>
      </set>
     </set>
    </array>
   </total>
  </dos>
 </calculation>
 <structure name="finalpos" >
  <crystal>
   <varray name="basis" >
    <v>       2.37660000       0.00000000       0.00000000 </v>
    <v>      -1.18830000       2.05819597       0.00000000 </v>
    <v>       0.00000000       0.00000000       4.09836000 </v>
   </varray>
   <i name="volume">     20.04716299 </i>
   <varray name="rec_basis" >
    <v>       0.42076917       0.24293119       0.00000000 </v>
    <v>       0.00000000       0.48586238       0.00000000 </v>
    <v>       0.00000000       0.00000000       0.24400004 </v>
   </varray>
  </crystal>
  <varray name="positions" >
   <v>       0.00000000       0.00000000       0.00000000 </v>
   <v>       0.33333333       0.66666667       0.50000000 </v>
  </varray>
 </structure>
</modeling>
