unknown system                          
   1.00000000000000     
     2.283400    0.000000    0.000000
    -1.141700    1.977482    0.000000
     0.000000    0.000000    4.018000
   Fe
     2
Direct
  0.000000  0.000000  0.000000
  0.333333  0.666667  0.500000
 
   20   20   32
 0.15216271640E+03 0.14449072690E+03 0.12378383154E+03 0.95763137761E+02 0.66919996891E+02
 0.42302141971E+02 0.24644711107E+02 0.14415672084E+02 0.10135047195E+02 0.89907359067E+01
 0.86806553384E+01 0.89907971465E+01 0.10135103682E+02 0.14415674421E+02 0.24644683826E+02
 0.42302143913E+02 0.66920042183E+02 0.95763182627E+02 0.12378383798E+03 0.14449071092E+03
 0.14449470804E+03 0.14449071236E+03 0.13033550172E+03 0.10613226782E+03 0.78055599030E+02
 0.51852474000E+02 0.31338456254E+02 0.18053834288E+02 0.11442828852E+02 0.92701550717E+01
 0.86735873417E+01 0.86733868467E+01 0.92699597908E+01 0.11442966784E+02 0.18053552278E+02
 0.31337072281E+02 0.51851503626E+02 0.78058291125E+02 0.10613986453E+03 0.13034440089E+03
 0.12378974648E+03 0.13031136945E+03 0.12378383696E+03 0.10613228342E+03 0.82161480162E+02
 0.57421686079E+02 0.36348077767E+02 0.21406890306E+02 0.12985727038E+02 0.96277522177E+01
 0.86868382175E+01 0.83916616119E+01 0.86863954699E+01 0.96277806261E+01 0.12986113980E+02
 0.21406068171E+02 0.36345519862E+02 0.57419932711E+02 0.82164002085E+02 0.10613894826E+03
 0.95760478894E+02 0.10606517799E+03 0.10606608197E+03 0.95763167678E+02 0.78055590445E+02
 0.57421671067E+02 0.38205998851E+02 0.23418856290E+02 0.14245058077E+02 0.10034069152E+02
 0.87114087803E+01 0.81826878667E+01 0.81824730578E+01 0.87112586059E+01 0.10034675516E+02
 0.14246024980E+02 0.23418726616E+02 0.38203711358E+02 0.57417723053E+02 0.78051590276E+02
 0.66911558180E+02 0.77960129381E+02 0.82031443447E+02 0.77966789223E+02 0.66919996539E+02
 0.51852444538E+02 0.36348089865E+02 0.23418869678E+02 0.14730721884E+02 0.10312493837E+02
 0.87355855280E+01 0.80557373283E+01 0.78141006114E+01 0.80556795871E+01 0.87356099421E+01
 0.10313274951E+02 0.14732890183E+02 0.23421430348E+02 0.36348095357E+02 0.51847506510E+02
 0.42301168992E+02 0.51774433754E+02 0.57284069291E+02 0.57286271339E+02 0.51778413931E+02
 0.42302127283E+02 0.31338461344E+02 0.21406917292E+02 0.14245042489E+02 0.10312482529E+02
 0.87473817529E+01 0.79991074488E+01 0.76011391878E+01 0.76012672733E+01 0.79988986291E+01
 0.87464270999E+01 0.10312300030E+02 0.14247753791E+02 0.21411956484E+02 0.31342044318E+02
 0.24650592334E+02 0.31311000001E+02 0.36270129294E+02 0.38103558786E+02 0.36267590397E+02
 0.31306066953E+02 0.24644698909E+02 0.18053849409E+02 0.12985717192E+02 0.10034045812E+02
 0.87356045338E+01 0.79991167391E+01 0.75329731836E+01 0.73779044396E+01 0.75333608323E+01
 0.79983406610E+01 0.87330344474E+01 0.10031554830E+02 0.12986113980E+02 0.18057966347E+02
 0.14415539542E+02 0.18067492079E+02 0.21408551530E+02 0.23401658678E+02 0.23398981606E+02
 0.21402710059E+02 0.18063093422E+02 0.14415663691E+02 0.11442838501E+02 0.96277378408E+01
 0.87114230706E+01 0.80557566240E+01 0.76011167385E+01 0.73778966754E+01 0.73784562726E+01
 0.76021073151E+01 0.80555447074E+01 0.87086897528E+01 0.96230021146E+01 0.11438834789E+02
 0.10128781809E+02 0.11470498881E+02 0.13035967903E+02 0.14302729389E+02 0.14787984498E+02
 0.14301012898E+02 0.13035962772E+02 0.11474594543E+02 0.10135064011E+02 0.92701606115E+01
 0.86868306165E+01 0.81827000797E+01 0.78140822021E+01 0.76012516181E+01 0.75333865487E+01
 0.76021141093E+01 0.78162627410E+01 0.81851767905E+01 0.86868088351E+01 0.92659626749E+01
 0.89905763139E+01 0.93028234280E+01 0.96927338433E+01 0.10124705886E+02 0.10416997566E+02
 0.10417958254E+02 0.10127800317E+02 0.96974971367E+01 0.93068070855E+01 0.89907535867E+01
 0.86735681662E+01 0.83916576041E+01 0.81824792471E+01 0.80556706710E+01 0.79989206183E+01
 0.79983533600E+01 0.80555164957E+01 0.81851707668E+01 0.83967958356E+01 0.86776047952E+01
 0.86865638463E+01 0.87147338935E+01 0.87594134274E+01 0.88117698085E+01 0.88570812377E+01
 0.88779543545E+01 0.88596135070E+01 0.88143207641E+01 0.87590449496E+01 0.87105715472E+01
 0.86806476344E+01 0.86733726169E+01 0.86864172513E+01 0.87112629076E+01 0.87356045338E+01
 0.87464321148E+01 0.87330100332E+01 0.87086797642E+01 0.86868382175E+01 0.86776097409E+01
 0.89905474332E+01 0.87147306326E+01 0.84701481297E+01 0.82918994008E+01 0.81888622450E+01
 0.81466814351E+01 0.81472243518E+01 0.81889766134E+01 0.82892132417E+01 0.84650789317E+01
 0.87107853040E+01 0.89907859459E+01 0.92699721380E+01 0.96277914347E+01 0.10034651239E+02
 0.10313268977E+02 0.10312305364E+02 0.10031553892E+02 0.96230273000E+01 0.92659694823E+01
 0.10128757702E+02 0.93028206243E+01 0.87594399560E+01 0.82919003871E+01 0.79531787312E+01
 0.77605873481E+01 0.76997827433E+01 0.77597674294E+01 0.79510261316E+01 0.82894017151E+01
 0.87594259342E+01 0.93070279181E+01 0.10135096392E+02 0.11442973381E+02 0.12986098177E+02
 0.14246017411E+02 0.14732916394E+02 0.14247761810E+02 0.12986108023E+02 0.11438831737E+02
 0.14415546599E+02 0.11470505500E+02 0.96927550323E+01 0.88117679514E+01 0.81888398083E+01
 0.77605888806E+01 0.75516427175E+01 0.75511113504E+01 0.77596419441E+01 0.81890396015E+01
 0.88144209661E+01 0.96974017894E+01 0.11474469058E+02 0.14415673086E+02 0.18053557941E+02
 0.21406067856E+02 0.23418744193E+02 0.23421434537E+02 0.21411929183E+02 0.18057956889E+02
 0.24650619614E+02 0.18067501716E+02 0.13035959637E+02 0.10124696508E+02 0.88570645814E+01
 0.81466879496E+01 0.76997999072E+01 0.75511077236E+01 0.76994017587E+01 0.81474453869E+01
 0.88596135070E+01 0.10127169976E+02 0.13035549407E+02 0.18063368051E+02 0.24644698909E+02
 0.31337076914E+02 0.36345514370E+02 0.38203704627E+02 0.36348077767E+02 0.31342043861E+02
 0.42301185015E+02 0.31310996538E+02 0.21408525760E+02 0.14302721109E+02 0.10417006894E+02
 0.88779653728E+01 0.81472353966E+01 0.77597574104E+01 0.77596303926E+01 0.81474499172E+01
 0.88789365934E+01 0.10417222131E+02 0.14300055942E+02 0.21403532135E+02 0.31307440862E+02
 0.42302145249E+02 0.51851487582E+02 0.57419924290E+02 0.57417729644E+02 0.51847519928E+02
 0.66911549720E+02 0.51774415196E+02 0.36270116345E+02 0.23401665967E+02 0.14788007142E+02
 0.10417963849E+02 0.88596032448E+01 0.81889652937E+01 0.79510210525E+01 0.81890507185E+01
 0.88596199010E+01 0.10417218399E+02 0.14785859200E+02 0.23399116485E+02 0.36270129060E+02
 0.51779388852E+02 0.66920033370E+02 0.78058294177E+02 0.82164018825E+02 0.78051601914E+02
 0.95760461884E+02 0.77960115945E+02 0.57284079889E+02 0.38103580193E+02 0.23398990091E+02
 0.14301002188E+02 0.10127781893E+02 0.88143183425E+01 0.82892245107E+01 0.82894119978E+01
 0.88144204016E+01 0.10127160930E+02 0.14300053512E+02 0.23399117682E+02 0.38105817709E+02
 0.57287972294E+02 0.77964113347E+02 0.95763195534E+02 0.10613987268E+03 0.10613894081E+03
 0.12378974004E+03 0.10606518899E+03 0.82031459862E+02 0.57286284676E+02 0.36267577682E+02
 0.21402688141E+02 0.13035959637E+02 0.96975102099E+01 0.87590589714E+01 0.84650789932E+01
 0.87594134274E+01 0.96973936736E+01 0.13035554538E+02 0.21403535988E+02 0.36270129294E+02
 0.57287975033E+02 0.82028867952E+02 0.10605849758E+03 0.12378383696E+03 0.13034437950E+03
 0.14449471094E+03 0.13031139681E+03 0.10606608561E+03 0.77966775862E+02 0.51778399237E+02
 0.31306055541E+02 0.18063108166E+02 0.11474615027E+02 0.93068046656E+01 0.87105581178E+01
 0.87107751354E+01 0.93070283020E+01 0.11474482923E+02 0.18063373158E+02 0.31307432913E+02
 0.51779392717E+02 0.77964113422E+02 0.10605849021E+03 0.13030247201E+03 0.14449069928E+03
 0.14291814517E+03 0.13571910802E+03 0.11627447516E+03 0.89934136949E+02 0.62807792949E+02
 0.39690195574E+02 0.23196702050E+02 0.13750786752E+02 0.98764573960E+01 0.88296114441E+01
 0.85271809335E+01 0.88296705801E+01 0.98765123633E+01 0.13750789636E+02 0.23196675387E+02
 0.39690195395E+02 0.62807833784E+02 0.89934178437E+02 0.11627448145E+03 0.13571909344E+03
 0.13572279169E+03 0.13571909377E+03 0.12242635640E+03 0.99677567337E+02 0.73268263299E+02
 0.48634907748E+02 0.29416831770E+02 0.17076077770E+02 0.11033252974E+02 0.90840749926E+01
 0.85090102148E+01 0.85088144330E+01 0.90838842355E+01 0.11033405232E+02 0.17075877384E+02
 0.29415609871E+02 0.48634031587E+02 0.73270742047E+02 0.99684579160E+02 0.12243458552E+03
 0.11627995081E+03 0.12240880056E+03 0.11627448048E+03 0.99677582600E+02 0.77125760223E+02
 0.53856870948E+02 0.34086404795E+02 0.20161501920E+02 0.12415481838E+02 0.93903038677E+01
 0.85152476367E+01 0.82290302926E+01 0.85148094493E+01 0.93903141308E+01 0.12415865764E+02
 0.20160789549E+02 0.34084064828E+02 0.53855237376E+02 0.77128068475E+02 0.99683738189E+02
 0.89931688280E+02 0.99628252197E+02 0.99629082790E+02 0.89934166228E+02 0.73268254883E+02
 0.53856856277E+02 0.35820482421E+02 0.22019277028E+02 0.13552810557E+02 0.97393964033E+01
 0.85358705524E+01 0.80241392130E+01 0.80239300998E+01 0.85357069828E+01 0.97399305266E+01
 0.13553681182E+02 0.22019133470E+02 0.35818342740E+02 0.53853188312E+02 0.73264553639E+02
 0.62800007289E+02 0.73201348350E+02 0.77034832398E+02 0.73207500047E+02 0.62807792606E+02
 0.48634878957E+02 0.34086416640E+02 0.22019290095E+02 0.13993043518E+02 0.99808659032E+01
 0.85569658261E+01 0.79007535937E+01 0.76688990776E+01 0.79007153348E+01 0.85569896128E+01
 0.99815550999E+01 0.13994996992E+02 0.22021623628E+02 0.34086421965E+02 0.48630333337E+02
 0.39689316916E+02 0.48590914447E+02 0.53774384999E+02 0.53776426916E+02 0.48594597186E+02
 0.39690181226E+02 0.29416836748E+02 0.20161528267E+02 0.13552795335E+02 0.99808548863E+01
 0.85664754810E+01 0.78459966904E+01 0.74649993251E+01 0.74651419627E+01 0.78458501813E+01
 0.85656161845E+01 0.99806766203E+01 0.13555292861E+02 0.20166207250E+02 0.29420186601E+02
 0.23202144744E+02 0.29423114838E+02 0.34069485039E+02 0.35789606501E+02 0.34067160278E+02
 0.29418573121E+02 0.23196690096E+02 0.17076092551E+02 0.12415472235E+02 0.97393736465E+01
 0.85569843392E+01 0.78460057238E+01 0.73999380142E+01 0.72522382929E+01 0.74003225060E+01
 0.78453208389E+01 0.85546324755E+01 0.97370912314E+01 0.12415865764E+02 0.17079924772E+02
 0.13750640376E+02 0.17120744194E+02 0.20222364340E+02 0.22078499320E+02 0.22076032829E+02
 0.20216987652E+02 0.17116708833E+02 0.13750778575E+02 0.11033262420E+02 0.93902898106E+01
 0.85358844572E+01 0.79007723764E+01 0.74649774742E+01 0.72522307454E+01 0.72527366895E+01
 0.74658711830E+01 0.79005660755E+01 0.85333660843E+01 0.93859241690E+01 0.11029557723E+02
 0.98706334751E+01 0.11089591210E+02 0.12520940078E+02 0.13685353389E+02 0.14132569541E+02
 0.13683753439E+02 0.12520935046E+02 0.11093403650E+02 0.98764738257E+01 0.90840803431E+01
 0.85152402013E+01 0.80241511483E+01 0.76688811661E+01 0.74651267336E+01 0.74003475452E+01
 0.74658778047E+01 0.76708466839E+01 0.80264202577E+01 0.85152189803E+01 0.90801859854E+01
 0.88294555755E+01 0.91438310333E+01 0.95076957800E+01 0.99027684934E+01 0.10169583103E+02
 0.10170449789E+02 0.99055865549E+01 0.95120741155E+01 0.91475170986E+01 0.88296286848E+01
 0.85089915215E+01 0.82290264581E+01 0.80239361436E+01 0.79007066312E+01 0.78458715912E+01
 0.78453332154E+01 0.79005385890E+01 0.80264143663E+01 0.82337845184E+01 0.85127276878E+01
 0.85326502908E+01 0.85762021690E+01 0.86388895396E+01 0.87083646907E+01 0.87647978520E+01
 0.87883458769E+01 0.87671161839E+01 0.87106910686E+01 0.86385236493E+01 0.85723415385E+01
 0.85271734582E+01 0.85088005913E+01 0.85148306703E+01 0.85357111234E+01 0.85569843392E+01
 0.85656210758E+01 0.85546086888E+01 0.85333563201E+01 0.85152476367E+01 0.85127325393E+01
 0.88294273631E+01 0.85761989580E+01 0.83579620384E+01 0.82051698026E+01 0.81219393634E+01
 0.80904551587E+01 0.80909698293E+01 0.81220679139E+01 0.82026944647E+01 0.83532680828E+01
 0.85725496938E+01 0.88296596084E+01 0.90838962621E+01 0.93903246322E+01 0.97399068648E+01
 0.99815492849E+01 0.99806818222E+01 0.97370903263E+01 0.93859487276E+01 0.90801926614E+01
 0.98706099343E+01 0.91438282590E+01 0.86389154955E+01 0.82051707878E+01 0.78964525724E+01
 0.77240085227E+01 0.76702578222E+01 0.77232962966E+01 0.78945110800E+01 0.82028785457E+01
 0.86389017538E+01 0.91477321032E+01 0.98765052522E+01 0.11033411679E+02 0.12415850340E+02
 0.13553673815E+02 0.13995022550E+02 0.13555300715E+02 0.12415859942E+02 0.11029554724E+02
 0.13750647287E+02 0.11089597690E+02 0.95077165036E+01 0.87083629087E+01 0.81219173911E+01
 0.77240100165E+01 0.75317682894E+01 0.75312885122E+01 0.77231568320E+01 0.81221125304E+01
 0.87108064588E+01 0.95119985754E+01 0.11093264185E+02 0.13750788370E+02 0.17075882878E+02
 0.20160789252E+02 0.22019150630E+02 0.22021627722E+02 0.20166180606E+02 0.17079915485E+02
 0.23202171407E+02 0.17120753663E+02 0.12520931975E+02 0.99027593260E+01 0.87647815468E+01
 0.80904615187E+01 0.76702746375E+01 0.75312849474E+01 0.76698797177E+01 0.80911296257E+01
 0.87671161839E+01 0.99050276729E+01 0.12520525515E+02 0.17116903451E+02 0.23196690096E+02
 0.29415614391E+02 0.34084059502E+02 0.35818336140E+02 0.34086404795E+02 0.29420186143E+02
 0.39689332565E+02 0.29423111473E+02 0.20222339118E+02 0.13685345262E+02 0.10169592248E+02
 0.87883566410E+01 0.80909806500E+01 0.77232864724E+01 0.77231455140E+01 0.80911340864E+01
 0.87892329600E+01 0.10169801785E+02 0.13682890430E+02 0.20217701401E+02 0.29419785266E+02
 0.39690196697E+02 0.48634015948E+02 0.53855229128E+02 0.53853194736E+02 0.48630346489E+02
 0.62799999007E+02 0.48590896269E+02 0.34069472384E+02 0.22078506424E+02 0.14132591720E+02
 0.10170455257E+02 0.87671061312E+01 0.81220568557E+01 0.78945060925E+01 0.81221234444E+01
 0.87671224364E+01 0.10169798107E+02 0.14130654487E+02 0.22076182088E+02 0.34069484862E+02
 0.48595475665E+02 0.62807825158E+02 0.73270745041E+02 0.77128084807E+02 0.73264565048E+02
 0.89931671647E+02 0.73201335177E+02 0.53774395398E+02 0.35789627446E+02 0.22076041123E+02
 0.13683742969E+02 0.99055685047E+01 0.87106887454E+01 0.82027054865E+01 0.82028885823E+01
 0.87108059176E+01 0.99050187901E+01 0.13682888088E+02 0.22076183279E+02 0.35791722665E+02
 0.53778013738E+02 0.73205034746E+02 0.89934191085E+02 0.99684587123E+02 0.99683730888E+02
 0.11627994452E+03 0.99628262978E+02 0.77034848483E+02 0.53776439984E+02 0.34067147799E+02
 0.20216966222E+02 0.12520931975E+02 0.95120869259E+01 0.86385373910E+01 0.83532680705E+01
 0.86388895396E+01 0.95119906623E+01 0.12520530547E+02 0.20217705194E+02 0.34069485039E+02
 0.53778016407E+02 0.77032475260E+02 0.99622082745E+02 0.11627448048E+03 0.12243456454E+03
 0.13572279453E+03 0.12240882739E+03 0.99629086358E+02 0.73207486985E+02 0.48594582776E+02
 0.29418561958E+02 0.17116723278E+02 0.11093423662E+02 0.91475147660E+01 0.85723283700E+01
 0.85725397364E+01 0.91477325449E+01 0.11093277717E+02 0.17116908428E+02 0.29419777468E+02
 0.48595479433E+02 0.73205034857E+02 0.99622075532E+02 0.12240057483E+03 0.13571908202E+03
 0.11845588915E+03 0.11249357181E+03 0.96361608163E+02 0.74461721876E+02 0.51911860326E+02
 0.32821503636E+02 0.19451553499E+02 0.12077520040E+02 0.92310103533E+01 0.83924456652E+01
 0.81137563106E+01 0.83924993822E+01 0.92310614183E+01 0.12077524399E+02 0.19451528598E+02
 0.32821498258E+02 0.51911889932E+02 0.74461754780E+02 0.96361614041E+02 0.11249356073E+03
 0.11249647027E+03 0.11249355837E+03 0.10146196248E+03 0.82546758375E+02 0.60567539903E+02
 0.40138830310E+02 0.24404008362E+02 0.14582255353E+02 0.10015665186E+02 0.85942572764E+01
 0.80675643542E+01 0.80673836913E+01 0.85940811985E+01 0.10015849210E+02 0.14582255156E+02
 0.24403199337E+02 0.40138197211E+02 0.60569458598E+02 0.82552230920E+02 0.10146842451E+03
 0.96365923733E+02 0.10146235988E+03 0.96361613174E+02 0.82546772697E+02 0.63762415884E+02
 0.44428327738E+02 0.28160345391E+02 0.16957630533E+02 0.10986996671E+02 0.87895750088E+01
 0.80530671548E+01 0.77936687670E+01 0.80526476869E+01 0.87895408368E+01 0.10987365847E+02
 0.16957195720E+02 0.28158573917E+02 0.44427013033E+02 0.63764166327E+02 0.82551586909E+02
 0.74459825316E+02 0.82545588799E+02 0.82546227164E+02 0.74461749334E+02 0.60567531960E+02
 0.44428314036E+02 0.29561486427E+02 0.18404210879E+02 0.11807233194E+02 0.90023403763E+01
 0.80595714957E+01 0.75979842746E+01 0.75977925976E+01 0.80593783344E+01 0.90026902842E+01
 0.11807855715E+02 0.18404036734E+02 0.29559742777E+02 0.44425388952E+02 0.60564619599E+02
 0.51905792788E+02 0.60577250135E+02 0.63776613945E+02 0.60582063145E+02 0.51911859993E+02
 0.40138803425E+02 0.28160356522E+02 0.18404223029E+02 0.12128626847E+02 0.91528891622E+01
 0.80722254651E+01 0.74817398305E+01 0.72773791290E+01 0.74817492341E+01 0.80722474647E+01
 0.91533444723E+01 0.12130026866E+02 0.18405966198E+02 0.28160361370E+02 0.40135287676E+02
 0.32820868350E+02 0.40185112312E+02 0.44492454461E+02 0.44494072571E+02 0.40188009932E+02
 0.32821490253E+02 0.24404013023E+02 0.16957655055E+02 0.11807219012E+02 0.91528789755E+01
 0.80781546811E+01 0.74304182100E+01 0.70963077206E+01 0.70964827651E+01 0.74304246202E+01
 0.80775413454E+01 0.91527145643E+01 0.11809155272E+02 0.16961379173E+02 0.24406738780E+02
 0.19455838290E+02 0.24498237401E+02 0.28303249933E+02 0.29718295030E+02 0.28301484303E+02
 0.24494722948E+02 0.19451542234E+02 0.14582269161E+02 0.10986987763E+02 0.90023192842E+01
 0.80722425844E+01 0.74304265131E+01 0.70389613193E+01 0.69110266656E+01 0.70393310905E+01
 0.74299740332E+01 0.80704600122E+01 0.90005814990E+01 0.10987365847E+02 0.14585344012E+02
 0.12077343223E+02 0.14705865671E+02 0.17170120481E+02 0.18659693861E+02 0.18657780579E+02
 0.17165963460E+02 0.14702780363E+02 0.12077512479E+02 0.10015674059E+02 0.87895618725E+01
 0.80595843109E+01 0.74817571526E+01 0.70962875687E+01 0.69110197318E+01 0.69113871624E+01
 0.70969314972E+01 0.74815680583E+01 0.80576300461E+01 0.87861684668E+01 0.10012758499E+02
 0.92263588470E+01 0.10143022982E+02 0.11229837001E+02 0.12126460327E+02 0.12473410021E+02
 0.12125171006E+02 0.11229832252E+02 0.10146081852E+02 0.92310256895E+01 0.85942620965E+01
 0.80530601922E+01 0.75979954108E+01 0.72773626268E+01 0.70964687445E+01 0.70393541989E+01
 0.70969376285E+01 0.72787737019E+01 0.75997220618E+01 0.80530405666E+01 0.85911716635E+01
 0.83923021926E+01 0.87194011845E+01 0.90334280389E+01 0.93408575715E+01 0.95440771512E+01
 0.95447013742E+01 0.93429576826E+01 0.90367977533E+01 0.87223017064E+01 0.83924616549E+01
 0.80675470262E+01 0.77936654102E+01 0.75977982212E+01 0.74817411388E+01 0.74304443818E+01
 0.74299854917E+01 0.74815426409E+01 0.75997165491E+01 0.77974195024E+01 0.80704904159E+01
 0.81180660022E+01 0.81963329069E+01 0.82967337067E+01 0.84002163774E+01 0.84799286206E+01
 0.85107685437E+01 0.84816883874E+01 0.84019586386E+01 0.82963813415E+01 0.81932713564E+01
 0.81137494734E+01 0.80673709442E+01 0.80526673126E+01 0.80593820275E+01 0.80722425844E+01
 0.80775458808E+01 0.80704380126E+01 0.80576209239E+01 0.80530671548E+01 0.80704949968E+01
 0.83922758863E+01 0.81963298408E+01 0.80397583434E+01 0.79426256386E+01 0.79002679976E+01
 0.78899379927E+01 0.78903748522E+01 0.79004279882E+01 0.79407041855E+01 0.80360560751E+01
 0.81934622430E+01 0.83924890656E+01 0.85940923176E+01 0.87895504757E+01 0.90026683841E+01
 0.91533391045E+01 0.91527193832E+01 0.90005806911E+01 0.87861912420E+01 0.85911779624E+01
 0.92263369186E+01 0.87193984982E+01 0.82967580279E+01 0.79426266152E+01 0.77007029226E+01
 0.75711230729E+01 0.75319942903E+01 0.75706833554E+01 0.76993057806E+01 0.79408739645E+01
 0.82967450846E+01 0.87224988961E+01 0.92310548260E+01 0.10015855235E+02 0.10987351507E+02
 0.11807848920E+02 0.12130050557E+02 0.11809162658E+02 0.10987360414E+02 0.10012755651E+02
 0.12077349715E+02 0.10143029073E+02 0.90334474337E+01 0.84002148000E+01 0.79002473455E+01
 0.75711244606E+01 0.74155757117E+01 0.74152291934E+01 0.75705130306E+01 0.79004274423E+01
 0.84021078559E+01 0.90367708886E+01 0.10145911527E+02 0.12077523330E+02 0.14582260164E+02
 0.16957195472E+02 0.18404052704E+02 0.18405970018E+02 0.16961354403E+02 0.14585335213E+02
 0.19455863191E+02 0.14705874659E+02 0.11229829360E+02 0.93408489989E+01 0.84799133124E+01
 0.78899439222E+01 0.75320101202E+01 0.74152258060E+01 0.75316305471E+01 0.78903846540E+01
 0.84816883874E+01 0.93425809122E+01 0.11229439372E+02 0.14702778767E+02 0.19451542234E+02
 0.24403203534E+02 0.28158569069E+02 0.29559736544E+02 0.28160345391E+02 0.24406738316E+02
 0.32820882935E+02 0.24498234316E+02 0.17170096822E+02 0.12126452634E+02 0.95440857815E+01
 0.85107785915E+01 0.78903850421E+01 0.75706740847E+01 0.75705023721E+01 0.78903889144E+01
 0.85114103520E+01 0.95442778631E+01 0.12124550306E+02 0.17166402985E+02 0.24495522969E+02
 0.32821499460E+02 0.40138182724E+02 0.44427005273E+02 0.44425394892E+02 0.40135300074E+02
 0.51905785018E+02 0.40185095220E+02 0.28303238114E+02 0.18659700441E+02 0.12473430877E+02
 0.95447064822E+01 0.84816789287E+01 0.79004176703E+01 0.76993010495E+01 0.79004377766E+01
 0.84816942369E+01 0.95442743408E+01 0.12472037284E+02 0.18657961755E+02 0.28303249919E+02
 0.40188639840E+02 0.51911881829E+02 0.60569461424E+02 0.63764181500E+02 0.60564630368E+02
 0.74459809764E+02 0.60577237704E+02 0.44492464289E+02 0.29718314660E+02 0.18657788328E+02
 0.12125161222E+02 0.93429406922E+01 0.84019565876E+01 0.79407145027E+01 0.79408833051E+01
 0.84021073824E+01 0.93425724943E+01 0.12124548215E+02 0.18657962925E+02 0.29720027821E+02
 0.44495354776E+02 0.60580151032E+02 0.74461766686E+02 0.82552238355E+02 0.82551580023E+02
 0.96365917855E+02 0.82545598928E+02 0.63776629079E+02 0.44494084875E+02 0.28301472498E+02
 0.17165943423E+02 0.11229829360E+02 0.90368098068E+01 0.82963942848E+01 0.80360558664E+01
 0.82967337067E+01 0.90367635472E+01 0.11229444121E+02 0.17166406607E+02 0.28303249933E+02
 0.44495357251E+02 0.63774826493E+02 0.82540765002E+02 0.96361613174E+02 0.10146840471E+03
 0.11249647293E+03 0.10146238515E+03 0.82546230507E+02 0.60582050936E+02 0.40187996340E+02
 0.24494712496E+02 0.14702793958E+02 0.10146100517E+02 0.87222996179E+01 0.81932589422E+01
 0.81934528948E+01 0.87224994939E+01 0.10145924102E+02 0.14702783375E+02 0.24495515602E+02
 0.40188643339E+02 0.60580151255E+02 0.82540758215E+02 0.10145590522E+03 0.11249354995E+03
 0.86650438527E+02 0.82271412433E+02 0.70409585927E+02 0.54305482198E+02 0.37815699750E+02
 0.24105629544E+02 0.14878211342E+02 0.10149222763E+02 0.84683578837E+01 0.77985143782E+01
 0.75599435246E+01 0.77985599953E+01 0.84684022233E+01 0.10149227820E+02 0.14878189091E+02
 0.24105619563E+02 0.37815717494E+02 0.54305505548E+02 0.70409591180E+02 0.82271405203E+02
 0.82273304400E+02 0.82271400247E+02 0.74149427427E+02 0.60215888936E+02 0.44072982339E+02
 0.29249918564E+02 0.18162757174E+02 0.11628456395E+02 0.88598598963E+01 0.79323412540E+01
 0.74783544259E+01 0.74782003294E+01 0.79321909326E+01 0.88600670013E+01 0.11628669757E+02
 0.18162435706E+02 0.29249581688E+02 0.44074192187E+02 0.60219401421E+02 0.74153628841E+02
 0.70412413159E+02 0.74173604706E+02 0.70409590513E+02 0.60215901839E+02 0.46390007454E+02
 0.32293987654E+02 0.20706989852E+02 0.13092150434E+02 0.93516239095E+01 0.80465488235E+01
 0.74309569993E+01 0.72142084732E+01 0.74305813248E+01 0.80464688397E+01 0.93519561035E+01
 0.13092037331E+02 0.20705927459E+02 0.32293088377E+02 0.46391059844E+02 0.60219004603E+02
 0.54304285873E+02 0.60277794995E+02 0.60278191016E+02 0.54305506908E+02 0.44072975074E+02
 0.32293975403E+02 0.21664870172E+02 0.14004273701E+02 0.97864126551E+01 0.81327388643E+01
 0.74102172059E+01 0.70266416141E+01 0.70264797842E+01 0.74100040353E+01 0.81328723852E+01
 0.97867345789E+01 0.14004076732E+02 0.21663649521E+02 0.32292012037E+02 0.44071073315E+02
 0.37811818922E+02 0.44181725394E+02 0.46540392775E+02 0.44184829578E+02 0.37815699400E+02
 0.29249894529E+02 0.20706999928E+02 0.14004284476E+02 0.99610371154E+01 0.81893450161E+01
 0.74045958580E+01 0.69141807968E+01 0.67493967725E+01 0.69142408082E+01 0.74046151837E+01
 0.81895248097E+01 0.99617654823E+01 0.14005296407E+02 0.20707004052E+02 0.29247682491E+02
 0.24105290947E+02 0.29410913893E+02 0.32545189151E+02 0.32546260931E+02 0.29412805131E+02
 0.24105617594E+02 0.18162761372E+02 0.13092172215E+02 0.97864000121E+01 0.81893360777E+01
 0.74040490004E+01 0.68636386866E+01 0.65950623812E+01 0.65952614562E+01 0.68638071002E+01
 0.74037332379E+01 0.81891961930E+01 0.97876256376E+01 0.13094661963E+02 0.18164663520E+02
 0.14881011071E+02 0.18366338948E+02 0.21049824138E+02 0.22056916714E+02 0.21048758537E+02
 0.18364125708E+02 0.14878201107E+02 0.11628468733E+02 0.93516160345E+01 0.81327202828E+01
 0.74046109151E+01 0.68636459026E+01 0.65464482867E+01 0.64446875180E+01 0.65467802630E+01
 0.68634667554E+01 0.74035385906E+01 0.81316644380E+01 0.93519561035E+01 0.11630557227E+02
 0.10149023346E+02 0.11847744685E+02 0.13489591991E+02 0.14499916576E+02 0.14498705196E+02
 0.13486978805E+02 0.11845852943E+02 0.10149216118E+02 0.88598679301E+01 0.80465370933E+01
 0.74102284145E+01 0.69141959362E+01 0.65950447551E+01 0.64446814960E+01 0.64448802637E+01
 0.65953855990E+01 0.69140363342E+01 0.74089888339E+01 0.80443772983E+01 0.88579633301E+01
 0.84652280559E+01 0.90711184816E+01 0.97572308645E+01 0.10327180784E+02 0.10549554234E+02
 0.10326297857E+02 0.97572265522E+01 0.90731952812E+01 0.84683716096E+01 0.79323453028E+01
 0.74309507532E+01 0.70266515286E+01 0.67493823550E+01 0.65952492290E+01 0.65468004748E+01
 0.65953909979E+01 0.67501211775E+01 0.70276994596E+01 0.74309335129E+01 0.79302917354E+01
 0.77983932244E+01 0.81328642990E+01 0.84358914833E+01 0.86719420061E+01 0.88119196348E+01
 0.88122485238E+01 0.86731533001E+01 0.84379886463E+01 0.81347578448E+01 0.77985285007E+01
 0.74783391190E+01 0.72142057789E+01 0.70264847577E+01 0.69142336392E+01 0.68638244018E+01
 0.68634768408E+01 0.69140140259E+01 0.70276945186E+01 0.72166712594E+01 0.74802662976E+01
 0.75627655040E+01 0.76762463596E+01 0.78083855119E+01 0.79363055486E+01 0.80307892006E+01
 0.80662066273E+01 0.80318497861E+01 0.79373225966E+01 0.78080682728E+01 0.76742158232E+01
 0.75599376062E+01 0.74781891927E+01 0.74305985651E+01 0.74100070961E+01 0.74046109151E+01
 0.74037372283E+01 0.74035192649E+01 0.74089806859E+01 0.74309569993E+01 0.74802704677E+01
 0.77983697782E+01 0.76762435197E+01 0.75888502727E+01 0.75462284129E+01 0.75388942055E+01
 0.75447455463E+01 0.75450738710E+01 0.75390783109E+01 0.75450098500E+01 0.75864219060E+01
 0.76743772678E+01 0.77985506716E+01 0.79322007028E+01 0.80464772194E+01 0.81328531546E+01
 0.81895200944E+01 0.81892004161E+01 0.81316637889E+01 0.80443974082E+01 0.79302974567E+01
 0.84652085425E+01 0.81328617638E+01 0.78084073798E+01 0.75462293613E+01 0.73735092691E+01
 0.72843247623E+01 0.72581814342E+01 0.72842024081E+01 0.73727751544E+01 0.75451544500E+01
 0.78083956346E+01 0.81349246157E+01 0.84683964360E+01 0.88600724040E+01 0.93519433963E+01
 0.97867286287E+01 0.99617863468E+01 0.97876323305E+01 0.93519512712E+01 0.88579606991E+01
 0.10149029200E+02 0.90711239978E+01 0.84359088830E+01 0.79363042450E+01 0.75388755185E+01
 0.72843260045E+01 0.71661025797E+01 0.71659188173E+01 0.72840088448E+01 0.75390293476E+01
 0.79374993154E+01 0.84380154387E+01 0.90730017179E+01 0.10149227028E+02 0.11628674025E+02
 0.13092037162E+02 0.14004090913E+02 0.14005299813E+02 0.13094640013E+02 0.11630549156E+02
 0.14881033322E+02 0.11847752953E+02 0.97572239198E+01 0.86719343033E+01 0.80307753788E+01
 0.75447508570E+01 0.72581958144E+01 0.71659156916E+01 0.72578540724E+01 0.75449225957E+01
 0.80318497861E+01 0.86729932044E+01 0.97568743641E+01 0.11845641794E+02 0.14878201107E+02
 0.18162439430E+02 0.20705923335E+02 0.21663643821E+02 0.20706989852E+02 0.18164663046E+02
 0.24105303941E+02 0.18366336284E+02 0.13489570683E+02 0.10327173742E+02 0.88119274954E+01
 0.80662156252E+01 0.75450831353E+01 0.72841939649E+01 0.72839991593E+01 0.75449265493E+01
 0.80665490748E+01 0.88120896918E+01 0.10325972254E+02 0.13487099934E+02 0.18364439583E+02
 0.24105620608E+02 0.29249568926E+02 0.32293081330E+02 0.32292017242E+02 0.29247693764E+02
 0.37811811934E+02 0.29410898429E+02 0.21049813580E+02 0.14499922378E+02 0.10549573119E+02
 0.88122530984E+01 0.80318412152E+01 0.75390690818E+01 0.73727707945E+01 0.75390388055E+01
 0.80318550370E+01 0.88120864057E+01 0.10548840586E+02 0.14498909670E+02 0.21049824374E+02
 0.29413133748E+02 0.37815710156E+02 0.44074194750E+02 0.46391073290E+02 0.44071083142E+02
 0.54304271952E+02 0.44181714060E+02 0.32545198113E+02 0.22056934380E+02 0.14498712131E+02
 0.10326289099E+02 0.86731378744E+01 0.79373209281E+01 0.75450191149E+01 0.75451627665E+01
 0.79374989504E+01 0.86729854816E+01 0.10325970538E+02 0.14498910803E+02 0.22058138689E+02
 0.32547142560E+02 0.44183619332E+02 0.54305516337E+02 0.60219408101E+02 0.60218998379E+02
 0.70412407907E+02 0.60277804106E+02 0.46540406450E+02 0.32546272090E+02 0.21048747744E+02
 0.13486960856E+02 0.97572239198E+01 0.84379995434E+01 0.78080800181E+01 0.75864214490E+01
 0.78083855119E+01 0.84380089360E+01 0.97568786764E+01 0.13487103293E+02 0.21049824138E+02
 0.32547144758E+02 0.46539316182E+02 0.60274687117E+02 0.70409590513E+02 0.74153610848E+02
 0.82273306785E+02 0.74173627592E+02 0.60278193977E+02 0.44184818659E+02 0.29412792781E+02
 0.18364116329E+02 0.11845865276E+02 0.90732119135E+01 0.81347561161E+01 0.76742045674E+01
 0.76743688519E+01 0.81349254222E+01 0.90730128339E+01 0.11845645859E+02 0.18364432868E+02
 0.29413136862E+02 0.44183619746E+02 0.60274680967E+02 0.74169414339E+02 0.82271395402E+02
 0.55873005855E+02 0.53026916073E+02 0.45333730369E+02 0.34965634175E+02 0.24547723157E+02
 0.16225669474E+02 0.11026965325E+02 0.86517960656E+01 0.77347029979E+01 0.71905660688E+01
 0.70043745610E+01 0.71905993488E+01 0.77347344376E+01 0.86517974482E+01 0.11026946231E+02
 0.16225660260E+02 0.24547735769E+02 0.34965651872E+02 0.45333734877E+02 0.53026911085E+02
 0.53027875628E+02 0.53026905413E+02 0.47740968191E+02 0.38717133529E+02 0.28402074935E+02
 0.19209376512E+02 0.12720820874E+02 0.92604855330E+01 0.79177577058E+01 0.72414850903E+01