    2    2    1    1
  0.9071405E+01  0.2283400E-09  0.2283400E-09  0.4018000E-09  0.5000000E-15
  1.000000000000000E-004
  CAR 
 unknown system                          
     16     96     40
 
  0.0000000E+00  0.0000000E+00  0.0000000E+00  0.7513148E-03
    1       -1.275637   1.000000
    2        2.617852   1.000000
    3        5.707546   1.000000
    4        6.429364   1.000000
    5        6.429415   1.000000
    6        6.800086   1.000000
    7        6.800147   1.000000
    8        7.514432   1.000000
    9        7.915828   1.011801
   10        7.915844   1.011804
   11        9.178927  -0.000000
   12        9.178943  -0.000000
   13       16.762664   0.000000
   14       32.720260   0.000000
   15       33.054472   0.000000
   16       36.014087   0.000000
   17       39.257722   0.000000
   18       39.257793   0.000000
   19       39.945559   0.000000
   20       39.945736   0.000000
   21       40.868370   0.000000
   22       42.414336   0.000000
   23       42.414351   0.000000
   24       43.496329   0.000000
   25       46.645902   0.000000
   26       46.645910   0.000000
   27       47.860095   0.000000
   28       51.121042   0.000000
   29       51.121471   0.000000
   30       53.027901   0.000000
   31       53.028091   0.000000
   32       55.944453   0.000000
   33       63.675181   0.000000
   34       64.110477   0.000000
   35       64.468757   0.000000
   36       64.469583   0.000000
   37       65.732437   0.000000
   38       67.773724   0.000000
   39       67.774728   0.000000
   40       70.225925   0.000000
 
  0.9090909E-01  0.4275639E-17  0.0000000E+00  0.4507889E-02
    1       -0.913003   1.000000
    2        2.892752   1.000000
    3        5.715474   1.000000
    4        6.362613   1.000000
    5        6.543575   1.000000
    6        6.656613   1.000000
    7        6.668423   1.000000
    8        7.011214   1.000000
    9        7.739897   1.000349
   10        7.782105   1.000961
   11        9.220142  -0.000000
   12       10.428238  -0.000000
   13       16.783062   0.000000
   14       31.697556   0.000000
   15       33.424102   0.000000
   16       34.589952   0.000000
   17       36.270262   0.000000
   18       38.155621   0.000000
   19       38.334768   0.000000
   20       40.744523   0.000000
   21       41.901733   0.000000
   22       43.124066   0.000000
   23       43.290561   0.000000
   24       43.794798   0.000000
   25       47.813432   0.000000
   26       48.077010   0.000000
   27       48.560614   0.000000
   28       48.856961   0.000000
   29       52.111625   0.000000
   30       54.586981   0.000000
   31       55.489428   0.000000
   32       57.647438   0.000000
   33       62.194496   0.000000
   34       63.670701   0.000000
   35       63.772788   0.000000
   36       64.288785   0.000000
   37       64.775006   0.000000
   38       68.393861   0.000000
   39       70.101081   0.000000
   40       70.249131   0.000000
 
  0.1818182E+00  0.4954155E-17  0.0000000E+00  0.4507889E-02
    1        0.102943   1.000000
    2        3.526157   1.000000
    3        5.303538   1.000000
    4        5.493700   1.000000
    5        6.156648   1.000000
    6        6.825476   1.000000
    7        7.286683   1.000000
    8        7.319727   1.000000
    9        7.466850   1.000000
   10        7.592631   1.000005
   11        9.287136  -0.000000
   12       12.446931  -0.000000
   13       16.861856   0.000000
   14       28.105151   0.000000
   15       33.212145   0.000000
   16       33.290695   0.000000
   17       33.541681   0.000000
   18       34.468705   0.000000
   19       39.159582   0.000000
   20       40.144903   0.000000
   21       40.821931   0.000000
   22       41.106530   0.000000
   23       44.318224   0.000000
   24       45.526172   0.000000
   25       48.274863   0.000000
   26       49.067429   0.000000
   27       50.521928   0.000000
   28       52.908124   0.000000
   29       55.443387   0.000000
   30       57.375342   0.000000
   31       58.161957   0.000000
   32       60.311579   0.000000
   33       60.818714   0.000000
   34       61.962745   0.000000
   35       62.003024   0.000000
   36       63.089607   0.000000
   37       65.907362   0.000000
   38       69.165504   0.000000
   39       70.214634   0.000000
   40       70.680500   0.000000
 
  0.2727273E+00  0.2290899E-17  0.0000000E+00  0.4507889E-02
    1        1.505788   1.000000
    2        3.776085   1.000000
    3        4.326010   1.000000
    4        5.464091   1.000000
    5        5.970884   1.000000
    6        6.794935   1.000000
    7        7.109748   1.000000
    8        7.716130   1.000189
    9        8.184967   0.884513
   10        8.408477   0.084225
   11        9.326352  -0.000000
   12       14.701532   0.000000
   13       17.049626   0.000000
   14       24.023856   0.000000
   15       29.841668   0.000000
   16       30.596688   0.000000
   17       31.751740   0.000000
   18       34.353797   0.000000
   19       37.548875   0.000000
   20       40.504484   0.000000
   21       40.603850   0.000000
   22       41.088855   0.000000
   23       41.879817   0.000000
   24       45.586869   0.000000
   25       51.825396   0.000000
   26       53.337085   0.000000
   27       54.184210   0.000000
   28       55.666981   0.000000
   29       56.716150   0.000000
   30       57.839675   0.000000
   31       59.479929   0.000000
   32       61.290125   0.000000
   33       61.401884   0.000000
   34       61.995933   0.000000
   35       62.953704   0.000000
   36       65.730372   0.000000
   37       65.984375   0.000000
   38       69.863955   0.000000
   39       70.195478   0.000000
   40       70.447060   0.000000
 
  0.3636364E+00 -0.1425014E-16  0.0000000E+00  0.4507889E-02
    1        2.656273   1.000000
    2        3.452150   1.000000
    3        3.665429   1.000000
    4        5.704669   1.000000
    5        6.333887   1.000000
    6        6.445517   1.000000
    7        6.815261   1.000000
    8        9.092755  -0.000000
    9        9.156348  -0.000000
   10        9.234389  -0.000000
   11        9.333853  -0.000000
   12       16.838220   0.000000
   13       17.082342   0.000000
   14       21.072551   0.000000
   15       26.462704   0.000000
   16       28.583685   0.000000
   17       28.968193   0.000000
   18       33.466177   0.000000
   19       36.389562   0.000000
   20       39.692523   0.000000
   21       40.137917   0.000000
   22       42.052882   0.000000
   23       42.688841   0.000000
   24       45.741445   0.000000
   25       53.435872   0.000000
   26       54.771227   0.000000
   27       55.327104   0.000000
   28       58.550961   0.000000
   29       58.836548   0.000000
   30       59.015327   0.000000
   31       60.929442   0.000000
   32       62.287946   0.000000
   33       62.590288   0.000000
   34       63.192093   0.000000
   35       64.369479   0.000000
   36       65.999851   0.000000
   37       69.820552   0.000000
   38       69.823113   0.000000
   39       70.056626   0.000000
   40       70.401300   0.000000
 
  0.4545455E+00  0.3696711E-16  0.0000000E+00  0.4507889E-02
    1        2.965650   1.000000
    2        3.256157   1.000000
    3        3.334345   1.000000
    4        6.068586   1.000000
    5        6.345876   1.000000
    6        6.650213   1.000000
    7        6.721861   1.000000
    8        9.327964  -0.000000
    9        9.660153  -0.000000
   10        9.792099  -0.000000
   11       11.057139  -0.000000
   12       14.837522   0.000000
   13       19.312267   0.000000
   14       21.040125   0.000000
   15       23.752071   0.000000
   16       26.240855   0.000000
   17       27.448789   0.000000
   18       32.802637   0.000000
   19       36.011299   0.000000
   20       38.460389   0.000000
   21       39.960820   0.000000
   22       43.008983   0.000000
   23       44.968290   0.000000
   24       45.584565   0.000000
   25       50.091337   0.000000
   26       55.665708   0.000000
   27       56.554906   0.000000
   28       60.290341   0.000000
   29       60.365014   0.000000
   30       61.503489   0.000000
   31       62.910113   0.000000
   32       63.125582   0.000000
   33       63.160610   0.000000
   34       65.577277   0.000000
   35       66.073543   0.000000
   36       68.280708   0.000000
   37       68.645109   0.000000
   38       68.844265   0.000000
   39       71.225240   0.000000
   40       71.537111   0.000000
 
  0.9090909E-01  0.9090909E-01  0.0000000E+00  0.4507889E-02
    1       -0.220106   1.000000
    2        3.371007   1.000000
    3        5.532362   1.000000
    4        5.632780   1.000000
    5        6.413760   1.000000
    6        6.453280   1.000000
    7        7.118422   1.000000
    8        7.275459   1.000000
    9        7.464173   1.000000
   10        7.742171   1.000369
   11        9.235815  -0.000000
   12       11.890449  -0.000000
   13       16.839172   0.000000
   14       29.793447   0.000000
   15       31.399211   0.000000
   16       33.952715   0.000000
   17       35.199567   0.000000
   18       37.062127   0.000000
   19       37.281384   0.000000
   20       39.187942   0.000000
   21       40.380055   0.000000
   22       44.863063   0.000000
   23       45.210650   0.000000
   24       46.223709   0.000000
   25       46.737349   0.000000
   26       47.284501   0.000000
   27       47.491345   0.000000
   28       53.361691   0.000000
   29       55.736218   0.000000
   30       56.466893   0.000000
   31       56.495112   0.000000
   32       59.794928   0.000000
   33       60.758405   0.000000
   34       62.531860   0.000000
   35       63.177684   0.000000
   36       63.344761   0.000000
   37       64.717536   0.000000
   38       69.507632   0.000000
   39       69.999164   0.000000
   40       71.529376   0.000000
 
  0.1818182E+00  0.9090909E-01  0.0000000E+00  0.9015778E-02
    1        1.023379   1.000000
    2        3.956713   1.000000
    3        4.683444   1.000000
    4        5.183141   1.000000
    5        6.075191   1.000000
    6        6.762282   1.000000
    7        6.967981   1.000000
    8        7.443835   1.000000
    9        7.945011   1.017400
   10        8.310632   0.414655
   11        9.236104  -0.000000
   12       13.916213   0.000000
   13       17.020557   0.000000
   14       26.105353   0.000000
   15       28.877268   0.000000
   16       31.649792   0.000000
   17       33.888747   0.000000
   18       34.744022   0.000000
   19       38.067126   0.000000
   20       38.316737   0.000000
   21       39.528876   0.000000
   22       44.281949   0.000000
   23       44.409012   0.000000
   24       45.845307   0.000000
   25       48.853339   0.000000
   26       49.594693   0.000000
   27       51.739180   0.000000
   28       56.194395   0.000000
   29       58.076289   0.000000
   30       58.238416   0.000000
   31       58.982854   0.000000
   32       60.808170   0.000000
   33       61.059031   0.000000
   34       62.083338   0.000000
   35       62.983691   0.000000
   36       63.265476   0.000000
   37       65.413692   0.000000
   38       69.643751   0.000000
   39       70.103799   0.000000
   40       71.408841   0.000000
 
  0.2727273E+00  0.9090909E-01  0.0000000E+00  0.9015778E-02
    1        2.412461   1.000000
    2        3.831564   1.000000
    3        3.958626   1.000000
    4        5.309170   1.000000
    5        6.170714   1.000000
    6        6.348570   1.000000
    7        7.012550   1.000000
    8        7.873979   1.006083
    9        8.853479  -0.000252
   10        9.226171  -0.000000
   11        9.414871  -0.000000
   12       16.205237   0.000000
   13       17.308275   0.000000
   14       22.324656   0.000000
   15       27.052745   0.000000
   16       28.222588   0.000000
   17       31.436458   0.000000
   18       32.741928   0.000000
   19       37.444545   0.000000
   20       38.685648   0.000000
   21       39.736394   0.000000
   22       43.756335   0.000000
   23       43.851910   0.000000
   24       46.863093   0.000000
   25       50.960086   0.000000
   26       53.521659   0.000000
   27       55.055139   0.000000
   28       55.540292   0.000000
   29       57.186642   0.000000
   30       59.636040   0.000000
   31       60.240720   0.000000
   32       62.288411   0.000000
   33       62.889837   0.000000
   34       63.387518   0.000000
   35       63.907605   0.000000
   36       65.491990   0.000000
   37       68.769723   0.000000
   38       69.204464   0.000000
   39       69.674672   0.000000
   40       71.595631   0.000000
 
  0.3636364E+00  0.9090909E-01  0.0000000E+00  0.9015778E-02
    1        3.149062   1.000000
    2        3.503304   1.000000
    3        3.517049   1.000000
    4        5.826650   1.000000
    5        6.102522   1.000000
    6        6.600847   1.000000
    7        6.638740   1.000000
    8        8.945629  -0.000018
    9        9.209538  -0.000000
   10        9.485624  -0.000000
   11       10.800016  -0.000000
   12       16.345188   0.000000
   13       18.589097   0.000000
   14       20.843071   0.000000
   15       25.155212   0.000000
   16       25.608780   0.000000
   17       28.140739   0.000000
   18       31.798890   0.000000
   19       36.480949   0.000000
   20       38.178306   0.000000
   21       40.988654   0.000000
   22       44.074648   0.000000
   23       44.946614   0.000000
   24       46.392237   0.000000
   25       52.049477   0.000000
   26       53.719736   0.000000
   27       55.645797   0.000000
   28       57.305514   0.000000
   29       59.198338   0.000000
   30       60.630032   0.000000
   31       61.502966   0.000000
   32       62.742156   0.000000
   33       63.254845   0.000000
   34       65.765248   0.000000
   35       67.034612   0.000000
   36       67.321744   0.000000
   37       67.730323   0.000000
   38       70.309014   0.000000
   39       70.856286   0.000000
   40       71.858591   0.000000
 
  0.4545455E+00  0.9090909E-01  0.0000000E+00  0.4507889E-02
    1        3.174307   1.000000
    2        3.369628   1.000000
    3        3.462214   1.000000
    4        6.028369   1.000000
    5        6.272060   1.000000
    6        6.484597   1.000000
    7        6.726886   1.000000
    8        9.200818  -0.000000
    9        9.553430  -0.000000
   10        9.581875  -0.000000
   11       12.134445  -0.000000
   12       14.557058   0.000000
   13       20.194600   0.000000
   14       21.492585   0.000000
   15       23.319823   0.000000
   16       24.751128   0.000000
   17       26.608142   0.000000
   18       31.450103   0.000000
   19       36.060520   0.000000
   20       38.012658   0.000000
   21       41.225088   0.000000
   22       44.883084   0.000000
   23       45.320867   0.000000
   24       46.564321   0.000000
   25       49.857702   0.000000
   26       55.195051   0.000000
   27       55.856811   0.000000
   28       58.065668   0.000000
   29       60.626650   0.000000
   30       60.686677   0.000000
   31       63.217169   0.000000
   32       63.267235   0.000000
   33       63.611701   0.000000
   34       64.618102   0.000000
   35       67.209826   0.000000
   36       69.530138   0.000000
   37       69.588419   0.000000
   38       69.678862   0.000000
   39       69.903515   0.000000
   40       73.077318   0.000000
 
  0.1818182E+00  0.1818182E+00  0.0000000E+00  0.4507889E-02
    1        2.353361   1.000000
    2        4.131551   1.000000
    3        4.442129   1.000000
    4        4.660798   1.000000
    5        6.159386   1.000000
    6        6.243254   1.000000
    7        7.179760   1.000000
    8        7.250550   1.000000
    9        8.826572  -0.000496
   10        9.107915  -0.000000
   11        9.493767  -0.000000
   12       15.930080   0.000000
   13       17.491741   0.000000
   14       23.991141   0.000000
   15       24.962065   0.000000
   16       29.662846   0.000000
   17       31.460765   0.000000
   18       33.895142   0.000000
   19       34.638861   0.000000
   20       39.242183   0.000000
   21       41.086652   0.000000
   22       45.451866   0.000000
   23       45.803742   0.000000
   24       47.779751   0.000000
   25       48.656498   0.000000
   26       50.807322   0.000000
   27       52.100751   0.000000
   28       56.958862   0.000000
   29       58.116186   0.000000
   30       59.032022   0.000000
   31       59.293886   0.000000
   32       62.467260   0.000000
   33       62.521196   0.000000
   34       64.377874   0.000000
   35       65.072840   0.000000
   36       65.931763   0.000000
   37       66.161666   0.000000
   38       68.988561   0.000000
   39       69.544503   0.000000
   40       72.597468   0.000000
 
  0.2727273E+00  0.1818182E+00  0.0000000E+00  0.9015778E-02
    1        3.558058   1.000000
    2        3.762864   1.000000
    3        4.088891   1.000000
    4        4.953314   1.000000
    5        5.950375   1.000000
    6        6.485256   1.000000
    7        6.714000   1.000000
    8        7.917127   1.012023
    9        8.998170  -0.000003
   10        9.412116  -0.000000
   11       10.965906  -0.000000
   12       17.963685   0.000000
   13       18.250437   0.000000
   14       21.072734   0.000000
   15       23.202505   0.000000
   16       27.065837   0.000000
   17       29.699968   0.000000
   18       30.314471   0.000000
   19       33.296926   0.000000
   20       41.457040   0.000000
   21       41.623303   0.000000
   22       45.339344   0.000000
   23       47.389174   0.000000
   24       48.894715   0.000000
   25       49.946102   0.000000
   26       51.848529   0.000000
   27       53.339504   0.000000
   28       54.862980   0.000000
   29       57.992143   0.000000
   30       59.268860   0.000000
   31       61.198556   0.000000
   32       62.602897   0.000000
   33       63.550105   0.000000
   34       65.370869   0.000000
   35       67.024364   0.000000
   36       67.390550   0.000000
   37       69.061425   0.000000
   38       69.897816   0.000000
   39       71.435882   0.000000
   40       73.034214   0.000000
 
  0.3636364E+00  0.1818182E+00  0.0000000E+00  0.9015778E-02
    1        3.587226   1.000000
    2        3.758393   1.000000
    3        3.974574   1.000000
    4        5.563313   1.000000
    5        5.941480   1.000000
    6        6.260121   1.000000
    7        6.794446   1.000000
    8        8.742650  -0.003142
    9        8.936312  -0.000024
   10        9.425734  -0.000000
   11       12.727937  -0.000000
   12       16.070960   0.000000
   13       20.604605   0.000000
   14       21.350649   0.000000
   15       22.336129   0.000000
   16       24.375120   0.000000
   17       27.283062   0.000000
   18       28.996791   0.000000
   19       32.624499   0.000000
   20       41.607252   0.000000
   21       43.451289   0.000000
   22       45.598225   0.000000
   23       47.061462   0.000000
   24       48.152280   0.000000
   25       52.193139   0.000000
   26       52.452662   0.000000
   27       54.239983   0.000000
   28       54.995760   0.000000
   29       58.977559   0.000000
   30       59.843844   0.000000
   31       60.558624   0.000000
   32       62.987236   0.000000
   33       63.501167   0.000000
   34       63.889868   0.000000
   35       67.993637   0.000000
   36       68.958218   0.000000
   37       70.437012   0.000000
   38       70.956693   0.000000
   39       71.664531   0.000000
   40       72.045660   0.000000
 
  0.2727273E+00  0.2727273E+00  0.0000000E+00  0.4507889E-02
    1        3.738761   1.000000
    2        4.262952   1.000000
    3        4.622767   1.000000
    4        4.657284   1.000000
    5        5.770561   1.000000
    6        6.257774   1.000000
    7        6.841401   1.000000
    8        8.224573   0.762330
    9        8.799992  -0.000931
   10        9.385497  -0.000000
   11       12.888278  -0.000000
   12       18.296244   0.000000
   13       18.875337   0.000000
   14       20.649644   0.000000
   15       22.216763   0.000000
   16       26.290574   0.000000
   17       26.676767   0.000000
   18       29.054269   0.000000
   19       29.961701   0.000000
   20       43.131280   0.000000
   21       44.132583   0.000000
   22       48.106299   0.000000
   23       49.157658   0.000000
   24       49.529364   0.000000
   25       49.842953   0.000000
   26       50.290523   0.000000
   27       53.201114   0.000000
   28       55.725624   0.000000
   29       55.992139   0.000000
   30       59.443284   0.000000
   31       60.162198   0.000000
   32       62.890948   0.000000
   33       63.613734   0.000000
   34       63.792896   0.000000
   35       68.086765   0.000000
   36       69.092360   0.000000
   37       69.222290   0.000000
   38       70.617277   0.000000
   39       71.863945   0.000000
   40       73.279342   0.000000
 
  0.3636364E+00  0.2727273E+00  0.0000000E+00  0.4507889E-02
    1        3.762354   1.000000
    2        4.379683   1.000000
    3        4.489872   1.000000
    4        5.049959   1.000000
    5        5.852243   1.000000
    6        5.909868   1.000000
    7        7.008960   1.000000
    8        8.661602  -0.012364
    9        8.723622  -0.004503
   10        9.019847  -0.000002
   11       14.740648   0.000000
   12       16.256533   0.000000
   13       18.491191   0.000000
   14       22.743492   0.000000
   15       23.188764   0.000000
   16       24.213295   0.000000
   17       26.214388   0.000000
   18       27.339297   0.000000
   19       29.331114   0.000000
   20       43.500706   0.000000
   21       46.538781   0.000000
   22       47.813341   0.000000
   23       48.278541   0.000000
   24       49.108306   0.000000
   25       50.629927   0.000000
   26       51.573003   0.000000
   27       54.919705   0.000000
   28       55.086758   0.000000
   29       55.464681   0.000000
   30       58.872093   0.000000
   31       59.974453   0.000000
   32       60.654972   0.000000
   33       63.522888   0.000000
   34       63.524908   0.000000
   35       67.845632   0.000000
   36       69.271159   0.000000
   37       71.006890   0.000000
   38       71.523691   0.000000
   39       71.810035   0.000000
   40       72.184144   0.000000
 
  0.0000000E+00  0.0000000E+00  0.9090909E-01  0.1502630E-02
    1       -1.187491   1.000000
    2        2.596280   1.000000
    3        5.683094   1.000000
    4        6.419972   1.000000
    5        6.420018   1.000000
    6        6.782488   1.000000
    7        6.782534   1.000000
    8        7.279970   1.000000
    9        7.961418   1.021016
   10        7.961433   1.021020
   11        9.168930  -0.000000
   12        9.168946  -0.000000
   13       17.152383   0.000000
   14       32.100579   0.000000
   15       33.177564   0.000000
   16       35.830684   0.000000
   17       39.320175   0.000000
   18       39.320204   0.000000
   19       39.976787   0.000000
   20       39.976922   0.000000
   21       41.320805   0.000000
   22       42.378693   0.000000
   23       42.378705   0.000000
   24       43.786919   0.000000
   25       46.338179   0.000000
   26       46.338191   0.000000
   27       48.133565   0.000000
   28       51.491884   0.000000
   29       51.492165   0.000000
   30       53.419891   0.000000
   31       53.420034   0.000000
   32       55.736836   0.000000
   33       62.517456   0.000000
   34       64.288856   0.000000
   35       64.391095   0.000000
   36       64.391669   0.000000
   37       66.826327   0.000000
   38       66.826599   0.000000
   39       66.996406   0.000000
   40       69.115487   0.000000
 
  0.9090909E-01  0.4275639E-17  0.9090909E-01  0.9015778E-02
    1       -0.827297   1.000000
    2        2.875652   1.000000
    3        5.704591   1.000000
    4        6.324229   1.000000
    5        6.348145   1.000000
    6        6.642489   1.000000
    7        6.728428   1.000000
    8        6.988888   1.000000
    9        7.795691   1.001304
   10        7.836030   1.003021
   11        9.206305  -0.000000
   12       10.266187  -0.000000
   13       17.207388   0.000000
   14       31.610591   0.000000
   15       32.962689   0.000000
   16       34.561066   0.000000
   17       36.339581   0.000000
   18       37.512834   0.000000
   19       38.971948   0.000000
   20       40.969206   0.000000
   21       41.647155   0.000000
   22       43.211060   0.000000
   23       43.407204   0.000000
   24       44.056225   0.000000
   25       47.494383   0.000000
   26       47.863566   0.000000
   27       49.131597   0.000000
   28       49.325532   0.000000
   29       52.026525   0.000000
   30       54.834941   0.000000
   31       55.764365   0.000000
   32       57.498711   0.000000
   33       61.099183   0.000000
   34       63.392769   0.000000
   35       64.007856   0.000000
   36       64.280944   0.000000
   37       65.737404   0.000000
   38       67.510550   0.000000
   39       68.811734   0.000000
   40       69.149892   0.000000
 
  0.1818182E+00  0.4954155E-17  0.9090909E-01  0.9015778E-02
    1        0.179011   1.000000
    2        3.523882   1.000000
    3        5.210308   1.000000
    4        5.514603   1.000000
    5        6.118333   1.000000
    6        6.736075   1.000000
    7        7.222682   1.000000
    8        7.455700   1.000000
    9        7.501976   1.000000
   10        7.643032   1.000023
   11        9.265906  -0.000000
   12       12.085437  -0.000000
   13       17.410615   0.000000
   14       28.161463   0.000000
   15       32.616445   0.000000
   16       33.314937   0.000000
   17       33.965931   0.000000
   18       34.047316   0.000000
   19       38.795544   0.000000
   20       40.189121   0.000000
   21       40.663232   0.000000
   22       41.536116   0.000000
   23       44.625254   0.000000
   24       46.061143   0.000000
   25       48.550647   0.000000
   26       49.032541   0.000000
   27       50.335958   0.000000
   28       52.988166   0.000000
   29       55.115792   0.000000
   30       57.604917   0.000000
   31       58.489920   0.000000
   32       59.367782   0.000000
   33       60.315426   0.000000
   34       61.660932   0.000000
   35       62.815852   0.000000
   36       63.575024   0.000000
   37       65.847992   0.000000
   38       68.454170   0.000000
   39       69.258890   0.000000
   40       70.842953   0.000000
 
  0.2727273E+00  0.2290899E-17  0.9090909E-01  0.9015778E-02
    1        1.553271   1.000000
    2        3.782612   1.000000
    3        4.299875   1.000000
    4        5.465133   1.000000
    5        5.922173   1.000000
    6        6.825705   1.000000
    7        7.132996   1.000000
    8        7.756527   1.000526
    9        8.196485   0.852778
   10        8.390456   0.129602
   11        9.298833  -0.000000
   12       13.985844   0.000000
   13       17.892837   0.000000
   14       24.089464   0.000000
   15       29.435657   0.000000
   16       30.713329   0.000000
   17       32.007550   0.000000
   18       34.183577   0.000000
   19       37.342457   0.000000
   20       39.559654   0.000000
   21       39.680661   0.000000
   22       42.100293   0.000000
   23       42.804923   0.000000
   24       46.324198   0.000000
   25       51.928128   0.000000
   26       53.089059   0.000000
   27       53.811532   0.000000
   28       54.074342   0.000000
   29       57.892173   0.000000
   30       58.234977   0.000000
   31       59.751242   0.000000
   32       61.226310   0.000000
   33       61.241988   0.000000
   34       61.465160   0.000000
   35       63.454076   0.000000
   36       65.128953   0.000000
   37       66.357636   0.000000
   38       69.185982   0.000000
   39       69.199201   0.000000
   40       71.004075   0.000000
 
  0.3636364E+00 -0.1425014E-16  0.9090909E-01  0.9015778E-02
    1        2.627433   1.000000
    2        3.406451   1.000000
    3        3.791377   1.000000
    4        5.435170   1.000000
    5        6.443426   1.000000
    6        6.676787   1.000000
    7        6.853960   1.000000
    8        9.093330  -0.000000
    9        9.113078  -0.000000
   10        9.147426  -0.000000
   11        9.364188  -0.000000
   12       15.481588   0.000000
   13       18.441940   0.000000
   14       21.188507   0.000000
   15       26.109966   0.000000
   16       28.716400   0.000000
   17       29.346253   0.000000
   18       33.452994   0.000000
   19       36.344708   0.000000
   20       38.341899   0.000000
   21       40.602394   0.000000
   22       41.490676   0.000000
   23       43.516384   0.000000
   24       46.628203   0.000000
   25       52.058080   0.000000
   26       55.145982   0.000000
   27       56.056053   0.000000
   28       57.464529   0.000000
   29       58.402982   0.000000
   30       60.084349   0.000000
   31       61.038631   0.000000
   32       62.265594   0.000000
   33       62.610001   0.000000
   34       63.498200   0.000000
   35       64.397517   0.000000
   36       65.963545   0.000000
   37       68.568953   0.000000
   38       69.514128   0.000000
   39       70.401816   0.000000
   40       70.941624   0.000000
 
  0.4545455E+00  0.3696711E-16  0.9090909E-01  0.9015778E-02
    1        2.906514   1.000000
    2        3.058873   1.000000
    3        3.657298   1.000000
    4        5.513813   1.000000
    5        6.663795   1.000000
    6        6.695263   1.000000
    7        7.056863   1.000000
    8        9.256494  -0.000000
    9        9.664271  -0.000000
   10        9.793440  -0.000000
   11       10.953241  -0.000000
   12       14.625455   0.000000
   13       19.217378   0.000000
   14       21.058555   0.000000
   15       23.893196   0.000000
   16       26.597726   0.000000
   17       27.590882   0.000000
   18       32.824503   0.000000
   19       35.985709   0.000000
   20       37.462283   0.000000
   21       40.994879   0.000000