unknown system                          
   1.00000000000000     
     3.808352    0.000000    0.000000
     0.000000    3.808352    0.000000
     0.000000    0.000000    3.808352
   Cu
     4
Direct
  0.000000  0.000000  0.000000
  0.500000  0.500000  0.000000
  0.500000  0.000000  0.500000
  0.000000  0.500000  0.500000
 
   36   36   36
  975.92      926.93      793.64      610.66      418.99      252.68      131.74      60.642      29.805      20.124    
  14.780      11.260      9.1628      7.9647      7.2250      6.6988      6.3531      6.1986      6.1658      6.1986    
  6.3531      6.6988      7.2250      7.9647      9.1628      11.260      14.780      20.124      29.805      60.642    
  131.74      252.68      418.99      610.66      793.64      926.93      926.93      880.24      753.17      578.75    
  396.22      238.21      123.88      57.284      28.830      19.810      14.599      11.181      9.1439      7.9742    
  7.2472      6.7284      6.3867      6.2323      6.1986      6.2323      6.3867      6.7284      7.2472      7.9742    
  9.1439      11.181      14.599      19.810      28.830      57.284      123.88      238.21      396.22      578.75    
  753.17      880.24      793.64      753.17      643.03      492.01      334.51      199.28      103.03      48.612    
  26.390      18.913      14.098      10.974      9.1092      8.0262      7.3438      6.8559      6.5345      6.3867    
  6.3531      6.3867      6.5345      6.8559      7.3438      8.0262      9.1092      10.974      14.098      18.913    
  26.390      48.612      103.03      199.28      334.51      492.01      643.03      753.17      610.66      578.75    
  492.01      373.47      250.87      147.42      76.139      38.043      23.538      17.578      13.384      10.706    
  9.1045      8.1609      7.5592      7.1328      6.8559      6.7284      6.6988      6.7284      6.8559      7.1328    
  7.5592      8.1609      9.1045      10.706      13.384      17.578      23.538      38.043      76.139      147.42    
  250.87      373.47      492.01      578.75      418.99      396.22      334.51      250.87      165.85      96.383    
  51.162      29.101      20.917      16.016      12.604      10.458      9.1704      8.3986      7.9027      7.5592    
  7.3438      7.2472      7.2250      7.2472      7.3438      7.5592      7.9027      8.3986      9.1704      10.458    
  12.604      16.016      20.917      29.101      51.162      96.383      165.85      250.87      334.51      396.22    
  252.68      238.21      199.28      147.42      96.383      56.986      33.630      23.395      18.298      14.466    
  11.897      10.303      9.3444      8.7650      8.3986      8.1609      8.0262      7.9742      7.9647      7.9742    
  8.0262      8.1609      8.3986      8.7650      9.3444      10.303      11.897      14.466      18.298      23.395    
  33.630      56.986      96.383      147.42      199.28      238.21      131.74      123.88      103.03      76.139    
  51.162      33.630      24.413      19.628      15.856      13.133      11.371      10.306      9.6875      9.3444    
  9.1704      9.1045      9.1092      9.1439      9.1628      9.1439      9.1092      9.1045      9.1704      9.3444    
  9.6875      10.306      11.371      13.133      15.856      19.628      24.413      33.630      51.162      76.139    
  103.03      123.88      60.642      57.284      48.612      38.043      29.101      23.395      19.628      16.375    
  13.860      12.145      11.100      10.538      10.306      10.303      10.458      10.706      10.974      11.181    
  11.260      11.181      10.974      10.706      10.458      10.303      10.306      10.538      11.100      12.145    
  13.860      16.375      19.628      23.395      29.101      38.043      48.612      57.284      29.805      28.830    
  26.390      23.538      20.917      18.298      15.856      13.860      12.430      11.552      11.139      11.100    
  11.371      11.897      12.604      13.384      14.098      14.599      14.780      14.599      14.098      13.384    
  12.604      11.897      11.371      11.100      11.139      11.552      12.430      13.860      15.856      18.298    
  20.917      23.538      26.390      28.830      20.124      19.810      18.913      17.578      16.016      14.466    
  13.133      12.145      11.552      11.356      11.552      12.145      13.133      14.466      16.016      17.578    
  18.913      19.810      20.124      19.810      18.913      17.578      16.016      14.466      13.133      12.145    
  11.552      11.356      11.552      12.145      13.133      14.466      16.016      17.578      18.913      19.810    
  14.780      14.599      14.098      13.384      12.604      11.897      11.371      11.100      11.139      11.552    
  12.430      13.860      15.856      18.298      20.917      23.538      26.390      28.830      29.805      28.830    
  26.390      23.538      20.917      18.298      15.856      13.860      12.430      11.552      11.139      11.100    
  11.371      11.897      12.604      13.384      14.098      14.599      11.260      11.181      10.974      10.706    
  10.458      10.303      10.306      10.538      11.100      12.145      13.860      16.375      19.628      23.395    
  29.101      38.043      48.612      57.284      60.642      57.284      48.612      38.043      29.101      23.395    
  19.628      16.375      13.860      12.145      11.100      10.538      10.306      10.303      10.458      10.706    
  10.974      11.181      9.1628      9.1439      9.1092      9.1045      9.1704      9.3444      9.6875      10.306    
  11.371      13.133      15.856      19.628      24.413      33.630      51.162      76.139      103.03      123.88    
  131.74      123.88      103.03      76.139      51.162      33.630      24.413      19.628      15.856      13.133    
  11.371      10.306      9.6875      9.3444      9.1704      9.1045      9.1092      9.1439      7.9647      7.9742    
  8.0262      8.1609      8.3986      8.7650      9.3444      10.303      11.897      14.466      18.298      23.395    
  33.630      56.986      96.383      147.42      199.28      238.21      252.68      238.21      199.28      147.42    
  96.383      56.986      33.630      23.395      18.298      14.466      11.897      10.303      9.3444      8.7650    
  8.3986      8.1609      8.0262      7.9742      7.2250      7.2472      7.3438      7.5592      7.9027      8.3986    
  9.1704      10.458      12.604      16.016      20.917      29.101      51.162      96.383      165.85      250.87    
  334.51      396.22      418.99      396.22      334.51      250.87      165.85      96.383      51.162      29.101    
  20.917      16.016      12.604      10.458      9.1704      8.3986      7.9027      7.5592      7.3438      7.2472    
  6.6988      6.7284      6.8559      7.1328      7.5592      8.1609      9.1045      10.706      13.384      17.578    
  23.538      38.043      76.139      147.42      250.87      373.47      492.01      578.75      610.66      578.75    
  492.01      373.47      250.87      147.42      76.139      38.043      23.538      17.578      13.384      10.706    
  9.1045      8.1609      7.5592      7.1328      6.8559      6.7284      6.3531      6.3867      6.5345      6.8559    
  7.3438      8.0262      9.1092      10.974      14.098      18.913      26.390      48.612      103.03      199.28    
  334.51      492.01      643.03      753.17      793.64      753.17      643.03      492.01      334.51      199.28    
  103.03      48.612      26.390      18.913      14.098      10.974      9.1092      8.0262      7.3438      6.8559    
  6.5345      6.3867      6.1986      6.2323      6.3867      6.7284      7.2472      7.9742      9.1439      11.181    
  14.599      19.810      28.830      57.284      123.88      238.21      396.22      578.75      753.17      880.24    
  926.93      880.24      753.17      578.75      396.22      238.21      123.88      57.284      28.830      19.810    
  14.599      11.181      9.1439      7.9742      7.2472      6.7284      6.3867      6.2323      6.1658      6.1986    
  6.3531      6.6988      7.2250      7.9647      9.1628      11.260      14.780      20.124      29.805      60.642    
  131.74      252.68      418.99      610.66      793.64      926.93      975.92      926.93      793.64      610.66    
  418.99      252.68      131.74      60.642      29.805      20.124      14.780      11.260      9.1628      7.9647    
  7.2250      6.6988      6.3531      6.1986      6.1986      6.2323      6.3867      6.7284      7.2472      7.9742    
  9.1439      11.181      14.599      19.810      28.830      57.284      123.88      238.21      396.22      578.75    
  753.17      880.24      926.93      880.24      753.17      578.75      396.22      238.21      123.88      57.284    
  28.830      19.810      14.599      11.181      9.1439      7.9742      7.2472      6.7284      6.3867      6.2323    
  6.3531      6.3867      6.5345      6.8559      7.3438      8.0262      9.1092      10.974      14.098      18.913    
  26.390      48.612      103.03      199.28      334.51      492.01      643.03      753.17      793.64      753.17    
  643.03      492.01      334.51      199.28      103.03      48.612      26.390      18.913      14.098      10.974    
  9.1092      8.0262      7.3438      6.8559      6.5345      6.3867      6.6988      6.7284      6.8559      7.1328    
  7.5592      8.1609      9.1045      10.706      13.384      17.578      23.538      38.043      76.139      147.42    
  250.87      373.47      492.01      578.75      610.66      578.75      492.01      373.47      250.87      147.42    
  76.139      38.043      23.538      17.578      13.384      10.706      9.1045      8.1609      7.5592      7.1328    
  6.8559      6.7284      7.2250      7.2472      7.3438      7.5592      7.9027      8.3986      9.1704      10.458    
  12.604      16.016      20.917      29.101      51.162      96.383      165.85      250.87      334.51      396.22    
  418.99      396.22      334.51      250.87      165.85      96.383      51.162      29.101      20.917      16.016    
  12.604      10.458      9.1704      8.3986      7.9027      7.5592      7.3438      7.2472      7.9647      7.9742    
  8.0262      8.1609      8.3986      8.7650      9.3444      10.303      11.897      14.466      18.298      23.395    
  33.630      56.986      96.383      147.42      199.28      238.21      252.68      238.21      199.28      147.42    
  96.383      56.986      33.630      23.395      18.298      14.466      11.897      10.303      9.3444      8.7650    
  8.3986      8.1609      8.0262      7.9742      9.1628      9.1439      9.1092      9.1045      9.1704      9.3444    
  9.6875      10.306      11.371      13.133      15.856      19.628      24.413      33.630      51.162      76.139    
  103.03      123.88      131.74      123.88      103.03      76.139      51.162      33.630      24.413      19.628    
  15.856      13.133      11.371      10.306      9.6875      9.3444      9.1704      9.1045      9.1092      9.1439    
  11.260      11.181      10.974      10.706      10.458      10.303      10.306      10.538      11.100      12.145    
  13.860      16.375      19.628      23.395      29.101      38.043      48.612      57.284      60.642      57.284    
  48.612      38.043      29.101      23.395      19.628      16.375      13.860      12.145      11.100      10.538    
  10.306      10.303      10.458      10.706      10.974      11.181      14.780      14.599      14.098      13.384    
  12.604      11.897      11.371      11.100      11.139      11.552      12.430      13.860      15.856      18.298    
  20.917      23.538      26.390      28.830      29.805      28.830      26.390      23.538      20.917      18.298    
  15.856      13.860      12.430      11.552      11.139      11.100      11.371      11.897      12.604      13.384    
  14.098      14.599      20.124      19.810      18.913      17.578      16.016      14.466      13.133      12.145    
  11.552      11.356      11.552      12.145      13.133      14.466      16.016      17.578      18.913      19.810    
  20.124      19.810      18.913      17.578      16.016      14.466      13.133      12.145      11.552      11.356    
  11.552      12.145      13.133      14.466      16.016      17.578      18.913      19.810      29.805      28.830    
  26.390      23.538      20.917      18.298      15.856      13.860      12.430      11.552      11.139      11.100    
  11.371      11.897      12.604      13.384      14.098      14.599      14.780      14.599      14.098      13.384    
  12.604      11.897      11.371      11.100      11.139      11.552      12.430      13.860      15.856      18.298    
  20.917      23.538      26.390      28.830      60.642      57.284      48.612      38.043      29.101      23.395    
  19.628      16.375      13.860      12.145      11.100      10.538      10.306      10.303      10.458      10.706    
  10.974      11.181      11.260      11.181      10.974      10.706      10.458      10.303      10.306      10.538    
  11.100      12.145      13.860      16.375      19.628      23.395      29.101      38.043      48.612      57.284    
  131.74      123.88      103.03      76.139      51.162      33.630      24.413      19.628      15.856      13.133    
  11.371      10.306      9.6875      9.3444      9.1704      9.1045      9.1092      9.1439      9.1628      9.1439    
  9.1092      9.1045      9.1704      9.3444      9.6875      10.306      11.371      13.133      15.856      19.628    
  24.413      33.630      51.162      76.139      103.03      123.88      252.68      238.21      199.28      147.42    
  96.383      56.986      33.630      23.395      18.298      14.466      11.897      10.303      9.3444      8.7650    
  8.3986      8.1609      8.0262      7.9742      7.9647      7.9742      8.0262      8.1609      8.3986      8.7650    
  9.3444      10.303      11.897      14.466      18.298      23.395      33.630      56.986      96.383      147.42    
  199.28      238.21      418.99      396.22      334.51      250.87      165.85      96.383      51.162      29.101    
  20.917      16.016      12.604      10.458      9.1704      8.3986      7.9027      7.5592      7.3438      7.2472    
  7.2250      7.2472      7.3438      7.5592      7.9027      8.3986      9.1704      10.458      12.604      16.016    
  20.917      29.101      51.162      96.383      165.85      250.87      334.51      396.22      610.66      578.75    
  492.01      373.47      250.87      147.42      76.139      38.043      23.538      17.578      13.384      10.706    
  9.1045      8.1609      7.5592      7.1328      6.8559      6.7284      6.6988      6.7284      6.8559      7.1328    
  7.5592      8.1609      9.1045      10.706      13.384      17.578      23.538      38.043      76.139      147.42    
  250.87      373.47      492.01      578.75      793.64      753.17      643.03      492.01      334.51      199.28    
  103.03      48.612      26.390      18.913      14.098      10.974      9.1092      8.0262      7.3438      6.8559    
  6.5345      6.3867      6.3531      6.3867      6.5345      6.8559      7.3438      8.0262      9.1092      10.974    
  14.098      18.913      26.390      48.612      103.03      199.28      334.51      492.01      643.03      753.17    
  926.93      880.24      753.17      578.75      396.22      238.21      123.88      57.284      28.830      19.810    
  14.599      11.181      9.1439      7.9742      7.2472      6.7284      6.3867      6.2323      6.1986      6.2323    
  6.3867      6.7284      7.2472      7.9742      9.1439      11.181      14.599      19.810      28.830      57.284    
  123.88      238.21      396.22      578.75      753.17      880.24      926.93      880.24      753.17      578.75    
  396.22      238.21      123.88      57.284      28.830      19.810      14.599      11.181      9.1439      7.9742    
  7.2472      6.7284      6.3867      6.2323      6.1986      6.2323      6.3867      6.7284      7.2472      7.9742    
  9.1439      11.181      14.599      19.810      28.830      57.284      123.88      238.21      396.22      578.75    
  753.17      880.24      880.24      835.72      714.58      548.35      374.56      224.50      116.48      54.168    
  27.939      19.501      14.423      11.105      9.1252      7.9833      7.2690      6.7580      6.4207      6.2667    
  6.2323      6.2667      6.4207      6.7580      7.2690      7.9833      9.1252      11.105      14.423      19.501    
  27.939      54.168      116.48      224.50      374.56      548.35      714.58      835.72      753.17      714.58    
  609.62      465.75      315.91      187.66      96.910      46.136      25.710      18.623      13.934      10.902    
  9.0904      8.0333      7.3635      6.8838      6.5674      6.4207      6.3867      6.4207      6.5674      6.8838    
  7.3635      8.0333      9.0904      10.902      13.934      18.623      25.710      46.136      96.910      187.66    
  315.91      465.75      609.62      714.58      578.75      548.35      465.75      352.97      236.55      138.69    
  71.746      36.395      23.083      17.317      13.240      10.640      9.0845      8.1635      7.5737      7.1554    
  6.8838      6.7580      6.7284      6.7580      6.8838      7.1554      7.5737      8.1635      9.0845      10.640    
  13.240      17.317      23.083      36.395      71.746      138.69      236.55      352.97      465.75      548.35    
  396.22      374.56      315.91      236.55      156.09      90.701      48.514      28.205      20.576      15.795    
  12.481      10.399      9.1478      8.3949      7.9095      7.5737      7.3635      7.2690      7.2472      7.2690    
  7.3635      7.5737      7.9095      8.3949      9.1478      10.399      12.481      15.795      20.576      28.205    
  48.514      90.701      156.09      236.55      315.91      374.56      238.21      224.50      187.66      138.69    
  90.701      53.920      32.358      22.958      18.016      14.288      11.795      10.249      9.3175      8.7525    
  8.3949      8.1635      8.0333      7.9833      7.9742      7.9833      8.0333      8.1635      8.3949      8.7525    
  9.3175      10.249      11.795      14.288      18.016      22.958      32.358      53.920      90.701      138.69    
  187.66      224.50      123.88      116.48      96.910      71.746      48.514      32.358      23.911      19.313    
  15.639      12.996      11.288      10.254      9.6522      9.3175      9.1478      9.0845      9.0904      9.1252    
  9.1439      9.1252      9.0904      9.0845      9.1478      9.3175      9.6522      10.254      11.288      12.996    
  15.639      19.313      23.911      32.358      48.514      71.746      96.910      116.48      57.284      54.168    
  46.136      36.395      28.205      22.958      19.313      16.143      13.701      12.040      11.027      10.481    
  10.254      10.249      10.399      10.640      10.902      11.105      11.181      11.105      10.902      10.640    
  10.399      10.249      10.254      10.481      11.027      12.040      13.701      16.143      19.313      22.958    
  28.205      36.395      46.136      54.168      28.830      27.939      25.710      23.083      20.576      18.016    
  15.639      13.701      12.317      11.467      11.066      11.027      11.288      11.795      12.481      13.240    
  13.934      14.423      14.599      14.423      13.934      13.240      12.481      11.795      11.288      11.027    
  11.066      11.467      12.317      13.701      15.639      18.016      20.576      23.083      25.710      27.939    
  19.810      19.501      18.623      17.317      15.795      14.288      12.996      12.040      11.467      11.278    
  11.467      12.040      12.996      14.288      15.795      17.317      18.623      19.501      19.810      19.501    
  18.623      17.317      15.795      14.288      12.996      12.040      11.467      11.278      11.467      12.040    
  12.996      14.288      15.795      17.317      18.623      19.501      14.599      14.423      13.934      13.240    
  12.481      11.795      11.288      11.027      11.066      11.467      12.317      13.701      15.639      18.016    
  20.576      23.083      25.710      27.939      28.830      27.939      25.710      23.083      20.576      18.016    
  15.639      13.701      12.317      11.467      11.066      11.027      11.288      11.795      12.481      13.240    
  13.934      14.423      11.181      11.105      10.902      10.640      10.399      10.249      10.254      10.481    
  11.027      12.040      13.701      16.143      19.313      22.958      28.205      36.395      46.136      54.168    
  57.284      54.168      46.136      36.395      28.205      22.958      19.313      16.143      13.701      12.040    
  11.027      10.481      10.254      10.249      10.399      10.640      10.902      11.105      9.1439      9.1252    
  9.0904      9.0845      9.1478      9.3175      9.6522      10.254      11.288      12.996      15.639      19.313    
  23.911      32.358      48.514      71.746      96.910      116.48      123.88      116.48      96.910      71.746    
  48.514      32.358      23.911      19.313      15.639      12.996      11.288      10.254      9.6522      9.3175    
  9.1478      9.0845      9.0904      9.1252      7.9742      7.9833      8.0333      8.1635      8.3949      8.7525    
  9.3175      10.249      11.795      14.288      18.016      22.958      32.358      53.920      90.701      138.69    
  187.66      224.50      238.21      224.50      187.66      138.69      90.701      53.920      32.358      22.958    
  18.016      14.288      11.795      10.249      9.3175      8.7525      8.3949      8.1635      8.0333      7.9833    
  7.2472      7.2690      7.3635      7.5737      7.9095      8.3949      9.1478      10.399      12.481      15.795    
  20.576      28.205      48.514      90.701      156.09      236.55      315.91      374.56      396.22      374.56    
  315.91      236.55      156.09      90.701      48.514      28.205      20.576      15.795      12.481      10.399    
  9.1478      8.3949      7.9095      7.5737      7.3635      7.2690      6.7284      6.7580      6.8838      7.1554    
  7.5737      8.1635      9.0845      10.640      13.240      17.317      23.083      36.395      71.746      138.69    
  236.55      352.97      465.75      548.35      578.75      548.35      465.75      352.97      236.55      138.69    
  71.746      36.395      23.083      17.317      13.240      10.640      9.0845      8.1635      7.5737      7.1554    
  6.8838      6.7580      6.3867      6.4207      6.5674      6.8838      7.3635      8.0333      9.0904      10.902    
  13.934      18.623      25.710      46.136      96.910      187.66      315.91      465.75      609.62      714.58    
  753.17      714.58      609.62      465.75      315.91      187.66      96.910      46.136      25.710      18.623    
  13.934      10.902      9.0904      8.0333      7.3635      6.8838      6.5674      6.4207      6.2323      6.2667    
  6.4207      6.7580      7.2690      7.9833      9.1252      11.105      14.423      19.501      27.939      54.168    
  116.48      224.50      374.56      548.35      714.58      835.72      880.24      835.72      714.58      548.35    
  374.56      224.50      116.48      54.168      27.939      19.501      14.423      11.105      9.1252      7.9833    
  7.2690      6.7580      6.4207      6.2667      6.1986      6.2323      6.3867      6.7284      7.2472      7.9742    
  9.1439      11.181      14.599      19.810      28.830      57.284      123.88      238.21      396.22      578.75    
  753.17      880.24      926.93      880.24      753.17      578.75      396.22      238.21      123.88      57.284    
  28.830      19.810      14.599      11.181      9.1439      7.9742      7.2472      6.7284      6.3867      6.2323    
  6.2323      6.2667      6.4207      6.7580      7.2690      7.9833      9.1252      11.105      14.423      19.501    
  27.939      54.168      116.48      224.50      374.56      548.35      714.58      835.72      880.24      835.72    
  714.58      548.35      374.56      224.50      116.48      54.168      27.939      19.501      14.423      11.105    
  9.1252      7.9833      7.2690      6.7580      6.4207      6.2667      6.3867      6.4207      6.5674      6.8838    
  7.3635      8.0333      9.0904      10.902      13.934      18.623      25.710      46.136      96.910      187.66    
  315.91      465.75      609.62      714.58      753.17      714.58      609.62      465.75      315.91      187.66    
  96.910      46.136      25.710      18.623      13.934      10.902      9.0904      8.0333      7.3635      6.8838    
  6.5674      6.4207      6.7284      6.7580      6.8838      7.1554      7.5737      8.1635      9.0845      10.640    
  13.240      17.317      23.083      36.395      71.746      138.69      236.55      352.97      465.75      548.35    
  578.75      548.35      465.75      352.97      236.55      138.69      71.746      36.395      23.083      17.317    
  13.240      10.640      9.0845      8.1635      7.5737      7.1554      6.8838      6.7580      7.2472      7.2690    
  7.3635      7.5737      7.9095      8.3949      9.1478      10.399      12.481      15.795      20.576      28.205    
  48.514      90.701      156.09      236.55      315.91      374.56      396.22      374.56      315.91      236.55    
  156.09      90.701      48.514      28.205      20.576      15.795      12.481      10.399      9.1478      8.3949    
  7.9095      7.5737      7.3635      7.2690      7.9742      7.9833      8.0333      8.1635      8.3949      8.7525    
  9.3175      10.249      11.795      14.288      18.016      22.958      32.358      53.920      90.701      138.69    
  187.66      224.50      238.21      224.50      187.66      138.69      90.701      53.920      32.358      22.958    
  18.016      14.288      11.795      10.249      9.3175      8.7525      8.3949      8.1635      8.0333      7.9833    
  9.1439      9.1252      9.0904      9.0845      9.1478      9.3175      9.6522      10.254      11.288      12.996    
  15.639      19.313      23.911      32.358      48.514      71.746      96.910      116.48      123.88      116.48    
  96.910      71.746      48.514      32.358      23.911      19.313      15.639      12.996      11.288      10.254    
  9.6522      9.3175      9.1478      9.0845      9.0904      9.1252      11.181      11.105      10.902      10.640    
  10.399      10.249      10.254      10.481      11.027      12.040      13.701      16.143      19.313      22.958    
  28.205      36.395      46.136      54.168      57.284      54.168      46.136      36.395      28.205      22.958    
  19.313      16.143      13.701      12.040      11.027      10.481      10.254      10.249      10.399      10.640    
  10.902      11.105      14.599      14.423      13.934      13.240      12.481      11.795      11.288      11.027    
  11.066      11.467      12.317      13.701      15.639      18.016      20.576      23.083      25.710      27.939    
  28.830      27.939      25.710      23.083      20.576      18.016      15.639      13.701      12.317      11.467    
  11.066      11.027      11.288      11.795      12.481      13.240      13.934      14.423      19.810      19.501    
  18.623      17.317      15.795      14.288      12.996      12.040      11.467      11.278      11.467      12.040    
  12.996      14.288      15.795      17.317      18.623      19.501      19.810      19.501      18.623      17.317    
  15.795      14.288      12.996      12.040      11.467      11.278      11.467      12.040      12.996      14.288    
  15.795      17.317      18.623      19.501      28.830      27.939      25.710      23.083      20.576      18.016    
  15.639      13.701      12.317      11.467      11.066      11.027      11.288      11.795      12.481      13.240    
  13.934      14.423      14.599      14.423      13.934      13.240      12.481      11.795      11.288      11.027    
  11.066      11.467      12.317      13.701      15.639      18.016      20.576      23.083      25.710      27.939    
  57.284      54.168      46.136      36.395      28.205      22.958      19.313      16.143      13.701      12.040    
  11.027      10.481      10.254      10.249      10.399      10.640      10.902      11.105      11.181      11.105    
  10.902      10.640      10.399      10.249      10.254      10.481      11.027      12.040      13.701      16.143    
  19.313      22.958      28.205      36.395      46.136      54.168      123.88      116.48      96.910      71.746    
  48.514      32.358      23.911      19.313      15.639      12.996      11.288      10.254      9.6522      9.3175    
  9.1478      9.0845      9.0904      9.1252      9.1439      9.1252      9.0904      9.0845      9.1478      9.3175    
  9.6522      10.254      11.288      12.996      15.639      19.313      23.911      32.358      48.514      71.746    
  96.910      116.48      238.21      224.50      187.66      138.69      90.701      53.920      32.358      22.958    
  18.016      14.288      11.795      10.249      9.3175      8.7525      8.3949      8.1635      8.0333      7.9833    
  7.9742      7.9833      8.0333      8.1635      8.3949      8.7525      9.3175      10.249      11.795      14.288    
  18.016      22.958      32.358      53.920      90.701      138.69      187.66      224.50      396.22      374.56    