unknown system                          
   1.00000000000000     
     3.808352    0.000000    0.000000
     0.000000    3.808352    0.000000
     0.000000    0.000000    3.808352
   Cu
     4
Direct
  0.000000  0.000000  0.000000
  0.500000  0.500000  0.000000
  0.500000  0.000000  0.500000
  0.000000  0.500000  0.500000
 
   36   36   36
 0.97592068093E+03 0.92693417603E+03 0.79364422517E+03 0.61065725423E+03 0.41899475335E+03
 0.25268220329E+03 0.13174093132E+03 0.60642159186E+02 0.29804937818E+02 0.20124493808E+02
 0.14780223851E+02 0.11260031384E+02 0.91627721764E+01 0.79647441378E+01 0.72250242114E+01
 0.66987969555E+01 0.63530605283E+01 0.61986277875E+01 0.61657577919E+01 0.61986277875E+01
 0.63530605283E+01 0.66987969555E+01 0.72250242114E+01 0.79647441378E+01 0.91627721764E+01
 0.11260031384E+02 0.14780223851E+02 0.20124493808E+02 0.29804937818E+02 0.60642159186E+02
 0.13174093132E+03 0.25268220329E+03 0.41899475335E+03 0.61065725423E+03 0.79364422517E+03
 0.92693417603E+03 0.92693417603E+03 0.88023563583E+03 0.75316555597E+03 0.57874545905E+03
 0.39621650297E+03 0.23820749440E+03 0.12387788585E+03 0.57284297276E+02 0.28829514933E+02
 0.19809532847E+02 0.14599408498E+02 0.11181428579E+02 0.91439224199E+01 0.79742212499E+01
 0.72471657851E+01 0.67284364853E+01 0.63867255838E+01 0.62323334958E+01 0.61986277875E+01
 0.62323334958E+01 0.63867255838E+01 0.67284364853E+01 0.72471657851E+01 0.79742212499E+01
 0.91439224199E+01 0.11181428579E+02 0.14599408498E+02 0.19809532847E+02 0.28829514933E+02
 0.57284297276E+02 0.12387788585E+03 0.23820749440E+03 0.39621650297E+03 0.57874545905E+03
 0.75316555597E+03 0.88023563583E+03 0.79364422517E+03 0.75316555597E+03 0.64303309689E+03
 0.49201150292E+03 0.33450778207E+03 0.19928054367E+03 0.10303156611E+03 0.48611595089E+02
 0.26390420690E+02 0.18913369464E+02 0.14097700117E+02 0.10973593059E+02 0.91092244296E+01
 0.80261961615E+01 0.73437509170E+01 0.68558980748E+01 0.65345136877E+01 0.63867255838E+01
 0.63530605283E+01 0.63867255838E+01 0.65345136877E+01 0.68558980748E+01 0.73437509170E+01
 0.80261961615E+01 0.91092244296E+01 0.10973593059E+02 0.14097700117E+02 0.18913369464E+02
 0.26390420690E+02 0.48611595089E+02 0.10303156611E+03 0.19928054367E+03 0.33450778207E+03
 0.49201150292E+03 0.64303309689E+03 0.75316555597E+03 0.61065725423E+03 0.57874545905E+03
 0.49201150292E+03 0.37347459295E+03 0.25087268783E+03 0.14742136269E+03 0.76139333090E+02
 0.38042869705E+02 0.23538287191E+02 0.17577601533E+02 0.13384335450E+02 0.10705582023E+02
 0.91045211059E+01 0.81608719562E+01 0.75591795545E+01 0.71327997794E+01 0.68558980748E+01
 0.67284364853E+01 0.66987969555E+01 0.67284364853E+01 0.68558980748E+01 0.71327997794E+01
 0.75591795545E+01 0.81608719562E+01 0.91045211059E+01 0.10705582023E+02 0.13384335450E+02
 0.17577601533E+02 0.23538287191E+02 0.38042869705E+02 0.76139333090E+02 0.14742136269E+03
 0.25087268783E+03 0.37347459295E+03 0.49201150292E+03 0.57874545905E+03 0.41899475335E+03
 0.39621650297E+03 0.33450778207E+03 0.25087268783E+03 0.16584766487E+03 0.96382758463E+02
 0.51161881227E+02 0.29100529746E+02 0.20916512353E+02 0.16015541550E+02 0.12603769902E+02
 0.10457807367E+02 0.91703597938E+01 0.83986262963E+01 0.79026852099E+01 0.75591795545E+01
 0.73437509170E+01 0.72471657851E+01 0.72250242114E+01 0.72471657851E+01 0.73437509170E+01
 0.75591795545E+01 0.79026852099E+01 0.83986262963E+01 0.91703597938E+01 0.10457807367E+02
 0.12603769902E+02 0.16015541550E+02 0.20916512353E+02 0.29100529746E+02 0.51161881227E+02
 0.96382758463E+02 0.16584766487E+03 0.25087268783E+03 0.33450778207E+03 0.39621650297E+03
 0.25268220329E+03 0.23820749440E+03 0.19928054367E+03 0.14742136269E+03 0.96382758463E+02
 0.56985521039E+02 0.33629901952E+02 0.23394553026E+02 0.18298400519E+02 0.14465865751E+02
 0.11896558914E+02 0.10302929570E+02 0.93443531442E+01 0.87649794042E+01 0.83986262963E+01
 0.81608719562E+01 0.80261961615E+01 0.79742212499E+01 0.79647441378E+01 0.79742212499E+01
 0.80261961615E+01 0.81608719562E+01 0.83986262963E+01 0.87649794042E+01 0.93443531442E+01
 0.10302929570E+02 0.11896558914E+02 0.14465865751E+02 0.18298400519E+02 0.23394553026E+02
 0.33629901952E+02 0.56985521039E+02 0.96382758463E+02 0.14742136269E+03 0.19928054367E+03
 0.23820749440E+03 0.13174093132E+03 0.12387788585E+03 0.10303156611E+03 0.76139333090E+02
 0.51161881227E+02 0.33629901952E+02 0.24412890480E+02 0.19627899552E+02 0.15856105926E+02
 0.13133088085E+02 0.11371411377E+02 0.10305988735E+02 0.96874574192E+01 0.93443531442E+01
 0.91703597938E+01 0.91045211059E+01 0.91092244296E+01 0.91439224199E+01 0.91627721764E+01
 0.91439224199E+01 0.91092244296E+01 0.91045211059E+01 0.91703597938E+01 0.93443531442E+01
 0.96874574192E+01 0.10305988735E+02 0.11371411377E+02 0.13133088085E+02 0.15856105926E+02
 0.19627899552E+02 0.24412890480E+02 0.33629901952E+02 0.51161881227E+02 0.76139333090E+02
 0.10303156611E+03 0.12387788585E+03 0.60642159186E+02 0.57284297276E+02 0.48611595089E+02
 0.38042869705E+02 0.29100529746E+02 0.23394553026E+02 0.19627899552E+02 0.16374551647E+02
 0.13859724709E+02 0.12145292575E+02 0.11100479914E+02 0.10538194476E+02 0.10305988735E+02
 0.10302929570E+02 0.10457807367E+02 0.10705582023E+02 0.10973593059E+02 0.11181428579E+02
 0.11260031384E+02 0.11181428579E+02 0.10973593059E+02 0.10705582023E+02 0.10457807367E+02
 0.10302929570E+02 0.10305988735E+02 0.10538194476E+02 0.11100479914E+02 0.12145292575E+02
 0.13859724709E+02 0.16374551647E+02 0.19627899552E+02 0.23394553026E+02 0.29100529746E+02
 0.38042869705E+02 0.48611595089E+02 0.57284297276E+02 0.29804937818E+02 0.28829514933E+02
 0.26390420690E+02 0.23538287191E+02 0.20916512353E+02 0.18298400519E+02 0.15856105926E+02
 0.13859724709E+02 0.12430229430E+02 0.11551822595E+02 0.11138547825E+02 0.11100479914E+02
 0.11371411377E+02 0.11896558914E+02 0.12603769902E+02 0.13384335450E+02 0.14097700117E+02
 0.14599408498E+02 0.14780223851E+02 0.14599408498E+02 0.14097700117E+02 0.13384335450E+02
 0.12603769902E+02 0.11896558914E+02 0.11371411377E+02 0.11100479914E+02 0.11138547825E+02
 0.11551822595E+02 0.12430229430E+02 0.13859724709E+02 0.15856105926E+02 0.18298400519E+02
 0.20916512353E+02 0.23538287191E+02 0.26390420690E+02 0.28829514933E+02 0.20124493808E+02
 0.19809532847E+02 0.18913369464E+02 0.17577601533E+02 0.16015541550E+02 0.14465865751E+02
 0.13133088085E+02 0.12145292575E+02 0.11551822595E+02 0.11355551781E+02 0.11551822595E+02
 0.12145292575E+02 0.13133088085E+02 0.14465865751E+02 0.16015541550E+02 0.17577601533E+02
 0.18913369464E+02 0.19809532847E+02 0.20124493808E+02 0.19809532847E+02 0.18913369464E+02
 0.17577601533E+02 0.16015541550E+02 0.14465865751E+02 0.13133088085E+02 0.12145292575E+02
 0.11551822595E+02 0.11355551781E+02 0.11551822595E+02 0.12145292575E+02 0.13133088085E+02
 0.14465865751E+02 0.16015541550E+02 0.17577601533E+02 0.18913369464E+02 0.19809532847E+02
 0.14780223851E+02 0.14599408498E+02 0.14097700117E+02 0.13384335450E+02 0.12603769902E+02
 0.11896558914E+02 0.11371411377E+02 0.11100479914E+02 0.11138547825E+02 0.11551822595E+02
 0.12430229430E+02 0.13859724709E+02 0.15856105926E+02 0.18298400519E+02 0.20916512353E+02
 0.23538287191E+02 0.26390420690E+02 0.28829514933E+02 0.29804937818E+02 0.28829514933E+02
 0.26390420690E+02 0.23538287191E+02 0.20916512353E+02 0.18298400519E+02 0.15856105926E+02
 0.13859724709E+02 0.12430229430E+02 0.11551822595E+02 0.11138547825E+02 0.11100479914E+02
 0.11371411377E+02 0.11896558914E+02 0.12603769902E+02 0.13384335450E+02 0.14097700117E+02
 0.14599408498E+02 0.11260031384E+02 0.11181428579E+02 0.10973593059E+02 0.10705582023E+02
 0.10457807367E+02 0.10302929570E+02 0.10305988735E+02 0.10538194476E+02 0.11100479914E+02
 0.12145292575E+02 0.13859724709E+02 0.16374551647E+02 0.19627899552E+02 0.23394553026E+02
 0.29100529746E+02 0.38042869705E+02 0.48611595089E+02 0.57284297276E+02 0.60642159186E+02
 0.57284297276E+02 0.48611595089E+02 0.38042869705E+02 0.29100529746E+02 0.23394553026E+02
 0.19627899552E+02 0.16374551647E+02 0.13859724709E+02 0.12145292575E+02 0.11100479914E+02
 0.10538194476E+02 0.10305988735E+02 0.10302929570E+02 0.10457807367E+02 0.10705582023E+02
 0.10973593059E+02 0.11181428579E+02 0.91627721764E+01 0.91439224199E+01 0.91092244296E+01
 0.91045211059E+01 0.91703597938E+01 0.93443531442E+01 0.96874574192E+01 0.10305988735E+02
 0.11371411377E+02 0.13133088085E+02 0.15856105926E+02 0.19627899552E+02 0.24412890480E+02
 0.33629901952E+02 0.51161881227E+02 0.76139333090E+02 0.10303156611E+03 0.12387788585E+03
 0.13174093132E+03 0.12387788585E+03 0.10303156611E+03 0.76139333090E+02 0.51161881227E+02
 0.33629901952E+02 0.24412890480E+02 0.19627899552E+02 0.15856105926E+02 0.13133088085E+02
 0.11371411377E+02 0.10305988735E+02 0.96874574192E+01 0.93443531442E+01 0.91703597938E+01
 0.91045211059E+01 0.91092244296E+01 0.91439224199E+01 0.79647441378E+01 0.79742212499E+01
 0.80261961615E+01 0.81608719562E+01 0.83986262963E+01 0.87649794042E+01 0.93443531442E+01
 0.10302929570E+02 0.11896558914E+02 0.14465865751E+02 0.18298400519E+02 0.23394553026E+02
 0.33629901952E+02 0.56985521039E+02 0.96382758463E+02 0.14742136269E+03 0.19928054367E+03
 0.23820749440E+03 0.25268220329E+03 0.23820749440E+03 0.19928054367E+03 0.14742136269E+03
 0.96382758463E+02 0.56985521039E+02 0.33629901952E+02 0.23394553026E+02 0.18298400519E+02
 0.14465865751E+02 0.11896558914E+02 0.10302929570E+02 0.93443531442E+01 0.87649794042E+01
 0.83986262963E+01 0.81608719562E+01 0.80261961615E+01 0.79742212499E+01 0.72250242114E+01
 0.72471657851E+01 0.73437509170E+01 0.75591795545E+01 0.79026852099E+01 0.83986262963E+01
 0.91703597938E+01 0.10457807367E+02 0.12603769902E+02 0.16015541550E+02 0.20916512353E+02
 0.29100529746E+02 0.51161881227E+02 0.96382758463E+02 0.16584766487E+03 0.25087268783E+03
 0.33450778207E+03 0.39621650297E+03 0.41899475335E+03 0.39621650297E+03 0.33450778207E+03
 0.25087268783E+03 0.16584766487E+03 0.96382758463E+02 0.51161881227E+02 0.29100529746E+02
 0.20916512353E+02 0.16015541550E+02 0.12603769902E+02 0.10457807367E+02 0.91703597938E+01
 0.83986262963E+01 0.79026852099E+01 0.75591795545E+01 0.73437509170E+01 0.72471657851E+01
 0.66987969555E+01 0.67284364853E+01 0.68558980748E+01 0.71327997794E+01 0.75591795545E+01
 0.81608719562E+01 0.91045211059E+01 0.10705582023E+02 0.13384335450E+02 0.17577601533E+02
 0.23538287191E+02 0.38042869705E+02 0.76139333090E+02 0.14742136269E+03 0.25087268783E+03
 0.37347459295E+03 0.49201150292E+03 0.57874545905E+03 0.61065725423E+03 0.57874545905E+03
 0.49201150292E+03 0.37347459295E+03 0.25087268783E+03 0.14742136269E+03 0.76139333090E+02
 0.38042869705E+02 0.23538287191E+02 0.17577601533E+02 0.13384335450E+02 0.10705582023E+02
 0.91045211059E+01 0.81608719562E+01 0.75591795545E+01 0.71327997794E+01 0.68558980748E+01
 0.67284364853E+01 0.63530605283E+01 0.63867255838E+01 0.65345136877E+01 0.68558980748E+01
 0.73437509170E+01 0.80261961615E+01 0.91092244296E+01 0.10973593059E+02 0.14097700117E+02
 0.18913369464E+02 0.26390420690E+02 0.48611595089E+02 0.10303156611E+03 0.19928054367E+03
 0.33450778207E+03 0.49201150292E+03 0.64303309689E+03 0.75316555597E+03 0.79364422517E+03
 0.75316555597E+03 0.64303309689E+03 0.49201150292E+03 0.33450778207E+03 0.19928054367E+03
 0.10303156611E+03 0.48611595089E+02 0.26390420690E+02 0.18913369464E+02 0.14097700117E+02
 0.10973593059E+02 0.91092244296E+01 0.80261961615E+01 0.73437509170E+01 0.68558980748E+01
 0.65345136877E+01 0.63867255838E+01 0.61986277875E+01 0.62323334958E+01 0.63867255838E+01
 0.67284364854E+01 0.72471657851E+01 0.79742212499E+01 0.91439224199E+01 0.11181428579E+02
 0.14599408498E+02 0.19809532847E+02 0.28829514933E+02 0.57284297276E+02 0.12387788585E+03
 0.23820749440E+03 0.39621650297E+03 0.57874545905E+03 0.75316555597E+03 0.88023563583E+03
 0.92693417603E+03 0.88023563583E+03 0.75316555597E+03 0.57874545905E+03 0.39621650297E+03
 0.23820749440E+03 0.12387788585E+03 0.57284297276E+02 0.28829514933E+02 0.19809532847E+02
 0.14599408498E+02 0.11181428579E+02 0.91439224199E+01 0.79742212499E+01 0.72471657851E+01
 0.67284364853E+01 0.63867255838E+01 0.62323334958E+01 0.61657577919E+01 0.61986277875E+01
 0.63530605283E+01 0.66987969555E+01 0.72250242114E+01 0.79647441378E+01 0.91627721764E+01
 0.11260031384E+02 0.14780223851E+02 0.20124493808E+02 0.29804937818E+02 0.60642159186E+02
 0.13174093132E+03 0.25268220329E+03 0.41899475335E+03 0.61065725423E+03 0.79364422517E+03
 0.92693417603E+03 0.97592068093E+03 0.92693417603E+03 0.79364422517E+03 0.61065725423E+03
 0.41899475335E+03 0.25268220329E+03 0.13174093132E+03 0.60642159186E+02 0.29804937818E+02
 0.20124493808E+02 0.14780223851E+02 0.11260031384E+02 0.91627721764E+01 0.79647441378E+01
 0.72250242114E+01 0.66987969555E+01 0.63530605283E+01 0.61986277875E+01 0.61986277875E+01
 0.62323334958E+01 0.63867255838E+01 0.67284364853E+01 0.72471657851E+01 0.79742212499E+01
 0.91439224199E+01 0.11181428579E+02 0.14599408498E+02 0.19809532847E+02 0.28829514933E+02
 0.57284297276E+02 0.12387788585E+03 0.23820749440E+03 0.39621650297E+03 0.57874545905E+03
 0.75316555597E+03 0.88023563583E+03 0.92693417603E+03 0.88023563583E+03 0.75316555597E+03
 0.57874545905E+03 0.39621650297E+03 0.23820749440E+03 0.12387788585E+03 0.57284297276E+02
 0.28829514933E+02 0.19809532847E+02 0.14599408498E+02 0.11181428579E+02 0.91439224199E+01
 0.79742212499E+01 0.72471657851E+01 0.67284364853E+01 0.63867255838E+01 0.62323334958E+01
 0.63530605283E+01 0.63867255838E+01 0.65345136877E+01 0.68558980748E+01 0.73437509170E+01
 0.80261961615E+01 0.91092244296E+01 0.10973593059E+02 0.14097700117E+02 0.18913369464E+02
 0.26390420690E+02 0.48611595089E+02 0.10303156611E+03 0.19928054367E+03 0.33450778207E+03
 0.49201150292E+03 0.64303309689E+03 0.75316555597E+03 0.79364422517E+03 0.75316555597E+03
 0.64303309689E+03 0.49201150292E+03 0.33450778207E+03 0.19928054367E+03 0.10303156611E+03
 0.48611595089E+02 0.26390420690E+02 0.18913369464E+02 0.14097700117E+02 0.10973593059E+02
 0.91092244296E+01 0.80261961615E+01 0.73437509170E+01 0.68558980748E+01 0.65345136877E+01
 0.63867255838E+01 0.66987969555E+01 0.67284364854E+01 0.68558980748E+01 0.71327997794E+01
 0.75591795545E+01 0.81608719562E+01 0.91045211059E+01 0.10705582023E+02 0.13384335450E+02
 0.17577601533E+02 0.23538287191E+02 0.38042869705E+02 0.76139333090E+02 0.14742136269E+03
 0.25087268783E+03 0.37347459295E+03 0.49201150292E+03 0.57874545905E+03 0.61065725423E+03
 0.57874545905E+03 0.49201150292E+03 0.37347459295E+03 0.25087268783E+03 0.14742136269E+03
 0.76139333090E+02 0.38042869705E+02 0.23538287191E+02 0.17577601533E+02 0.13384335450E+02
 0.10705582023E+02 0.91045211059E+01 0.81608719562E+01 0.75591795545E+01 0.71327997794E+01
 0.68558980748E+01 0.67284364854E+01 0.72250242114E+01 0.72471657851E+01 0.73437509170E+01
 0.75591795545E+01 0.79026852099E+01 0.83986262963E+01 0.91703597938E+01 0.10457807367E+02
 0.12603769902E+02 0.16015541550E+02 0.20916512353E+02 0.29100529746E+02 0.51161881227E+02
 0.96382758463E+02 0.16584766487E+03 0.25087268783E+03 0.33450778207E+03 0.39621650297E+03
 0.41899475335E+03 0.39621650297E+03 0.33450778207E+03 0.25087268783E+03 0.16584766487E+03
 0.96382758463E+02 0.51161881227E+02 0.29100529746E+02 0.20916512353E+02 0.16015541550E+02
 0.12603769902E+02 0.10457807367E+02 0.91703597938E+01 0.83986262963E+01 0.79026852099E+01
 0.75591795545E+01 0.73437509170E+01 0.72471657851E+01 0.79647441378E+01 0.79742212499E+01
 0.80261961615E+01 0.81608719562E+01 0.83986262963E+01 0.87649794042E+01 0.93443531442E+01
 0.10302929570E+02 0.11896558914E+02 0.14465865751E+02 0.18298400519E+02 0.23394553026E+02
 0.33629901952E+02 0.56985521039E+02 0.96382758463E+02 0.14742136269E+03 0.19928054367E+03
 0.23820749440E+03 0.25268220329E+03 0.23820749440E+03 0.19928054367E+03 0.14742136269E+03
 0.96382758463E+02 0.56985521039E+02 0.33629901952E+02 0.23394553026E+02 0.18298400519E+02
 0.14465865751E+02 0.11896558914E+02 0.10302929570E+02 0.93443531442E+01 0.87649794042E+01
 0.83986262963E+01 0.81608719562E+01 0.80261961615E+01 0.79742212499E+01 0.91627721764E+01
 0.91439224199E+01 0.91092244296E+01 0.91045211059E+01 0.91703597938E+01 0.93443531442E+01
 0.96874574192E+01 0.10305988735E+02 0.11371411377E+02 0.13133088085E+02 0.15856105926E+02
 0.19627899552E+02 0.24412890480E+02 0.33629901952E+02 0.51161881227E+02 0.76139333090E+02
 0.10303156611E+03 0.12387788585E+03 0.13174093132E+03 0.12387788585E+03 0.10303156611E+03
 0.76139333090E+02 0.51161881227E+02 0.33629901952E+02 0.24412890480E+02 0.19627899552E+02
 0.15856105926E+02 0.13133088085E+02 0.11371411377E+02 0.10305988735E+02 0.96874574192E+01
 0.93443531442E+01 0.91703597938E+01 0.91045211059E+01 0.91092244296E+01 0.91439224199E+01
 0.11260031384E+02 0.11181428579E+02 0.10973593059E+02 0.10705582023E+02 0.10457807367E+02
 0.10302929570E+02 0.10305988735E+02 0.10538194476E+02 0.11100479914E+02 0.12145292575E+02
 0.13859724709E+02 0.16374551647E+02 0.19627899552E+02 0.23394553026E+02 0.29100529746E+02
 0.38042869705E+02 0.48611595089E+02 0.57284297276E+02 0.60642159186E+02 0.57284297276E+02
 0.48611595089E+02 0.38042869705E+02 0.29100529746E+02 0.23394553026E+02 0.19627899552E+02
 0.16374551647E+02 0.13859724709E+02 0.12145292575E+02 0.11100479914E+02 0.10538194476E+02
 0.10305988735E+02 0.10302929570E+02 0.10457807367E+02 0.10705582023E+02 0.10973593059E+02
 0.11181428579E+02 0.14780223851E+02 0.14599408498E+02 0.14097700117E+02 0.13384335450E+02
 0.12603769902E+02 0.11896558914E+02 0.11371411377E+02 0.11100479914E+02 0.11138547825E+02
 0.11551822595E+02 0.12430229430E+02 0.13859724709E+02 0.15856105926E+02 0.18298400519E+02
 0.20916512353E+02 0.23538287191E+02 0.26390420690E+02 0.28829514933E+02 0.29804937818E+02
 0.28829514933E+02 0.26390420690E+02 0.23538287191E+02 0.20916512353E+02 0.18298400519E+02
 0.15856105926E+02 0.13859724709E+02 0.12430229430E+02 0.11551822595E+02 0.11138547825E+02
 0.11100479914E+02 0.11371411377E+02 0.11896558914E+02 0.12603769902E+02 0.13384335450E+02
 0.14097700117E+02 0.14599408498E+02 0.20124493808E+02 0.19809532847E+02 0.18913369464E+02
 0.17577601533E+02 0.16015541550E+02 0.14465865751E+02 0.13133088085E+02 0.12145292575E+02
 0.11551822595E+02 0.11355551781E+02 0.11551822595E+02 0.12145292575E+02 0.13133088085E+02
 0.14465865751E+02 0.16015541550E+02 0.17577601533E+02 0.18913369464E+02 0.19809532847E+02
 0.20124493808E+02 0.19809532847E+02 0.18913369464E+02 0.17577601533E+02 0.16015541550E+02
 0.14465865751E+02 0.13133088085E+02 0.12145292575E+02 0.11551822595E+02 0.11355551781E+02
 0.11551822595E+02 0.12145292575E+02 0.13133088085E+02 0.14465865751E+02 0.16015541550E+02
 0.17577601533E+02 0.18913369464E+02 0.19809532847E+02 0.29804937818E+02 0.28829514933E+02
 0.26390420690E+02 0.23538287191E+02 0.20916512353E+02 0.18298400519E+02 0.15856105926E+02
 0.13859724709E+02 0.12430229430E+02 0.11551822595E+02 0.11138547825E+02 0.11100479914E+02
 0.11371411377E+02 0.11896558914E+02 0.12603769902E+02 0.13384335450E+02 0.14097700117E+02
 0.14599408498E+02 0.14780223851E+02 0.14599408498E+02 0.14097700117E+02 0.13384335450E+02
 0.12603769902E+02 0.11896558914E+02 0.11371411377E+02 0.11100479914E+02 0.11138547825E+02
 0.11551822595E+02 0.12430229430E+02 0.13859724709E+02 0.15856105926E+02 0.18298400519E+02
 0.20916512353E+02 0.23538287191E+02 0.26390420690E+02 0.28829514933E+02 0.60642159186E+02
 0.57284297276E+02 0.48611595089E+02 0.38042869705E+02 0.29100529746E+02 0.23394553026E+02
 0.19627899552E+02 0.16374551647E+02 0.13859724709E+02 0.12145292575E+02 0.11100479914E+02
 0.10538194476E+02 0.10305988735E+02 0.10302929570E+02 0.10457807367E+02 0.10705582023E+02
 0.10973593059E+02 0.11181428579E+02 0.11260031384E+02 0.11181428579E+02 0.10973593059E+02
 0.10705582023E+02 0.10457807367E+02 0.10302929570E+02 0.10305988735E+02 0.10538194476E+02
 0.11100479914E+02 0.12145292575E+02 0.13859724709E+02 0.16374551647E+02 0.19627899552E+02
 0.23394553026E+02 0.29100529746E+02 0.38042869705E+02 0.48611595089E+02 0.57284297276E+02
 0.13174093132E+03 0.12387788585E+03 0.10303156611E+03 0.76139333090E+02 0.51161881227E+02
 0.33629901952E+02 0.24412890480E+02 0.19627899552E+02 0.15856105926E+02 0.13133088085E+02
 0.11371411377E+02 0.10305988735E+02 0.96874574192E+01 0.93443531442E+01 0.91703597938E+01
 0.91045211059E+01 0.91092244296E+01 0.91439224199E+01 0.91627721764E+01 0.91439224199E+01
 0.91092244296E+01 0.91045211059E+01 0.91703597938E+01 0.93443531442E+01 0.96874574192E+01
 0.10305988735E+02 0.11371411377E+02 0.13133088085E+02 0.15856105926E+02 0.19627899552E+02
 0.24412890480E+02 0.33629901952E+02 0.51161881227E+02 0.76139333090E+02 0.10303156611E+03
 0.12387788585E+03 0.25268220329E+03 0.23820749440E+03 0.19928054367E+03 0.14742136269E+03
 0.96382758463E+02 0.56985521039E+02 0.33629901952E+02 0.23394553026E+02 0.18298400519E+02
 0.14465865751E+02 0.11896558914E+02 0.10302929570E+02 0.93443531442E+01 0.87649794042E+01
 0.83986262963E+01 0.81608719562E+01 0.80261961615E+01 0.79742212499E+01 0.79647441378E+01
 0.79742212499E+01 0.80261961615E+01 0.81608719562E+01 0.83986262963E+01 0.87649794042E+01
 0.93443531442E+01 0.10302929570E+02 0.11896558914E+02 0.14465865751E+02 0.18298400519E+02
 0.23394553026E+02 0.33629901952E+02 0.56985521039E+02 0.96382758463E+02 0.14742136269E+03
 0.19928054367E+03 0.23820749440E+03 0.41899475335E+03 0.39621650297E+03 0.33450778207E+03
 0.25087268783E+03 0.16584766487E+03 0.96382758463E+02 0.51161881227E+02 0.29100529746E+02
 0.20916512353E+02 0.16015541550E+02 0.12603769902E+02 0.10457807367E+02 0.91703597938E+01
 0.83986262963E+01 0.79026852099E+01 0.75591795545E+01 0.73437509170E+01 0.72471657851E+01
 0.72250242114E+01 0.72471657851E+01 0.73437509170E+01 0.75591795545E+01 0.79026852099E+01
 0.83986262963E+01 0.91703597938E+01 0.10457807367E+02 0.12603769902E+02 0.16015541550E+02
 0.20916512353E+02 0.29100529746E+02 0.51161881227E+02 0.96382758463E+02 0.16584766487E+03
 0.25087268783E+03 0.33450778207E+03 0.39621650297E+03 0.61065725423E+03 0.57874545905E+03
 0.49201150292E+03 0.37347459295E+03 0.25087268783E+03 0.14742136269E+03 0.76139333090E+02
 0.38042869705E+02 0.23538287191E+02 0.17577601533E+02 0.13384335450E+02 0.10705582023E+02
 0.91045211059E+01 0.81608719562E+01 0.75591795545E+01 0.71327997794E+01 0.68558980748E+01
 0.67284364853E+01 0.66987969555E+01 0.67284364853E+01 0.68558980748E+01 0.71327997794E+01
 0.75591795545E+01 0.81608719562E+01 0.91045211059E+01 0.10705582023E+02 0.13384335450E+02
 0.17577601533E+02 0.23538287191E+02 0.38042869705E+02 0.76139333090E+02 0.14742136269E+03
 0.25087268783E+03 0.37347459295E+03 0.49201150292E+03 0.57874545905E+03 0.79364422517E+03
 0.75316555597E+03 0.64303309689E+03 0.49201150292E+03 0.33450778207E+03 0.19928054367E+03
 0.10303156611E+03 0.48611595089E+02 0.26390420690E+02 0.18913369464E+02 0.14097700117E+02
 0.10973593059E+02 0.91092244296E+01 0.80261961615E+01 0.73437509170E+01 0.68558980748E+01
 0.65345136877E+01 0.63867255838E+01 0.63530605283E+01 0.63867255838E+01 0.65345136877E+01
 0.68558980748E+01 0.73437509170E+01 0.80261961615E+01 0.91092244296E+01 0.10973593059E+02
 0.14097700117E+02 0.18913369464E+02 0.26390420690E+02 0.48611595089E+02 0.10303156611E+03
 0.19928054367E+03 0.33450778207E+03 0.49201150292E+03 0.64303309689E+03 0.75316555597E+03
 0.92693417603E+03 0.88023563583E+03 0.75316555597E+03 0.57874545905E+03 0.39621650297E+03
 0.23820749440E+03 0.12387788585E+03 0.57284297276E+02 0.28829514933E+02 0.19809532847E+02
 0.14599408498E+02 0.11181428579E+02 0.91439224199E+01 0.79742212499E+01 0.72471657851E+01
 0.67284364853E+01 0.63867255838E+01 0.62323334958E+01 0.61986277875E+01 0.62323334958E+01
 0.63867255838E+01 0.67284364853E+01 0.72471657851E+01 0.79742212499E+01 0.91439224199E+01
 0.11181428579E+02 0.14599408498E+02 0.19809532847E+02 0.28829514933E+02 0.57284297276E+02
 0.12387788585E+03 0.23820749440E+03 0.39621650297E+03 0.57874545905E+03 0.75316555597E+03
 0.88023563583E+03 0.92693417603E+03 0.88023563583E+03 0.75316555597E+03 0.57874545905E+03
 0.39621650297E+03 0.23820749440E+03 0.12387788585E+03 0.57284297276E+02 0.28829514933E+02
 0.19809532847E+02 0.14599408498E+02 0.11181428579E+02 0.91439224199E+01 0.79742212499E+01
 0.72471657851E+01 0.67284364853E+01 0.63867255838E+01 0.62323334958E+01 0.61986277875E+01
 0.62323334958E+01 0.63867255838E+01 0.67284364853E+01 0.72471657851E+01 0.79742212499E+01
 0.91439224199E+01 0.11181428579E+02 0.14599408498E+02 0.19809532847E+02 0.28829514933E+02
 0.57284297276E+02 0.12387788585E+03 0.23820749440E+03 0.39621650297E+03 0.57874545905E+03
 0.75316555597E+03 0.88023563583E+03 0.88023563583E+03 0.83571813289E+03 0.71458212727E+03
 0.54834691774E+03 0.37455691026E+03 0.22449637584E+03 0.11648363196E+03 0.54167565639E+02
 0.27938653276E+02 0.19500722847E+02 0.14423079506E+02 0.11104670396E+02 0.91252285485E+01
 0.79832924320E+01 0.72689877005E+01 0.67580471731E+01 0.64207135951E+01 0.62667142552E+01
 0.62323334958E+01 0.62667142552E+01 0.64207135951E+01 0.67580471731E+01 0.72689877005E+01
 0.79832924320E+01 0.91252285485E+01 0.11104670396E+02 0.14423079506E+02 0.19500722847E+02
 0.27938653276E+02 0.54167565639E+02 0.11648363196E+03 0.22449637584E+03 0.37455691026E+03
 0.54834691774E+03 0.71458212727E+03 0.83571813289E+03 0.75316555597E+03 0.71458212727E+03
 0.60961775712E+03 0.46575121984E+03 0.31591314590E+03 0.18765866276E+03 0.96910030595E+02
 0.46136078934E+02 0.25709700444E+02 0.18623041404E+02 0.13934066775E+02 0.10901701964E+02
 0.90904156463E+01 0.80332821571E+01 0.73634539427E+01 0.68837924664E+01 0.65673920499E+01
 0.64207135951E+01 0.63867255838E+01 0.64207135951E+01 0.65673920499E+01 0.68837924664E+01
 0.73634539427E+01 0.80332821571E+01 0.90904156463E+01 0.10901701964E+02 0.13934066775E+02
 0.18623041404E+02 0.25709700444E+02 0.46136078934E+02 0.96910030595E+02 0.18765866276E+03
 0.31591314590E+03 0.46575121984E+03 0.60961775712E+03 0.71458212727E+03 0.57874545905E+03
 0.54834691774E+03 0.46575121984E+03 0.35296818834E+03 0.23654641146E+03 0.13869243358E+03
 0.71745726113E+02 0.36395214478E+02 0.23082781497E+02 0.17317446724E+02 0.13239508034E+02
 0.10640126917E+02 0.90844696612E+01 0.81635375889E+01 0.75736834876E+01 0.71554318529E+01
 0.68837924664E+01 0.67580471731E+01 0.67284364854E+01 0.67580471731E+01 0.68837924664E+01
 0.71554318529E+01 0.75736834876E+01 0.81635375889E+01 0.90844696612E+01 0.10640126917E+02
 0.13239508034E+02 0.17317446724E+02 0.23082781497E+02 0.36395214478E+02 0.71745726113E+02
 0.13869243358E+03 0.23654641146E+03 0.35296818834E+03 0.46575121984E+03 0.54834691774E+03
 0.39621650297E+03 0.37455691026E+03 0.31591314590E+03 0.23654641146E+03 0.15609081390E+03
 0.90700784352E+02 0.48514174391E+02 0.28205020409E+02 0.20576237177E+02 0.15794573963E+02
 0.12480849087E+02 0.10398910841E+02 0.91477659658E+01 0.83948609155E+01 0.79095264360E+01
 0.75736834876E+01 0.73634539427E+01 0.72689877005E+01 0.72471657851E+01 0.72689877005E+01
 0.73634539427E+01 0.75736834876E+01 0.79095264360E+01 0.83948609155E+01 0.91477659658E+01
 0.10398910841E+02 0.12480849087E+02 0.15794573963E+02 0.20576237177E+02 0.28205020409E+02
 0.48514174391E+02 0.90700784352E+02 0.15609081390E+03 0.23654641146E+03 0.31591314590E+03
 0.37455691026E+03 0.23820749440E+03 0.22449637584E+03 0.18765866276E+03 0.13869243358E+03
 0.90700784352E+02 0.53919945383E+02 0.32358116371E+02 0.22957924417E+02 0.18016282572E+02
 0.14287948190E+02 0.11795170938E+02 0.10249198888E+02 0.93174659610E+01 0.87525341627E+01
 0.83948609155E+01 0.81635375889E+01 0.80332821571E+01 0.79832924320E+01 0.79742212499E+01
 0.79832924320E+01 0.80332821571E+01 0.81635375889E+01 0.83948609155E+01 0.87525341627E+01
 0.93174659610E+01 0.10249198888E+02 0.11795170938E+02 0.14287948190E+02 0.18016282572E+02
 0.22957924417E+02 0.32358116371E+02 0.53919945383E+02 0.90700784352E+02 0.13869243358E+03
 0.18765866276E+03 0.22449637584E+03 0.12387788585E+03 0.11648363196E+03 0.96910030595E+02
 0.71745726113E+02 0.48514174391E+02 0.32358116371E+02 0.23910608736E+02 0.19312610458E+02
 0.15638596748E+02 0.12995659565E+02 0.11287677367E+02 0.10253848268E+02 0.96522013270E+01
 0.93174659610E+01 0.91477659658E+01 0.90844696612E+01 0.90904156463E+01 0.91252285485E+01
 0.91439224199E+01 0.91252285485E+01 0.90904156463E+01 0.90844696612E+01 0.91477659658E+01
 0.93174659610E+01 0.96522013270E+01 0.10253848268E+02 0.11287677367E+02 0.12995659565E+02
 0.15638596748E+02 0.19312610458E+02 0.23910608736E+02 0.32358116371E+02 0.48514174391E+02
 0.71745726113E+02 0.96910030595E+02 0.11648363196E+03 0.57284297276E+02 0.54167565639E+02
 0.46136078934E+02 0.36395214478E+02 0.28205020409E+02 0.22957924417E+02 0.19312610458E+02
 0.16142617195E+02 0.13701474633E+02 0.12040101851E+02 0.11027333932E+02 0.10480963235E+02
 0.10253848268E+02 0.10249198888E+02 0.10398910841E+02 0.10640126917E+02 0.10901701964E+02
 0.11104670396E+02 0.11181428579E+02 0.11104670396E+02 0.10901701964E+02 0.10640126917E+02
 0.10398910841E+02 0.10249198888E+02 0.10253848268E+02 0.10480963235E+02 0.11027333932E+02
 0.12040101851E+02 0.13701474633E+02 0.16142617195E+02 0.19312610458E+02 0.22957924417E+02
 0.28205020409E+02 0.36395214478E+02 0.46136078934E+02 0.54167565639E+02 0.28829514933E+02
 0.27938653276E+02 0.25709700444E+02 0.23082781497E+02 0.20576237177E+02 0.18016282572E+02
 0.15638596748E+02 0.13701474633E+02 0.12317239490E+02 0.11466999385E+02 0.11066030912E+02
 0.11027333932E+02 0.11287677367E+02 0.11795170938E+02 0.12480849087E+02 0.13239508034E+02
 0.13934066775E+02 0.14423079506E+02 0.14599408498E+02 0.14423079506E+02 0.13934066775E+02
 0.13239508034E+02 0.12480849087E+02 0.11795170938E+02 0.11287677367E+02 0.11027333932E+02
 0.11066030912E+02 0.11466999385E+02 0.12317239490E+02 0.13701474633E+02 0.15638596748E+02
 0.18016282572E+02 0.20576237177E+02 0.23082781497E+02 0.25709700444E+02 0.27938653276E+02
 0.19809532847E+02 0.19500722847E+02 0.18623041404E+02 0.17317446724E+02 0.15794573963E+02