   4   4   0   0
  0.1380865E+02  0.3808352E-09  0.3808352E-09  0.3808352E-09  0.5000000E-15
  1.000000000000000E-004
  CAR 
 unknown system                          
     26.32007844     -4.42788907  301      5.72011984      1.00000000
     -4.428  0.0000E+00  0.0000E+00
     -4.325  0.0000E+00  0.0000E+00
     -4.223  0.0000E+00  0.0000E+00
     -4.120 -0.5049E-32 -0.5175E-33
     -4.018 -0.2132E-28 -0.2186E-29
     -3.915 -0.5305E-25 -0.5439E-26
     -3.813 -0.7766E-22 -0.7965E-23
     -3.710 -0.6688E-19 -0.6863E-20
     -3.608 -0.3236E-16 -0.3324E-17
     -3.505 -0.9717E-14 -0.9992E-15
     -3.403 -0.1680E-11 -0.1732E-12
     -3.300 -0.1696E-09 -0.1756E-10
     -3.198 -0.9984E-08 -0.1041E-08
     -3.095 -0.3417E-06 -0.3606E-07
     -2.993 -0.6790E-05 -0.7320E-06
     -2.890 -0.7836E-04 -0.8764E-05
     -2.788 -0.5251E-03 -0.6258E-04
     -2.686 -0.1999E-02 -0.2674E-03
     -2.583 -0.3583E-02 -0.6346E-03
     -2.481  0.3033E-02 -0.3238E-03
     -2.378  0.3615E-01  0.3381E-02
     -2.276  0.1052E+00  0.1417E-01
     -2.173  0.1778E+00  0.3239E-01
     -2.071  0.1959E+00  0.5247E-01
     -1.968  0.1700E+00  0.6990E-01
     -1.866  0.2098E+00  0.9140E-01
     -1.763  0.3573E+00  0.1280E+00
     -1.661  0.4486E+00  0.1740E+00
     -1.558  0.3382E+00  0.2087E+00
     -1.456  0.1848E+00  0.2276E+00
     -1.353  0.2384E+00  0.2520E+00
     -1.251  0.4433E+00  0.2975E+00
     -1.148  0.5696E+00  0.3558E+00
     -1.046  0.5454E+00  0.4118E+00
     -0.943  0.4312E+00  0.4559E+00
     -0.841  0.3715E+00  0.4940E+00
     -0.738  0.5239E+00  0.5477E+00
     -0.636  0.6849E+00  0.6179E+00
     -0.533  0.5172E+00  0.6709E+00
     -0.431  0.2914E+00  0.7008E+00
     -0.328  0.4576E+00  0.7477E+00
     -0.226  0.7853E+00  0.8282E+00
     -0.123  0.8455E+00  0.9148E+00
     -0.021  0.7301E+00  0.9897E+00
      0.082  0.7836E+00  0.1070E+01
      0.184  0.9194E+00  0.1164E+01
      0.287  0.7290E+00  0.1239E+01
      0.389  0.3873E+00  0.1279E+01
      0.492  0.4453E+00  0.1324E+01
      0.594  0.9511E+00  0.1422E+01
      0.697  0.1378E+01  0.1563E+01
      0.799  0.1335E+01  0.1700E+01
      0.902  0.1143E+01  0.1817E+01
      1.004  0.1079E+01  0.1928E+01
      1.107  0.1024E+01  0.2033E+01
      1.209  0.1107E+01  0.2146E+01
      1.312  0.1633E+01  0.2313E+01
      1.414  0.2350E+01  0.2554E+01
      1.517  0.2653E+01  0.2826E+01
      1.619  0.2795E+01  0.3113E+01
      1.722  0.3560E+01  0.3477E+01
      1.824  0.4759E+01  0.3965E+01
      1.927  0.5624E+01  0.4542E+01
      2.029  0.5940E+01  0.5150E+01
      2.132  0.6656E+01  0.5833E+01
      2.234  0.8537E+01  0.6708E+01
      2.337  0.1038E+02  0.7772E+01
      2.439  0.1106E+02  0.8905E+01
      2.542  0.1083E+02  0.1001E+02
      2.644  0.1047E+02  0.1109E+02
      2.747  0.1066E+02  0.1218E+02
      2.849  0.1183E+02  0.1339E+02
      2.952  0.1398E+02  0.1483E+02
      3.054  0.1605E+02  0.1647E+02
      3.157  0.1802E+02  0.1832E+02
      3.259  0.2061E+02  0.2043E+02
      3.362  0.2130E+02  0.2261E+02
      3.464  0.1821E+02  0.2448E+02
      3.567  0.1471E+02  0.2599E+02
      3.669  0.1473E+02  0.2750E+02
      3.772  0.1718E+02  0.2926E+02
      3.874  0.1820E+02  0.3112E+02
      3.977  0.1728E+02  0.3289E+02
      4.079  0.1761E+02  0.3470E+02
      4.182  0.2080E+02  0.3683E+02
      4.284  0.2292E+02  0.3918E+02
      4.387  0.1838E+02  0.4106E+02
      4.489  0.9360E+01  0.4202E+02
      4.592  0.2867E+01  0.4232E+02
      4.694  0.8087E+00  0.4240E+02
      4.797  0.1075E+01  0.4251E+02
      4.899  0.1817E+01  0.4270E+02
      5.001  0.1978E+01  0.4290E+02
      5.104  0.1471E+01  0.4305E+02
      5.206  0.7604E+00  0.4313E+02
      5.309  0.6088E+00  0.4319E+02
      5.411  0.1666E+01  0.4336E+02
      5.514  0.2654E+01  0.4363E+02
      5.616  0.2216E+01  0.4386E+02
      5.719  0.1356E+01  0.4400E+02
      5.821  0.9039E+00  0.4409E+02
      5.924  0.6618E+00  0.4416E+02
      6.026  0.5873E+00  0.4422E+02
      6.129  0.8397E+00  0.4431E+02
      6.231  0.1418E+01  0.4445E+02
      6.334  0.1753E+01  0.4463E+02
      6.436  0.1613E+01  0.4480E+02
      6.539  0.1555E+01  0.4496E+02
      6.641  0.1550E+01  0.4511E+02
      6.744  0.1177E+01  0.4523E+02
      6.846  0.8158E+00  0.4532E+02
      6.949  0.8313E+00  0.4540E+02
      7.051  0.8519E+00  0.4549E+02
      7.154  0.6031E+00  0.4555E+02
      7.256  0.5962E+00  0.4561E+02
      7.359  0.1292E+01  0.4575E+02
      7.461  0.1823E+01  0.4593E+02
      7.564  0.1419E+01  0.4608E+02
      7.666  0.9879E+00  0.4618E+02
      7.769  0.1182E+01  0.4630E+02
      7.871  0.1376E+01  0.4644E+02
      7.974  0.1242E+01  0.4657E+02
      8.076  0.9271E+00  0.4666E+02
      8.179  0.5202E+00  0.4672E+02
      8.281  0.2908E+00  0.4675E+02
      8.384  0.3548E+00  0.4678E+02
      8.486  0.5991E+00  0.4685E+02
      8.589  0.9614E+00  0.4694E+02
      8.691  0.1140E+01  0.4706E+02
      8.794  0.9823E+00  0.4716E+02
      8.896  0.1096E+01  0.4727E+02
      8.999  0.1577E+01  0.4744E+02
      9.101  0.1625E+01  0.4760E+02
      9.204  0.1090E+01  0.4771E+02
      9.306  0.6139E+00  0.4778E+02
      9.409  0.7188E+00  0.4785E+02
      9.511  0.1231E+01  0.4798E+02
      9.614  0.1665E+01  0.4815E+02
      9.716  0.1840E+01  0.4834E+02
      9.819  0.1553E+01  0.4849E+02
      9.921  0.8521E+00  0.4858E+02
     10.024  0.5085E+00  0.4863E+02
     10.126  0.9298E+00  0.4873E+02
     10.229  0.1600E+01  0.4889E+02
     10.331  0.1795E+01  0.4908E+02
     10.434  0.1343E+01  0.4921E+02
     10.536  0.6707E+00  0.4928E+02
     10.639  0.3263E+00  0.4932E+02
     10.741  0.7503E+00  0.4939E+02
     10.844  0.1779E+01  0.4958E+02
     10.946  0.2267E+01  0.4981E+02
     11.049  0.1603E+01  0.4997E+02
     11.151  0.9056E+00  0.5007E+02
     11.254  0.8773E+00  0.5016E+02
     11.356  0.8974E+00  0.5025E+02
     11.459  0.7636E+00  0.5033E+02
     11.561  0.7321E+00  0.5040E+02
     11.664  0.6387E+00  0.5047E+02
     11.766  0.4878E+00  0.5052E+02
     11.869  0.6619E+00  0.5058E+02
     11.971  0.1228E+01  0.5071E+02
     12.074  0.1784E+01  0.5089E+02
     12.176  0.1950E+01  0.5109E+02
     12.279  0.1850E+01  0.5128E+02
     12.381  0.1726E+01  0.5146E+02
     12.483  0.1610E+01  0.5162E+02
     12.586  0.1396E+01  0.5177E+02
     12.688  0.1082E+01  0.5188E+02
     12.791  0.8678E+00  0.5197E+02
     12.893  0.9250E+00  0.5206E+02
     12.996  0.1192E+01  0.5218E+02
     13.098  0.1355E+01  0.5232E+02
     13.201  0.1287E+01  0.5245E+02
     13.303  0.1375E+01  0.5260E+02
     13.406  0.1665E+01  0.5277E+02
     13.508  0.1607E+01  0.5293E+02
     13.611  0.1561E+01  0.5309E+02
     13.713  0.2109E+01  0.5331E+02
     13.816  0.2515E+01  0.5357E+02
     13.918  0.2040E+01  0.5377E+02
     14.021  0.1290E+01  0.5391E+02
     14.123  0.1302E+01  0.5404E+02
     14.226  0.1858E+01  0.5423E+02
     14.328  0.1850E+01  0.5442E+02
     14.431  0.1184E+01  0.5454E+02
     14.533  0.8869E+00  0.5463E+02
     14.636  0.1232E+01  0.5476E+02
     14.738  0.1450E+01  0.5491E+02
     14.841  0.1403E+01  0.5505E+02
     14.943  0.1484E+01  0.5520E+02
     15.046  0.1458E+01  0.5535E+02
     15.148  0.1114E+01  0.5547E+02
     15.251  0.8889E+00  0.5556E+02
     15.353  0.1242E+01  0.5568E+02
     15.456  0.2239E+01  0.5591E+02
     15.558  0.2873E+01  0.5621E+02
     15.661  0.2144E+01  0.5643E+02
     15.763  0.1344E+01  0.5657E+02
     15.866  0.1863E+01  0.5676E+02
     15.968  0.2481E+01  0.5701E+02
     16.071  0.1927E+01  0.5721E+02
     16.173  0.1037E+01  0.5732E+02
     16.276  0.7685E+00  0.5739E+02
     16.378  0.9375E+00  0.5749E+02
     16.481  0.1124E+01  0.5761E+02
     16.583  0.1545E+01  0.5776E+02
     16.686  0.2164E+01  0.5799E+02
     16.788  0.2073E+01  0.5820E+02
     16.891  0.1279E+01  0.5833E+02
     16.993  0.9772E+00  0.5843E+02
     17.096  0.1401E+01  0.5857E+02
     17.198  0.1491E+01  0.5873E+02
     17.301  0.9568E+00  0.5882E+02
     17.403  0.6625E+00  0.5889E+02
     17.506  0.7681E+00  0.5897E+02
     17.608  0.7170E+00  0.5904E+02
     17.711  0.5562E+00  0.5910E+02
     17.813  0.4682E+00  0.5915E+02
     17.916  0.3458E+00  0.5918E+02
     18.018  0.3704E+00  0.5922E+02
     18.121  0.5117E+00  0.5927E+02
     18.223  0.3840E+00  0.5931E+02
     18.326  0.1002E+00  0.5932E+02
     18.428 -0.2355E-01  0.5932E+02
     18.531 -0.2480E-01  0.5932E+02
     18.633 -0.2103E-01  0.5932E+02
     18.736 -0.2866E-03  0.5932E+02
     18.838  0.1151E+00  0.5933E+02
     18.941  0.3341E+00  0.5936E+02
     19.043  0.5587E+00  0.5942E+02
     19.146  0.5884E+00  0.5948E+02
     19.248  0.3234E+00  0.5951E+02
     19.351  0.8373E-01  0.5952E+02
     19.453  0.1332E+00  0.5954E+02
     19.556  0.2477E+00  0.5956E+02
     19.658  0.1686E+00  0.5958E+02
     19.761  0.3712E-01  0.5958E+02
     19.863  0.9885E-01  0.5959E+02
     19.965  0.3116E+00  0.5962E+02
     20.068  0.3952E+00  0.5967E+02
     20.170  0.2415E+00  0.5969E+02
     20.273  0.5466E-01  0.5970E+02
     20.375 -0.1713E-01  0.5969E+02
     20.478 -0.2784E-01  0.5969E+02
     20.580 -0.2773E-01  0.5969E+02
     20.683  0.8079E-01  0.5970E+02
     20.785  0.3690E+00  0.5973E+02
     20.888  0.5366E+00  0.5979E+02
     20.990  0.3308E+00  0.5982E+02
     21.093  0.5655E-01  0.5983E+02
     21.195 -0.3004E-01  0.5983E+02
     21.298 -0.2578E-01  0.5982E+02
     21.400 -0.7976E-02  0.5982E+02
     21.503  0.8097E-01  0.5983E+02
     21.605  0.2301E+00  0.5985E+02
     21.708  0.2521E+00  0.5988E+02
     21.810  0.1131E+00  0.5989E+02
     21.913  0.4362E-02  0.5989E+02
     22.015 -0.1318E-01  0.5989E+02
     22.118 -0.5899E-02  0.5989E+02
     22.220 -0.7954E-02  0.5989E+02
     22.323 -0.1343E-01  0.5989E+02
     22.425  0.2962E-01  0.5989E+02
     22.528  0.1674E+00  0.5991E+02
     22.630  0.2685E+00  0.5994E+02
     22.733  0.1826E+00  0.5995E+02
     22.835  0.3927E-01  0.5996E+02
     22.938 -0.1262E-01  0.5996E+02
     23.040 -0.8196E-02  0.5996E+02
     23.143 -0.1688E-02  0.5996E+02
     23.245 -0.1718E-03  0.5996E+02
     23.348 -0.9495E-05  0.5996E+02
     23.450 -0.2984E-06  0.5996E+02
     23.553 -0.1801E-06  0.5996E+02
     23.655 -0.5722E-05  0.5996E+02
     23.758 -0.1055E-03  0.5996E+02
     23.860 -0.1058E-02  0.5996E+02
     23.963 -0.5265E-02  0.5996E+02
     24.065 -0.8611E-02  0.5995E+02
     24.168  0.2402E-01  0.5996E+02
     24.270  0.1185E+00  0.5997E+02
     24.373  0.1791E+00  0.5999E+02
     24.475  0.1149E+00  0.6000E+02
     24.578  0.2175E-01  0.6000E+02
     24.680 -0.8789E-02  0.6000E+02
     24.783 -0.5051E-02  0.6000E+02
     24.885 -0.9873E-03  0.6000E+02
     24.988 -0.9633E-04  0.6000E+02
     25.090 -0.5120E-05  0.6000E+02
     25.193 -0.1534E-06  0.6000E+02
     25.295 -0.2636E-08  0.6000E+02
     25.398 -0.2622E-10  0.6000E+02
     25.500 -0.1518E-12  0.6000E+02
     25.603 -0.5230E-15  0.6000E+02
     25.705  0.0000E+00  0.6000E+02
     25.808  0.0000E+00  0.6000E+02
     25.910  0.0000E+00  0.6000E+02
     26.013  0.0000E+00  0.6000E+02
     26.115  0.0000E+00  0.6000E+02
     26.218  0.0000E+00  0.6000E+02
     26.320  0.0000E+00  0.6000E+02
