 vasp.6.2.0 18Jan21 (build Mar 17 2021 09:06:54) complex                        
  
 executed on             LinuxIFC date 2021.08.03  10:22:04
 serial version


--------------------------------------------------------------------------------------------------------


 INCAR:
   ENCUT = 320.000000
   SIGMA = 0.200000
   EDIFF = 1.00e-06
   GGA = PE
   PREC = normal
   IBRION = 1
   ICHARG = 1
   ISIF = 4
   ISMEAR = 1
   KPAR = 1
   NBANDS = 30
   NSW = 0
   NCORE = 1
   LCHARG = .TRUE.

 POTCAR:    PAW_PBE Cu 22Jun2005                  
 POTCAR:    PAW_PBE Cu 22Jun2005                  
   SHA256 =  0e71e558f37a4e8407882b4609ceaae59938afaad9ced71dfe8490308a0ab630 Cu/POTCAR             
   COPYR  = (c) Copyright 22Jun2005 Georg Kresse                                                    
   COPYR  = This file is part of the software VASP. Any use, copying, and all other rights are regul
   COPYR  = If you do not have a valid VASP license, you may not use, copy or distribute this file. 
   VRHFIN =Cu: d10 p1                                                                               
   LEXCH  = PE                                                                                      
   EATOM  =  1390.9808 eV,  102.2342 Ry                                                             
                                                                                                    
   TITEL  = PAW_PBE Cu 22Jun2005                                                                    
   LULTRA =        F    use ultrasoft PP ?                                                          
   IUNSCR =        1    unscreen: 0-lin 1-nonlin 2-no                                               
   RPACOR =    2.000    partial core radius                                                         
   POMASS =   63.546; ZVAL   =   11.000    mass and valenz                                          
   RCORE  =    2.300    outmost cutoff radius                                                       
   RWIGS  =    2.200; RWIGS  =    1.164    wigner-seitz radius (au A)                               
   ENMAX  =  295.446; ENMIN  =  221.585 eV                                                          
   ICORE  =        3    local potential                                                             
   LCOR   =        T    correct aug charges                                                         
   LPAW   =        T    paw PP                                                                      
   EAUG   =  586.980                                                                                
   DEXC   =    0.000                                                                                
   RMAX   =    2.344    core radius for proj-oper                                                   
   RAUG   =    1.300    factor for augmentation sphere                                              
   RDEP   =    2.302    radius for radial grids                                                     
   RDEPT  =    1.771    core radius for aug-charge                                                  
                                                                                                    
   Atomic configuration                                                                             
    9 entries                                                                                       
     n  l   j            E        occ.                                                              
     1  0  0.50     -8850.2468   2.0000                                                             
     2  0  0.50     -1062.3498   2.0000                                                             
     2  1  1.50      -916.8226   6.0000                                                             
     3  0  0.50      -114.6929   2.0000                                                             
     3  1  1.50       -72.1325   6.0000                                                             
     3  2  2.50        -5.0394  10.0000                                                             
     4  0  0.50        -4.6097   1.0000                                                             
     4  1  0.50        -4.0817   0.0000                                                             
     4  3  2.50        -1.3606   0.0000                                                             
   Description                                                                                      
     l       E           TYP  RCUT    TYP  RCUT                                                     
     2     -5.0393973     23  2.200                                                                 
     2     10.8846608     23  2.200                                                                 
     0     -4.6097109     23  2.200                                                                 
     0      8.2520465     23  2.200                                                                 
     1     -2.7211652     23  2.200                                                                 
     1     21.7055443     23  2.200                                                                 
     3      2.7211652     23  2.300                                                                 
  local pseudopotential read in
  partial core-charges read in
  partial kinetic energy density read in
  atomic valenz-charges read in
  non local Contribution for L=           2  read in
    real space projection operators read in
  non local Contribution for L=           2  read in
    real space projection operators read in
  non local Contribution for L=           0  read in
    real space projection operators read in
  non local Contribution for L=           0  read in
    real space projection operators read in
  non local Contribution for L=           1  read in
    real space projection operators read in
  non local Contribution for L=           1  read in
    real space projection operators read in
    PAW grid and wavefunctions read in
 
   number of l-projection  operators is LMAX  =           6
   number of lm-projection operators is LMMAX =          18
 
  PAW_PBE Cu 22Jun2005                  :
 energy of atom  1       EATOM=-1390.9808
 kinetic energy error for atom=    0.0368 (will be added to EATOM!!)
 
 
 POSCAR: Cu
  positions in cartesian coordinates
  No initial velocities read in
 exchange correlation table for  LEXCH =        8
   RHO(1)=    0.500       N(1)  =     2000
   RHO(2)=  100.500       N(2)  =     4000
 


--------------------------------------------------------------------------------------------------------


 ion  position               nearest neighbor table
   1  0.000  0.000  0.000-   2 2.69   3 2.69   4 2.69   3 2.69   4 2.69   2 2.69   4 2.69   4 2.69
                             2 2.69   3 2.69   3 2.69   2 2.69
   2  0.500  0.500  0.000-   1 2.69   3 2.69   4 2.69   3 2.69   4 2.69   1 2.69   3 2.69   3 2.69
                             1 2.69   4 2.69   4 2.69   1 2.69
   3  0.500  0.000  0.500-   1 2.69   2 2.69   4 2.69   1 2.69   2 2.69   2 2.69   4 2.69   2 2.69
                             1 2.69   4 2.69   1 2.69   4 2.69
   4  0.000  0.500  0.500-   1 2.69   2 2.69   3 2.69   1 2.69   2 2.69   1 2.69   3 2.69   1 2.69
                             2 2.69   3 2.69   2 2.69   3 2.69
 
  LATTYP: Found a simple cubic cell.
 ALAT       =     3.8083515258
  
  Lattice vectors:
  
 A1 = (   3.8083515258,   0.0000000000,   0.0000000000)
 A2 = (   0.0000000000,   3.8083515258,   0.0000000000)
 A3 = (   0.0000000000,   0.0000000000,   3.8083515258)


Analysis of symmetry for initial positions (statically):
=====================================================================
 Subroutine PRICEL returns following result:
 
  LATTYP: Found a face centered cubic cell.
 ALAT       =     3.8083515258
  
  Lattice vectors:
  
 A1 = (   1.9041757629,  -1.9041757629,   0.0000000000)
 A2 = (   1.9041757629,   0.0000000000,   1.9041757629)
 A3 = (   0.0000000000,  -1.9041757629,   1.9041757629)
 
   4 primitive cells build up your supercell.
 

 Routine SETGRP: Setting up the symmetry group for a 
 simple cubic supercell.


 Subroutine GETGRP returns: Found 48 space group operations
 (whereof 48 operations were pure point group operations)
 out of a pool of 48 trial point group operations.


The static configuration has the point symmetry O_h .


Analysis of symmetry for dynamics (positions and initial velocities):
=====================================================================
 Subroutine PRICEL returns following result:
 
  LATTYP: Found a face centered cubic cell.
 ALAT       =     3.8083515258
  
  Lattice vectors:
  
 A1 = (   1.9041757629,  -1.9041757629,   0.0000000000)
 A2 = (   1.9041757629,   0.0000000000,   1.9041757629)
 A3 = (   0.0000000000,  -1.9041757629,   1.9041757629)
 
   4 primitive cells build up your supercell.
 

 Routine SETGRP: Setting up the symmetry group for a 
 simple cubic supercell.


 Subroutine GETGRP returns: Found 48 space group operations
 (whereof 48 operations were pure point group operations)
 out of a pool of 48 trial point group operations.


The dynamic configuration has the point symmetry O_h .


 Subroutine INISYM returns: Found 48 space group operations
 (whereof 48 operations are pure point group operations),
 and found     4 'primitive' translations


----------------------------------------------------------------------------------------

                                     Primitive cell                                     

  volume of cell :      13.8086

  direct lattice vectors                    reciprocal lattice vectors
     1.904175763 -1.904175763  0.000000000     0.262580803 -0.262580803 -0.262580803
     1.904175763  0.000000000  1.904175763     0.262580803  0.262580803  0.262580803
     0.000000000 -1.904175763  1.904175763    -0.262580803 -0.262580803  0.262580803

  length of vectors
     2.692911189  2.692911189  2.692911189     0.454803291  0.454803291  0.454803291

  position of ions in fractional coordinates (direct lattice)
     0.000000000  0.000000000  0.000000000

  ion indices of the primitive-cell ions
   primitive index   ion index
                 1           1

----------------------------------------------------------------------------------------

 
 
 KPOINTS: KPOINTS created by Atomic Simulation Env

Automatic generation of k-mesh.
 Grid dimensions read from file:
 generate k-points for:    9    9    9

 Generating k-lattice:

  Cartesian coordinates                     Fractional coordinates (reciprocal lattice)
     0.029175645  0.000000000  0.000000000     0.111111111  0.000000000  0.000000000
     0.000000000  0.029175645  0.000000000     0.000000000  0.111111111  0.000000000
     0.000000000  0.000000000  0.029175645     0.000000000  0.000000000  0.111111111

  Length of vectors
     0.029175645  0.029175645  0.029175645

  Shift w.r.t. Gamma in fractional coordinates (k-lattice)
     0.000000000  0.000000000  0.000000000

 
 Subroutine IBZKPT returns following result:
 ===========================================
 
 Found     35 irreducible k-points:
 
 Following reciprocal coordinates:
            Coordinates               Weight
  0.000000  0.000000  0.000000      1.000000
  0.111111  0.000000  0.000000      6.000000
  0.222222  0.000000  0.000000      6.000000
  0.333333  0.000000  0.000000      6.000000
  0.444444  0.000000  0.000000      6.000000
  0.111111  0.111111  0.000000     12.000000
  0.222222  0.111111  0.000000     24.000000
  0.333333  0.111111  0.000000     24.000000
  0.444444  0.111111  0.000000     24.000000
  0.222222  0.222222  0.000000     12.000000
  0.333333  0.222222  0.000000     24.000000
  0.444444  0.222222  0.000000     24.000000
  0.333333  0.333333  0.000000     12.000000
  0.444444  0.333333  0.000000     24.000000
  0.444444  0.444444  0.000000     12.000000
  0.111111  0.111111  0.111111      8.000000
  0.222222  0.111111  0.111111     24.000000
  0.333333  0.111111  0.111111     24.000000
  0.444444  0.111111  0.111111     24.000000
  0.222222  0.222222  0.111111     24.000000
  0.333333  0.222222  0.111111     48.000000
  0.444444  0.222222  0.111111     48.000000
  0.333333  0.333333  0.111111     24.000000
  0.444444  0.333333  0.111111     48.000000
  0.444444  0.444444  0.111111     24.000000
  0.222222  0.222222  0.222222      8.000000
  0.333333  0.222222  0.222222     24.000000
  0.444444  0.222222  0.222222     24.000000
  0.333333  0.333333  0.222222     24.000000
  0.444444  0.333333  0.222222     48.000000
  0.444444  0.444444  0.222222     24.000000
  0.333333  0.333333  0.333333      8.000000
  0.444444  0.333333  0.333333     24.000000
  0.444444  0.444444  0.333333     24.000000
  0.444444  0.444444  0.444444      8.000000
 
 Following cartesian coordinates:
            Coordinates               Weight
  0.000000  0.000000  0.000000      1.000000
  0.029176  0.000000  0.000000      6.000000
  0.058351  0.000000  0.000000      6.000000
  0.087527  0.000000  0.000000      6.000000
  0.116703  0.000000  0.000000      6.000000
  0.029176  0.029176  0.000000     12.000000
  0.058351  0.029176  0.000000     24.000000
  0.087527  0.029176  0.000000     24.000000
  0.116703  0.029176  0.000000     24.000000
  0.058351  0.058351  0.000000     12.000000
  0.087527  0.058351  0.000000     24.000000
  0.116703  0.058351  0.000000     24.000000
  0.087527  0.087527  0.000000     12.000000
  0.116703  0.087527  0.000000     24.000000
  0.116703  0.116703  0.000000     12.000000
  0.029176  0.029176  0.029176      8.000000
  0.058351  0.029176  0.029176     24.000000
  0.087527  0.029176  0.029176     24.000000
  0.116703  0.029176  0.029176     24.000000
  0.058351  0.058351  0.029176     24.000000
  0.087527  0.058351  0.029176     48.000000
  0.116703  0.058351  0.029176     48.000000
  0.087527  0.087527  0.029176     24.000000
  0.116703  0.087527  0.029176     48.000000
  0.116703  0.116703  0.029176     24.000000
  0.058351  0.058351  0.058351      8.000000
  0.087527  0.058351  0.058351     24.000000
  0.116703  0.058351  0.058351     24.000000
  0.087527  0.087527  0.058351     24.000000
  0.116703  0.087527  0.058351     48.000000
  0.116703  0.116703  0.058351     24.000000
  0.087527  0.087527  0.087527      8.000000
  0.116703  0.087527  0.087527     24.000000
  0.116703  0.116703  0.087527     24.000000
  0.116703  0.116703  0.116703      8.000000
 


--------------------------------------------------------------------------------------------------------




 Dimension of arrays:
   k-points           NKPTS =     35   k-points in BZ     NKDIM =     35   number of bands    NBANDS=     30
   number of dos      NEDOS =    301   number of ions     NIONS =      4
   non local maximal  LDIM  =      6   non local SUM 2l+1 LMDIM =     18
   total plane-waves  NPLWV =   5832
   max r-space proj   IRMAX =      1   max aug-charges    IRDMAX=   3258
   dimension x,y,z NGX =    18 NGY =   18 NGZ =   18
   dimension x,y,z NGXF=    36 NGYF=   36 NGZF=   36
   support grid    NGXF=    36 NGYF=   36 NGZF=   36
   ions per type =               4
   NGX,Y,Z   is equivalent  to a cutoff of   7.86,  7.86,  7.86 a.u.
   NGXF,Y,Z  is equivalent  to a cutoff of  15.72, 15.72, 15.72 a.u.

 SYSTEM =  unknown system                          
 POSCAR =  Cu                                      

 Startparameter for this run:
   NWRITE =      2    write-flag & timer
   PREC   = normal    normal or accurate (medium, high low for compatibility)
   ISTART =      0    job   : 0-new  1-cont  2-samecut
   ICHARG =      1    charge: 1-file 2-atom 10-const
   ISPIN  =      1    spin polarized calculation?
   LNONCOLLINEAR =      F non collinear calculations
   LSORBIT =      F    spin-orbit coupling
   INIWAV =      1    electr: 0-lowe 1-rand  2-diag
   LASPH  =      F    aspherical Exc in radial PAW
   METAGGA=      F    non-selfconsistent MetaGGA calc.

 Electronic Relaxation 1
   ENCUT  =  320.0 eV  23.52 Ry    4.85 a.u.   5.55  5.55  5.55*2*pi/ulx,y,z
   ENINI  =  320.0     initial cutoff
   ENAUG  =  587.0 eV  augmentation charge cutoff
   NELM   =     60;   NELMIN=  2; NELMDL= -5     # of ELM steps 
   EDIFF  = 0.1E-05   stopping-criterion for ELM
   LREAL  =      F    real-space projection
   NLSPLINE    = F    spline interpolate recip. space projectors
   LCOMPAT=      F    compatible to vasp.4.4
   GGA_COMPAT  = T    GGA compatible to vasp.4.4-vasp.4.6
   LMAXPAW     = -100 max onsite density
   LMAXMIX     =    2 max onsite mixed and CHGCAR
   VOSKOWN=      0    Vosko Wilk Nusair interpolation
   ROPT   =    0.00000
 Ionic relaxation
   EDIFFG = 0.1E-04   stopping-criterion for IOM
   NSW    =      0    number of steps for IOM
   NBLOCK =      1;   KBLOCK =      1    inner block; outer block 
   IBRION =     -1    ionic relax: 0-MD 1-quasi-New 2-CG
   NFREE  =      0    steps in history (QN), initial steepest desc. (CG)
   ISIF   =      4    stress and relaxation
   IWAVPR =      0    prediction:  0-non 1-charg 2-wave 3-comb
   ISYM   =      2    0-nonsym 1-usesym 2-fastsym
   LCORR  =      T    Harris-Foulkes like correction to forces

   POTIM  = 0.5000    time-step for ionic-motion
   TEIN   =    0.0    initial temperature
   TEBEG  =    0.0;   TEEND  =   0.0 temperature during run
   SMASS  =  -3.00    Nose mass-parameter (am)
   estimated Nose-frequenzy (Omega)   =  0.10E-29 period in steps = 0.13E+47 mass=  -0.331E-27a.u.
   SCALEE = 1.0000    scale energy and forces
   NPACO  =    256;   APACO  = 16.0  distance and # of slots for P.C.
   PSTRESS=    0.0 pullay stress

  Mass of Ions in am
   POMASS =  63.55
  Ionic Valenz
   ZVAL   =  11.00
  Atomic Wigner-Seitz radii
   RWIGS  =  -1.00
  virtual crystal weights 
   VCA    =   1.00
   NELECT =      44.0000    total number of electrons
   NUPDOWN=      -1.0000    fix difference up-down

 DOS related values:
   EMIN   =  10.00;   EMAX   =-10.00  energy-range for DOS
   EFERMI =   0.00
   ISMEAR =     1;   SIGMA  =   0.20  broadening in eV -4-tet -1-fermi 0-gaus

 Electronic relaxation 2 (details)
   IALGO  =     38    algorithm
   LDIAG  =      T    sub-space diagonalisation (order eigenvalues)
   LSUBROT=      F    optimize rotation matrix (better conditioning)
   TURBO    =      0    0=normal 1=particle mesh
   IRESTART =      0    0=no restart 2=restart with 2 vectors
   NREBOOT  =      0    no. of reboots
   NMIN     =      0    reboot dimension
   EREF     =   0.00    reference energy to select bands
   IMIX   =      4    mixing-type and parameters
     AMIX     =   0.40;   BMIX     =  1.00
     AMIX_MAG =   1.60;   BMIX_MAG =  1.00
     AMIN     =   0.10
     WC   =   100.;   INIMIX=   1;  MIXPRE=   1;  MAXMIX= -45

 Intra band minimization:
   WEIMIN = 0.0000     energy-eigenvalue tresh-hold
   EBREAK =  0.83E-08  absolut break condition
   DEPER  =   0.30     relativ break condition  

   TIME   =   0.40     timestep for ELM

  volume/ion in A,a.u.               =      13.81        93.19
  Fermi-wavevector in a.u.,A,eV,Ry     =   1.517593  2.867835 31.335428  2.303089
  Thomas-Fermi vector in A             =   2.626828
 
 Write flags
   LWAVE        =      T    write WAVECAR
   LDOWNSAMPLE  =      F    k-point downsampling of WAVECAR
   LCHARG       =      T    write CHGCAR
   LVTOT        =      F    write LOCPOT, total local potential
   LVHAR        =      F    write LOCPOT, Hartree potential only
   LELF         =      F    write electronic localiz. function (ELF)
   LORBIT       =      0    0 simple, 1 ext, 2 COOP (PROOUT), +10 PAW based schemes


 Dipole corrections
   LMONO  =      F    monopole corrections only (constant potential shift)
   LDIPOL =      F    correct potential (dipole corrections)
   IDIPOL =      0    1-x, 2-y, 3-z, 4-all directions 
   EPSILON=  1.0000000 bulk dielectric constant

 Exchange correlation treatment:
   GGA     =    PE    GGA type
   LEXCH   =     8    internal setting for exchange type
   VOSKOWN=      0    Vosko Wilk Nusair interpolation
   LHFCALC =     F    Hartree Fock is set to
   LHFONE  =     F    Hartree Fock one center treatment
   AEXX    =    0.0000 exact exchange contribution

 Linear response parameters
   LEPSILON=     F    determine dielectric tensor
   LRPA    =     F    only Hartree local field effects (RPA)
   LNABLA  =     F    use nabla operator in PAW spheres
   LVEL    =     F    velocity operator in full k-point grid
   LINTERFAST=   F  fast interpolation
   KINTER  =     0    interpolate to denser k-point grid
   CSHIFT  =0.1000    complex shift for real part using Kramers Kronig
   OMEGAMAX=  -1.0    maximum frequency
   DEG_THRESHOLD= 0.2000000E-02 threshold for treating states as degnerate
   RTIME   =   -0.100 relaxation time in fs
  (WPLASMAI=    0.000 imaginary part of plasma frequency in eV, 0.658/RTIME)
   DFIELD  = 0.0000000 0.0000000 0.0000000 field for delta impulse in time
 
 Orbital magnetization related:
   ORBITALMAG=     F  switch on orbital magnetization
   LCHIMAG   =     F  perturbation theory with respect to B field
   DQ        =  0.001000  dq finite difference perturbation B field
   LLRAUG    =     F  two centre corrections for induced B field



--------------------------------------------------------------------------------------------------------


 Static calculation
 charge density and potential will be updated during run
 non-spin polarized calculation
 Variant of blocked Davidson
 Davidson routine will perform the subspace rotation
 perform sub-space diagonalisation
    after iterative eigenvector-optimisation
 modified Broyden-mixing scheme, WC =      100.0
 initial mixing is a Kerker type mixing with AMIX =  0.4000 and BMIX =      1.0000
 Hartree-type preconditioning will be used
 using additional bands            8
 reciprocal scheme for non local part
 use partial core corrections
 calculate Harris-corrections to forces 
   (improved forces if not selfconsistent)
 use gradient corrections 
 use of overlap-Matrix (Vanderbilt PP)
 Methfessel and Paxton  Order N= 1 SIGMA  =   0.20


--------------------------------------------------------------------------------------------------------


  energy-cutoff  :      320.00
  volume of cell :       55.23
      direct lattice vectors                 reciprocal lattice vectors
     3.808351526  0.000000000  0.000000000     0.262580803  0.000000000  0.000000000
     0.000000000  3.808351526  0.000000000     0.000000000  0.262580803  0.000000000
     0.000000000  0.000000000  3.808351526     0.000000000  0.000000000  0.262580803

  length of vectors
     3.808351526  3.808351526  3.808351526     0.262580803  0.262580803  0.262580803


 
 k-points in units of 2pi/SCALE and weight: KPOINTS created by Atomic Simulation Env
   0.00000000  0.00000000  0.00000000       0.001
   0.02917564  0.00000000  0.00000000       0.008
   0.05835129  0.00000000  0.00000000       0.008
   0.08752693  0.00000000  0.00000000       0.008
   0.11670258  0.00000000  0.00000000       0.008
   0.02917564  0.02917564  0.00000000       0.016
   0.05835129  0.02917564  0.00000000       0.033
   0.08752693  0.02917564  0.00000000       0.033
   0.11670258  0.02917564  0.00000000       0.033
   0.05835129  0.05835129  0.00000000       0.016
   0.08752693  0.05835129  0.00000000       0.033
   0.11670258  0.05835129  0.00000000       0.033
   0.08752693  0.08752693  0.00000000       0.016
   0.11670258  0.08752693  0.00000000       0.033
   0.11670258  0.11670258  0.00000000       0.016
   0.02917564  0.02917564  0.02917564       0.011
   0.05835129  0.02917564  0.02917564       0.033
   0.08752693  0.02917564  0.02917564       0.033
   0.11670258  0.02917564  0.02917564       0.033
   0.05835129  0.05835129  0.02917564       0.033
   0.08752693  0.05835129  0.02917564       0.066
   0.11670258  0.05835129  0.02917564       0.066
   0.08752693  0.08752693  0.02917564       0.033
   0.11670258  0.08752693  0.02917564       0.066
   0.11670258  0.11670258  0.02917564       0.033
   0.05835129  0.05835129  0.05835129       0.011
   0.08752693  0.05835129  0.05835129       0.033
   0.11670258  0.05835129  0.05835129       0.033
   0.08752693  0.08752693  0.05835129       0.033
   0.11670258  0.08752693  0.05835129       0.066
   0.11670258  0.11670258  0.05835129       0.033
   0.08752693  0.08752693  0.08752693       0.011
   0.11670258  0.08752693  0.08752693       0.033
   0.11670258  0.11670258  0.08752693       0.033
   0.11670258  0.11670258  0.11670258       0.011
 
 k-points in reciprocal lattice and weights: KPOINTS created by Atomic Simulation Env
   0.00000000  0.00000000  0.00000000       0.001
   0.11111111  0.00000000  0.00000000       0.008
   0.22222222  0.00000000  0.00000000       0.008
   0.33333333  0.00000000  0.00000000       0.008
   0.44444444  0.00000000  0.00000000       0.008
   0.11111111  0.11111111  0.00000000       0.016
   0.22222222  0.11111111  0.00000000       0.033
   0.33333333  0.11111111  0.00000000       0.033
   0.44444444  0.11111111  0.00000000       0.033
   0.22222222  0.22222222  0.00000000       0.016
   0.33333333  0.22222222  0.00000000       0.033
   0.44444444  0.22222222  0.00000000       0.033
   0.33333333  0.33333333  0.00000000       0.016
   0.44444444  0.33333333  0.00000000       0.033
   0.44444444  0.44444444  0.00000000       0.016
   0.11111111  0.11111111  0.11111111       0.011
   0.22222222  0.11111111  0.11111111       0.033
   0.33333333  0.11111111  0.11111111       0.033
   0.44444444  0.11111111  0.11111111       0.033
   0.22222222  0.22222222  0.11111111       0.033
   0.33333333  0.22222222  0.11111111       0.066
   0.44444444  0.22222222  0.11111111       0.066
   0.33333333  0.33333333  0.11111111       0.033
   0.44444444  0.33333333  0.11111111       0.066
   0.44444444  0.44444444  0.11111111       0.033
   0.22222222  0.22222222  0.22222222       0.011
   0.33333333  0.22222222  0.22222222       0.033
   0.44444444  0.22222222  0.22222222       0.033
   0.33333333  0.33333333  0.22222222       0.033
   0.44444444  0.33333333  0.22222222       0.066
   0.44444444  0.44444444  0.22222222       0.033
   0.33333333  0.33333333  0.33333333       0.011
   0.44444444  0.33333333  0.33333333       0.033
   0.44444444  0.44444444  0.33333333       0.033
   0.44444444  0.44444444  0.44444444       0.011
 
 position of ions in fractional coordinates (direct lattice) 
   0.00000000  0.00000000  0.00000000
   0.50000000  0.50000000  0.00000000
   0.50000000  0.00000000  0.50000000
   0.00000000  0.50000000  0.50000000
 
 position of ions in cartesian coordinates  (Angst):
   0.00000000  0.00000000  0.00000000
   1.90417576  1.90417576  0.00000000
   1.90417576  0.00000000  1.90417576
   0.00000000  1.90417576  1.90417576
 


--------------------------------------------------------------------------------------------------------


 k-point   1 :   0.0000 0.0000 0.0000  plane waves:     739
 k-point   2 :   0.1111 0.0000 0.0000  plane waves:     731
 k-point   3 :   0.2222 0.0000 0.0000  plane waves:     727
 k-point   4 :   0.3333 0.0000 0.0000  plane waves:     723
 k-point   5 :   0.4444 0.0000 0.0000  plane waves:     711
 k-point   6 :   0.1111 0.1111 0.0000  plane waves:     728
 k-point   7 :   0.2222 0.1111 0.0000  plane waves:     720
 k-point   8 :   0.3333 0.1111 0.0000  plane waves:     721
 k-point   9 :   0.4444 0.1111 0.0000  plane waves:     718
 k-point  10 :   0.2222 0.2222 0.0000  plane waves:     714
 k-point  11 :   0.3333 0.2222 0.0000  plane waves:     723
 k-point  12 :   0.4444 0.2222 0.0000  plane waves:     721
 k-point  13 :   0.3333 0.3333 0.0000  plane waves:     714
 k-point  14 :   0.4444 0.3333 0.0000  plane waves:     716
 k-point  15 :   0.4444 0.4444 0.0000  plane waves:     716
 k-point  16 :   0.1111 0.1111 0.1111  plane waves:     718
 k-point  17 :   0.2222 0.1111 0.1111  plane waves:     722
 k-point  18 :   0.3333 0.1111 0.1111  plane waves:     723
 k-point  19 :   0.4444 0.1111 0.1111  plane waves:     725
 k-point  20 :   0.2222 0.2222 0.1111  plane waves:     718
 k-point  21 :   0.3333 0.2222 0.1111  plane waves:     719
 k-point  22 :   0.4444 0.2222 0.1111  plane waves:     715
 k-point  23 :   0.3333 0.3333 0.1111  plane waves:     722
 k-point  24 :   0.4444 0.3333 0.1111  plane waves:     714
 k-point  25 :   0.4444 0.4444 0.1111  plane waves:     721
 k-point  26 :   0.2222 0.2222 0.2222  plane waves:     717
 k-point  27 :   0.3333 0.2222 0.2222  plane waves:     720
 k-point  28 :   0.4444 0.2222 0.2222  plane waves:     727
 k-point  29 :   0.3333 0.3333 0.2222  plane waves:     722
 k-point  30 :   0.4444 0.3333 0.2222  plane waves:     711
 k-point  31 :   0.4444 0.4444 0.2222  plane waves:     711
 k-point  32 :   0.3333 0.3333 0.3333  plane waves:     717
 k-point  33 :   0.4444 0.3333 0.3333  plane waves:     707
 k-point  34 :   0.4444 0.4444 0.3333  plane waves:     704
 k-point  35 :   0.4444 0.4444 0.4444  plane waves:     696

 maximum number of plane-waves:       739
 maximum index in each direction: 
   IXMAX=    5   IYMAX=    5   IZMAX=    5
   IXMIN=   -5   IYMIN=   -5   IZMIN=   -5


 total amount of memory used by VASP MPI-rank0    50017. kBytes
=======================================================================

   base      :      30000. kBytes
   nonl-proj :       3771. kBytes
   grid      :       2560. kBytes
   one-center:         62. kBytes
   wavefun   :      13624. kBytes
 
     INWAV:  cpu time    0.0000: real time    0.0000
 Broyden mixing: mesh for mixing (old mesh)
   NGX = 11   NGY = 11   NGZ = 11
  (NGX  = 36   NGY  = 36   NGZ  = 36)
  gives a total of   1331 points

 initial charge density was supplied:
 charge density of overlapping atoms calculated
 number of electron      44.0000000 magnetization 
 keeping initial charge density in first step


--------------------------------------------------------------------------------------------------------


 Maximum index for augmentation-charges         2945 (set IRDMAX)


--------------------------------------------------------------------------------------------------------


 First call to EWALD:  gamma=   0.465
 Maximum number of real-space cells 3x 3x 3
 Maximum number of reciprocal cells 3x 3x 3

    FEWALD:  cpu time    0.0009: real time    0.0009


--------------------------------------- Iteration      1(   1)  ---------------------------------------


    POTLOK:  cpu time    0.0111: real time    0.0111
    SETDIJ:  cpu time    0.0039: real time    0.0039
     EDDAV:  cpu time    0.5707: real time    0.5939
       DOS:  cpu time    0.0024: real time    0.0024
    --------------------------------------------
      LOOP:  cpu time    0.5882: real time    0.6114

 eigenvalue-minimisations  :  2188
 total energy-change (2. order) : 0.2883917E+03  (-0.1454692E+04)
 number of electron      44.0000000 magnetization 
 augmentation part       44.0000000 magnetization 

 Free energy of the ion-electron system (eV)
  ---------------------------------------------------
  alpha Z        PSCENC =       211.84641552
  Ewald energy   TEWEN  =     -4195.27747664
  -Hartree energ DENC   =     -1571.46164344
  -exchange      EXHF   =         0.00000000
  -V(xc)+E(xc)   XCENC  =       181.53072870
  PAW double counting   =      4912.82663951    -5336.19386850
  entropy T*S    EENTRO =        -0.00072616
  eigenvalues    EBANDS =       521.34554411
  atomic energy  EATOM  =      5563.77610493
  Solvation  Ediel_sol  =         0.00000000
  ---------------------------------------------------
  free energy    TOTEN  =       288.39171802 eV

  energy without entropy =      288.39244418  energy(sigma->0) =      288.39196007


--------------------------------------------------------------------------------------------------------




--------------------------------------- Iteration      1(   2)  ---------------------------------------


     EDDAV:  cpu time    0.5451: real time    0.5451
       DOS:  cpu time    0.0027: real time    0.0027
    --------------------------------------------
      LOOP:  cpu time    0.5478: real time    0.5478

 eigenvalue-minimisations  :  2100
 total energy-change (2. order) :-0.2842896E+03  (-0.2743414E+03)
 number of electron      44.0000000 magnetization 
 augmentation part       44.0000000 magnetization 

 Free energy of the ion-electron system (eV)
  ---------------------------------------------------
  alpha Z        PSCENC =       211.84641552
  Ewald energy   TEWEN  =     -4195.27747664
  -Hartree energ DENC   =     -1571.46164344
  -exchange      EXHF   =         0.00000000
  -V(xc)+E(xc)   XCENC  =       181.53072870
  PAW double counting   =      4912.82663951    -5336.19386850
  entropy T*S    EENTRO =         0.00461307
  eigenvalues    EBANDS =       237.05057560
  atomic energy  EATOM  =      5563.77610493
  Solvation  Ediel_sol  =         0.00000000
  ---------------------------------------------------
  free energy    TOTEN  =         4.10208874 eV

  energy without entropy =        4.09747567  energy(sigma->0) =        4.10055105


--------------------------------------------------------------------------------------------------------




--------------------------------------- Iteration      1(   3)  ---------------------------------------


     EDDAV:  cpu time    0.5824: real time    0.5824
       DOS:  cpu time    0.0030: real time    0.0030
    --------------------------------------------
      LOOP:  cpu time    0.5853: real time    0.5853

 eigenvalue-minimisations  :  2346
 total energy-change (2. order) :-0.2151315E+02  (-0.2027509E+02)
 number of electron      44.0000000 magnetization 
 augmentation part       44.0000000 magnetization 

 Free energy of the ion-electron system (eV)
  ---------------------------------------------------
  alpha Z        PSCENC =       211.84641552
  Ewald energy   TEWEN  =     -4195.27747664
  -Hartree energ DENC   =     -1571.46164344
  -exchange      EXHF   =         0.00000000
  -V(xc)+E(xc)   XCENC  =       181.53072870
  PAW double counting   =      4912.82663951    -5336.19386850
  entropy T*S    EENTRO =        -0.00263731
  eigenvalues    EBANDS =       215.54467770
  atomic energy  EATOM  =      5563.77610493
  Solvation  Ediel_sol  =         0.00000000
  ---------------------------------------------------
  free energy    TOTEN  =       -17.41105954 eV

  energy without entropy =      -17.40842223  energy(sigma->0) =      -17.41018044


--------------------------------------------------------------------------------------------------------




--------------------------------------- Iteration      1(   4)  ---------------------------------------


     EDDAV:  cpu time    0.5904: real time    0.5904
       DOS:  cpu time    0.0029: real time    0.0029
    --------------------------------------------
      LOOP:  cpu time    0.5933: real time    0.5933

 eigenvalue-minimisations  :  2372
 total energy-change (2. order) :-0.4176235E+00  (-0.4171728E+00)
 number of electron      44.0000000 magnetization 
 augmentation part       44.0000000 magnetization 

 Free energy of the ion-electron system (eV)
  ---------------------------------------------------
  alpha Z        PSCENC =       211.84641552
  Ewald energy   TEWEN  =     -4195.27747664
  -Hartree energ DENC   =     -1571.46164344
  -exchange      EXHF   =         0.00000000
  -V(xc)+E(xc)   XCENC  =       181.53072870
  PAW double counting   =      4912.82663951    -5336.19386850
  entropy T*S    EENTRO =        -0.00265269
  eigenvalues    EBANDS =       215.12706954
  atomic energy  EATOM  =      5563.77610493
  Solvation  Ediel_sol  =         0.00000000
  ---------------------------------------------------
  free energy    TOTEN  =       -17.82868308 eV

  energy without entropy =      -17.82603039  energy(sigma->0) =      -17.82779885


--------------------------------------------------------------------------------------------------------




--------------------------------------- Iteration      1(   5)  ---------------------------------------


     EDDAV:  cpu time    0.6889: real time    0.6889
       DOS:  cpu time    0.0030: real time    0.0030
    CHARGE:  cpu time    0.0446: real time    0.0446
    MIXING:  cpu time    0.0003: real time    0.0003
    --------------------------------------------
      LOOP:  cpu time    0.7369: real time    0.7369

 eigenvalue-minimisations  :  2862
 total energy-change (2. order) :-0.4277493E-02  (-0.4277396E-02)
 number of electron      43.9999081 magnetization 
 augmentation part       26.0698112 magnetization 

 Broyden mixing:
  rms(total) = 0.14625E+01    rms(broyden)= 0.14622E+01
  rms(prec ) = 0.33752E+01
  weight for this iteration     100.00

 Free energy of the ion-electron system (eV)
  ---------------------------------------------------
  alpha Z        PSCENC =       211.84641552
  Ewald energy   TEWEN  =     -4195.27747664
  -Hartree energ DENC   =     -1571.46164344
  -exchange      EXHF   =         0.00000000
  -V(xc)+E(xc)   XCENC  =       181.53072870
  PAW double counting   =      4912.82663951    -5336.19386850
  entropy T*S    EENTRO =        -0.00265236
  eigenvalues    EBANDS =       215.12279172
  atomic energy  EATOM  =      5563.77610493
  Solvation  Ediel_sol  =         0.00000000
  ---------------------------------------------------
  free energy    TOTEN  =       -17.83296058 eV

  energy without entropy =      -17.83030822  energy(sigma->0) =      -17.83207646


--------------------------------------------------------------------------------------------------------




--------------------------------------- Iteration      1(   6)  ---------------------------------------


    POTLOK:  cpu time    0.0104: real time    0.0104
    SETDIJ:  cpu time    0.0040: real time    0.0040
     EDDAV:  cpu time    0.5713: real time    0.5713
       DOS:  cpu time    0.0028: real time    0.0028
    CHARGE:  cpu time    0.0446: real time    0.0446
    MIXING:  cpu time    0.0004: real time    0.0004
    --------------------------------------------
      LOOP:  cpu time    0.6335: real time    0.6336

 eigenvalue-minimisations  :  2286
 total energy-change (2. order) : 0.1412061E+01  (-0.3212804E+01)
 number of electron      43.9998972 magnetization 
 augmentation part       29.5528188 magnetization 

 Broyden mixing:
  rms(total) = 0.91739E+00    rms(broyden)= 0.91685E+00
  rms(prec ) = 0.19251E+01
  weight for this iteration     100.00

 eigenvalues of (default mixing * dielectric matrix)
  average eigenvalue GAMMA=   0.6145
  0.6145

 Free energy of the ion-electron system (eV)
  ---------------------------------------------------
  alpha Z        PSCENC =       211.84641552
  Ewald energy   TEWEN  =     -4195.27747664
  -Hartree energ DENC   =     -1457.68825998
  -exchange      EXHF   =         0.00000000
  -V(xc)+E(xc)   XCENC  =       175.99441371
  PAW double counting   =      4896.65882372    -5296.54196378
  entropy T*S    EENTRO =         0.00069609
  eigenvalues    EBANDS =        84.81034732
  atomic energy  EATOM  =      5563.77610493
  Solvation  Ediel_sol  =         0.00000000
  ---------------------------------------------------
  free energy    TOTEN  =       -16.42089911 eV

  energy without entropy =      -16.42159521  energy(sigma->0) =      -16.42113115


--------------------------------------------------------------------------------------------------------




--------------------------------------- Iteration      1(   7)  ---------------------------------------


    POTLOK:  cpu time    0.0105: real time    0.0105
    SETDIJ:  cpu time    0.0039: real time    0.0039
     EDDAV:  cpu time    0.5987: real time    0.5987
       DOS:  cpu time    0.0028: real time    0.0028
    CHARGE:  cpu time    0.0441: real time    0.0441
    MIXING:  cpu time    0.0004: real time    0.0004
    --------------------------------------------
      LOOP:  cpu time    0.6604: real time    0.6604

 eigenvalue-minimisations  :  2372
 total energy-change (2. order) : 0.1804598E+01  (-0.6707092E+00)
 number of electron      43.9999016 magnetization 
 augmentation part       28.1677240 magnetization 

 Broyden mixing:
  rms(total) = 0.75896E-01    rms(broyden)= 0.75451E-01
  rms(prec ) = 0.18008E+00
  weight for this iteration     100.00

 eigenvalues of (default mixing * dielectric matrix)
  average eigenvalue GAMMA=   1.2802
  1.9438  0.6167

 Free energy of the ion-electron system (eV)
  ---------------------------------------------------
  alpha Z        PSCENC =       211.84641552
  Ewald energy   TEWEN  =     -4195.27747664
  -Hartree energ DENC   =     -1497.14386479
  -exchange      EXHF   =         0.00000000
  -V(xc)+E(xc)   XCENC  =       178.02688033
  PAW double counting   =      4979.34881631    -5398.30234356
  entropy T*S    EENTRO =         0.00324659
  eigenvalues    EBANDS =       143.10591976
  atomic energy  EATOM  =      5563.77610493
  Solvation  Ediel_sol  =         0.00000000
  ---------------------------------------------------
  free energy    TOTEN  =       -14.61630156 eV

  energy without entropy =      -14.61954815  energy(sigma->0) =      -14.61738376


--------------------------------------------------------------------------------------------------------




--------------------------------------- Iteration      1(   8)  ---------------------------------------


    POTLOK:  cpu time    0.0105: real time    0.0105
    SETDIJ:  cpu time    0.0040: real time    0.0040
     EDDAV:  cpu time    0.6783: real time    0.6783
       DOS:  cpu time    0.0027: real time    0.0027
    CHARGE:  cpu time    0.0429: real time    0.0429
    MIXING:  cpu time    0.0004: real time    0.0004
    --------------------------------------------
      LOOP:  cpu time    0.7387: real time    0.7387

 eigenvalue-minimisations  :  2800
 total energy-change (2. order) : 0.1070010E-01  (-0.1248957E-01)
 number of electron      43.9999021 magnetization 
 augmentation part       28.0440361 magnetization 

 Broyden mixing:
  rms(total) = 0.91425E-01    rms(broyden)= 0.91389E-01
  rms(prec ) = 0.21600E+00
  weight for this iteration     100.00

 eigenvalues of (default mixing * dielectric matrix)
  average eigenvalue GAMMA=   1.3238
  0.6548  0.8519  2.4647

 Free energy of the ion-electron system (eV)
  ---------------------------------------------------
  alpha Z        PSCENC =       211.84641552
  Ewald energy   TEWEN  =     -4195.27747664
  -Hartree energ DENC   =     -1491.03509861
  -exchange      EXHF   =         0.00000000
  -V(xc)+E(xc)   XCENC  =       177.83043446
  PAW double counting   =      5069.58741310    -5497.05771057
  entropy T*S    EENTRO =         0.00331683
  eigenvalues    EBANDS =       145.72099953
  atomic energy  EATOM  =      5563.77610493
  Solvation  Ediel_sol  =         0.00000000
  ---------------------------------------------------
  free energy    TOTEN  =       -14.60560146 eV

  energy without entropy =      -14.60891829  energy(sigma->0) =      -14.60670707


--------------------------------------------------------------------------------------------------------




--------------------------------------- Iteration      1(   9)  ---------------------------------------


    POTLOK:  cpu time    0.0102: real time    0.0102
    SETDIJ:  cpu time    0.0038: real time    0.0038
     EDDAV:  cpu time    0.5786: real time    0.5786
       DOS:  cpu time    0.0027: real time    0.0027
    CHARGE:  cpu time    0.0426: real time    0.0426
    MIXING:  cpu time    0.0005: real time    0.0005
    --------------------------------------------
      LOOP:  cpu time    0.6384: real time    0.6385

 eigenvalue-minimisations  :  2414
 total energy-change (2. order) : 0.1439206E-01  (-0.4327988E-02)
 number of electron      43.9999016 magnetization 
 augmentation part       28.1762882 magnetization 

 Broyden mixing:
  rms(total) = 0.58526E-02    rms(broyden)= 0.58027E-02
  rms(prec ) = 0.11961E-01
  weight for this iteration     100.00

 eigenvalues of (default mixing * dielectric matrix)
  average eigenvalue GAMMA=   1.5595
  0.6499  0.9027  2.6787  2.0066

 Free energy of the ion-electron system (eV)
  ---------------------------------------------------
  alpha Z        PSCENC =       211.84641552
  Ewald energy   TEWEN  =     -4195.27747664
  -Hartree energ DENC   =     -1484.07536645
  -exchange      EXHF   =         0.00000000
  -V(xc)+E(xc)   XCENC  =       177.52201630
  PAW double counting   =      5090.78898996    -5519.39174164
  entropy T*S    EENTRO =         0.00314700
  eigenvalues    EBANDS =       140.21670163
  atomic energy  EATOM  =      5563.77610493
  Solvation  Ediel_sol  =         0.00000000
  ---------------------------------------------------
  free energy    TOTEN  =       -14.59120940 eV

  energy without entropy =      -14.59435640  energy(sigma->0) =      -14.59225840


--------------------------------------------------------------------------------------------------------




--------------------------------------- Iteration      1(  10)  ---------------------------------------


    POTLOK:  cpu time    0.0103: real time    0.0103
    SETDIJ:  cpu time    0.0039: real time    0.0039
     EDDAV:  cpu time    0.6352: real time    0.6353
       DOS:  cpu time    0.0027: real time    0.0027
    CHARGE:  cpu time    0.0441: real time    0.0441
    MIXING:  cpu time    0.0005: real time    0.0005
    --------------------------------------------
      LOOP:  cpu time    0.6968: real time    0.6968

 eigenvalue-minimisations  :  2688
 total energy-change (2. order) :-0.8921930E-04  (-0.1090211E-03)
 number of electron      43.9999017 magnetization 
 augmentation part       28.1693085 magnetization 

 Broyden mixing:
  rms(total) = 0.12328E-02    rms(broyden)= 0.12322E-02
  rms(prec ) = 0.15143E-02
  weight for this iteration     100.00

 eigenvalues of (default mixing * dielectric matrix)
  average eigenvalue GAMMA=   1.4667
  2.5214  2.5214  0.8812  0.6477  0.7618

 Free energy of the ion-electron system (eV)
  ---------------------------------------------------
  alpha Z        PSCENC =       211.84641552
  Ewald energy   TEWEN  =     -4195.27747664
  -Hartree energ DENC   =     -1484.52312580
  -exchange      EXHF   =         0.00000000
  -V(xc)+E(xc)   XCENC  =       177.54336672
  PAW double counting   =      5087.24633378    -5515.71931759
  entropy T*S    EENTRO =         0.00316677
  eigenvalues    EBANDS =       140.51323370
  atomic energy  EATOM  =      5563.77610493
  Solvation  Ediel_sol  =         0.00000000
  ---------------------------------------------------
  free energy    TOTEN  =       -14.59129862 eV

  energy without entropy =      -14.59446539  energy(sigma->0) =      -14.59235421


--------------------------------------------------------------------------------------------------------




--------------------------------------- Iteration      1(  11)  ---------------------------------------


    POTLOK:  cpu time    0.0106: real time    0.0106
    SETDIJ:  cpu time    0.0040: real time    0.0040
     EDDAV:  cpu time    0.5963: real time    0.5963
       DOS:  cpu time    0.0027: real time    0.0027
    CHARGE:  cpu time    0.0440: real time    0.0440
    MIXING:  cpu time    0.0005: real time    0.0005
    --------------------------------------------
      LOOP:  cpu time    0.6581: real time    0.6582

 eigenvalue-minimisations  :  2400
 total energy-change (2. order) : 0.4505773E-06  (-0.2706276E-05)
 number of electron      43.9999017 magnetization 
 augmentation part       28.1700681 magnetization 

 Broyden mixing:
  rms(total) = 0.64501E-03    rms(broyden)= 0.64475E-03
  rms(prec ) = 0.15901E-02
  weight for this iteration     100.00

 eigenvalues of (default mixing * dielectric matrix)
  average eigenvalue GAMMA=   1.4975
  2.6289  2.5005  0.6491  0.9497  1.0284  1.2286

 Free energy of the ion-electron system (eV)
  ---------------------------------------------------
  alpha Z        PSCENC =       211.84641552
  Ewald energy   TEWEN  =     -4195.27747664
  -Hartree energ DENC   =     -1484.68242150
  -exchange      EXHF   =         0.00000000
  -V(xc)+E(xc)   XCENC  =       177.55035901
  PAW double counting   =      5083.87082708    -5512.18075185
  entropy T*S    EENTRO =         0.00316550
  eigenvalues    EBANDS =       140.50247978
  atomic energy  EATOM  =      5563.77610493
  Solvation  Ediel_sol  =         0.00000000
  ---------------------------------------------------
  free energy    TOTEN  =       -14.59129817 eV

  energy without entropy =      -14.59446367  energy(sigma->0) =      -14.59235334


--------------------------------------------------------------------------------------------------------




--------------------------------------- Iteration      1(  12)  ---------------------------------------


    POTLOK:  cpu time    0.0105: real time    0.0105
    SETDIJ:  cpu time    0.0039: real time    0.0039
     EDDAV:  cpu time    0.4087: real time    0.4088
       DOS:  cpu time    0.0026: real time    0.0026
    CHARGE:  cpu time    0.0451: real time    0.0502
    MIXING:  cpu time    0.0005: real time    0.0005
    --------------------------------------------
      LOOP:  cpu time    0.4715: real time    0.4765

 eigenvalue-minimisations  :  1414
 total energy-change (2. order) :-0.2466505E-05  (-0.6562041E-07)
 number of electron      43.9999017 magnetization 
 augmentation part       28.1705563 magnetization 

 Broyden mixing:
  rms(total) = 0.76278E-04    rms(broyden)= 0.75944E-04
  rms(prec ) = 0.11512E-03
  weight for this iteration     100.00

 eigenvalues of (default mixing * dielectric matrix)
  average eigenvalue GAMMA=   1.5965
  2.7540  2.4379  2.4379  0.6492  0.9292  0.9836  0.9836

 Free energy of the ion-electron system (eV)
  ---------------------------------------------------
  alpha Z        PSCENC =       211.84641552
  Ewald energy   TEWEN  =     -4195.27747664
  -Hartree energ DENC   =     -1484.59359635
  -exchange      EXHF   =         0.00000000
  -V(xc)+E(xc)   XCENC  =       177.54673350
  PAW double counting   =      5084.42037258    -5512.78663483
  entropy T*S    EENTRO =         0.00316392
  eigenvalues    EBANDS =       140.47361674
  atomic energy  EATOM  =      5563.77610493
  Solvation  Ediel_sol  =         0.00000000
  ---------------------------------------------------
  free energy    TOTEN  =       -14.59130064 eV

  energy without entropy =      -14.59446456  energy(sigma->0) =      -14.59235528


--------------------------------------------------------------------------------------------------------




--------------------------------------- Iteration      1(  13)  ---------------------------------------


    POTLOK:  cpu time    0.0103: real time    0.0103
    SETDIJ:  cpu time    0.0038: real time    0.0038
     EDDAV:  cpu time    0.3819: real time    0.3820
       DOS:  cpu time    0.0026: real time    0.0026
    --------------------------------------------
      LOOP:  cpu time    0.3986: real time    0.3986

 eigenvalue-minimisations  :  1308
 total energy-change (2. order) :-0.3838086E-06  (-0.2639996E-07)
 number of electron      43.9999017 magnetization 
 augmentation part       28.1705563 magnetization 

 Free energy of the ion-electron system (eV)
  ---------------------------------------------------
  alpha Z        PSCENC =       211.84641552
  Ewald energy   TEWEN  =     -4195.27747664
  -Hartree energ DENC   =     -1484.59144229
  -exchange      EXHF   =         0.00000000
  -V(xc)+E(xc)   XCENC  =       177.54656539
  PAW double counting   =      5084.34411569    -5512.71254488
  entropy T*S    EENTRO =         0.00316391
  eigenvalues    EBANDS =       140.47379735
  atomic energy  EATOM  =      5563.77610493
  Solvation  Ediel_sol  =         0.00000000
  ---------------------------------------------------
  free energy    TOTEN  =       -14.59130102 eV

  energy without entropy =      -14.59446493  energy(sigma->0) =      -14.59235566


--------------------------------------------------------------------------------------------------------




 average (electrostatic) potential at core
  the test charge radii are     0.9430
  (the norm of the test charge is              1.0000)
       1 -65.1522       2 -65.1522       3 -65.1522       4 -65.1522
 
 
 
 E-fermi :   5.7201     XC(G=0): -11.8452     alpha+bet :-11.4815

 Fermi energy:         5.7201198374

 k-point     1 :       0.0000    0.0000    0.0000
  band No.  band energies     occupation 
      1      -2.4279      2.00000
      2       1.7541      2.00000
      3       1.7541      2.00000
      4       1.7541      2.00000
      5       2.1166      2.00000
      6       2.1166      2.00000
      7       2.1166      2.00000
      8       3.2064      2.00000
      9       3.2064      2.00000
     10       3.2064      2.00000
     11       3.8555      2.00000
     12       3.8555      2.00000
     13       4.2883      2.00000
     14       4.2883      2.00000
     15       4.2883      2.00000
     16       4.4099      2.00000
     17       4.4099      2.00000
     18       4.4099      2.00000
     19       4.4099      2.00000
     20       4.4099      2.00000
     21       4.4099      2.00000
     22       7.4128     -0.00000
     23       7.4128     -0.00000
     24       7.4128     -0.00000
     25      11.8812      0.00000
     26      11.8812      0.00000
     27      11.8812      0.00000
     28      17.7208      0.00000
     29      17.7208      0.00000
     30      17.7208      0.00000

 k-point     2 :       0.1111    0.0000    0.0000
  band No.  band energies     occupation 
      1      -2.2937      2.00000
      2       1.7464      2.00000
      3       1.8116      2.00000
      4       1.8116      2.00000
      5       2.1481      2.00000
      6       2.1503      2.00000
      7       2.1503      2.00000
      8       3.1722      2.00000
      9       3.2346      2.00000
     10       3.2346      2.00000
     11       3.8246      2.00000
     12       3.8683      2.00000
     13       4.2274      2.00000
     14       4.2274      2.00000
     15       4.2484      2.00000
     16       4.2484      2.00000
     17       4.2750      2.00000
     18       4.3626      2.00000
     19       4.3626      2.00000
     20       4.4100      2.00000
     21       4.4100      2.00000
     22       6.5582     -0.00000
     23       7.7192     -0.00000
     24       7.7192     -0.00000
     25      11.9390      0.00000
     26      11.9390      0.00000
     27      13.0153      0.00000
     28      16.8741      0.00000
     29      16.8743      0.00000
     30      17.1104      0.00000

 k-point     3 :       0.2222    0.0000    0.0000
  band No.  band energies     occupation 
      1      -1.8956      2.00000
      2       1.6711      2.00000
      3       1.9689      2.00000
      4       1.9689      2.00000
      5       2.2395      2.00000
      6       2.2525      2.00000
      7       2.2525      2.00000
      8       3.0742      2.00000
      9       3.3178      2.00000
     10       3.3178      2.00000
     11       3.7384      2.00000
     12       3.8263      2.00000
     13       3.8263      2.00000
     14       3.9052      2.00000
     15       4.1353      2.00000
     16       4.1353      2.00000
     17       4.2317      2.00000
     18       4.2317      2.00000
     19       4.2369      2.00000
     20       4.4101      2.00000
     21       4.4101      2.00000
     22       5.1163      2.00017
     23       8.4906     -0.00000
     24       8.4906     -0.00000
     25      12.1210      0.00000
     26      12.1210      0.00000
     27      15.3128      0.00000
     28      15.3128      0.00000
     29      15.3411      0.00000
     30      15.9028      0.00000

 k-point     4 :       0.3333    0.0000    0.0000
  band No.  band energies     occupation 
      1      -1.2496      2.00000
      2       1.3319      2.00000
      3       2.1767      2.00000
      4       2.1767      2.00000
      5       2.3809      2.00000
      6       2.4254      2.00000
      7       2.4254      2.00000
      8       2.9255      2.00000
      9       3.3898      2.00000
     10       3.3898      2.00000
     11       3.4521      2.00000
     12       3.4521      2.00000
     13       3.6193      2.00000
     14       3.9621      2.00000
     15       3.9780      2.00000
     16       3.9780      2.00000
     17       4.0086      2.00000
     18       4.0444      2.00000
     19       4.0444      2.00000
     20       4.1786      2.00000
     21       4.4104      2.00000
     22       4.4104      2.00000
     23       9.5396     -0.00000
     24       9.5396     -0.00000
     25      12.4521      0.00000
     26      12.4521      0.00000
     27      13.6995      0.00000
     28      13.6995      0.00000
     29      14.7093      0.00000
     30      14.7093      0.00000

 k-point     5 :       0.4444    0.0000    0.0000
  band No.  band energies     occupation 
      1      -0.3957      2.00000
      2       0.5571      2.00000
      3       2.3394      2.00000
      4       2.3394      2.00000
      5       2.5560      2.00000
      6       2.6734      2.00000
      7       2.6734      2.00000
      8       2.7452      2.00000
      9       2.9970      2.00000
     10       2.9970      2.00000
     11       3.5176      2.00000
     12       3.5532      2.00000
     13       3.6288      2.00000
     14       3.6288      2.00000
     15       3.8335      2.00000
     16       3.8335      2.00000
     17       3.8488      2.00000
     18       3.8488      2.00000
     19       4.0322      2.00000
     20       4.1074      2.00000
     21       4.4107      2.00000
     22       4.4107      2.00000
     23      10.7801     -0.00000
     24      10.7801     -0.00000
     25      12.1751      0.00000
     26      12.1751      0.00000
     27      12.9653      0.00000
     28      12.9653      0.00000
     29      13.7270      0.00000
     30      13.7270      0.00000

 k-point     6 :       0.1111    0.1111    0.0000
  band No.  band energies     occupation 
      1      -2.1604      2.00000
      2       1.8067      2.00000
      3       1.8067      2.00000
      4       1.8663      2.00000
      5       2.1807      2.00000
      6       2.1807      2.00000
      7       2.1822      2.00000
      8       3.1544      2.00000
      9       3.2477      2.00000
     10       3.2577      2.00000
     11       3.8169      2.00000
     12       3.8630      2.00000
     13       4.1028      2.00000
     14       4.1382      2.00000
     15       4.1382      2.00000
     16       4.2115      2.00000
     17       4.2623      2.00000
     18       4.2623      2.00000
     19       4.3625      2.00000
     20       4.3625      2.00000
     21       4.3791      2.00000
     22       6.8523     -0.00000
     23       6.8523     -0.00000
     24       7.9990     -0.00000
     25      11.9991      0.00000
     26      13.0996      0.00000
     27      13.0996      0.00000
     28      15.2848      0.00000
     29      17.0480      0.00000
     30      17.0508      0.00000

 k-point     7 :       0.2222    0.1111    0.0000
  band No.  band energies     occupation 
      1      -1.7651      2.00000
      2       1.7405      2.00000
      3       1.9725      2.00000
      4       2.0159      2.00000
      5       2.2689      2.00000
      6       2.2779      2.00000
      7       2.2796      2.00000
      8       3.0684      2.00000
      9       3.3225      2.00000
     10       3.3236      2.00000
     11       3.7347      2.00000
     12       3.7466      2.00000
     13       3.7622      2.00000
     14       3.9016      2.00000
     15       3.9390      2.00000
     16       4.1061      2.00000
     17       4.1450      2.00000
     18       4.2275      2.00000
     19       4.2311      2.00000
     20       4.3621      2.00000
     21       4.3629      2.00000
     22       5.4554      2.06830
     23       7.5491     -0.00000
     24       8.7271     -0.00000
     25      12.1876      0.00000
     26      13.3608      0.00000
     27      13.5921      0.00000
     28      15.4421      0.00000
     29      15.4763      0.00000
     30      16.0542      0.00000

 k-point     8 :       0.3333    0.1111    0.0000
  band No.  band energies     occupation 
      1      -1.1243      2.00000
      2       1.4171      2.00000
      3       2.1937      2.00000
      4       2.2179      2.00000
      5       2.4049      2.00000
      6       2.4338      2.00000
      7       2.4464      2.00000
      8       2.9277      2.00000
      9       3.3083      2.00000
     10       3.3629      2.00000
     11       3.4065      2.00000
     12       3.4539      2.00000
     13       3.6209      2.00000
     14       3.6651      2.00000
     15       3.9592      2.00000
     16       3.9724      2.00000
     17       3.9885      2.00000
     18       4.0434      2.00000
     19       4.1310      2.00000
     20       4.3596      2.00000
     21       4.3614      2.00000
     22       4.5051      2.00000
     23       8.4529     -0.00000
     24       9.7438     -0.00000
     25      12.0518      0.00000
     26      12.5312      0.00000
     27      13.8173      0.00000
     28      13.8631      0.00000
     29      14.8470      0.00000
     30      16.5621      0.00000

 k-point     9 :       0.4444    0.1111    0.0000
  band No.  band energies     occupation 
      1      -0.2791      2.00000
      2       0.6600      2.00000
      3       2.3742      2.00000
      4       2.3847      2.00000
      5       2.5737      2.00000
      6       2.6432      2.00000
      7       2.6844      2.00000
      8       2.7553      2.00000
      9       2.9348      2.00000
     10       2.9932      2.00000
     11       3.4050      2.00000
     12       3.4058      2.00000
     13       3.6291      2.00000
     14       3.7207      2.00000
     15       3.8330      2.00000
     16       3.8421      2.00000
     17       3.8542      2.00000
     18       3.9206      2.00000
     19       4.0643      2.00000
     20       4.1855      2.00000
     21       4.3596      2.00000
     22       4.3603      2.00000
     23       9.5017     -0.00000
     24      10.6944     -0.00000
     25      10.9634     -0.00000
     26      12.3454      0.00000
     27      13.0617      0.00000
     28      13.8102      0.00000
     29      14.5382      0.00000
     30      15.4498      0.00000

 k-point    10 :       0.2222    0.2222    0.0000
  band No.  band energies     occupation 
      1      -1.3787      2.00000
      2       1.9330      2.00000
      3       1.9330      2.00000
      4       2.1425      2.00000
      5       2.3555      2.00000
      6       2.3576      2.00000
      7       2.3576      2.00000
      8       3.0248      2.00000
      9       3.3413      2.00000
     10       3.3649      2.00000
     11       3.5121      2.00000
     12       3.5121      2.00000
     13       3.5640      2.00000
     14       3.7232      2.00000
     15       3.9417      2.00000
     16       4.0212      2.00000
     17       4.1270      2.00000
     18       4.1270      2.00000
     19       4.2295      2.00000
     20       4.2295      2.00000
     21       4.2884      2.00000
     22       6.1047     -0.02036
     23       6.1047     -0.02036
     24       9.3737     -0.00000
     25      11.7963      0.00000
     26      12.4004      0.00000
     27      15.7444      0.00000
     28      15.7444      0.00000
     29      15.9535      0.00000
     30      15.9535      0.00000

 k-point    11 :       0.3333    0.2222    0.0000
  band No.  band energies     occupation 
      1      -0.7549      2.00000
      2       1.6548      2.00000
      3       2.1976      2.00000
      4       2.3169      2.00000
      5       2.4717      2.00000
      6       2.4772      2.00000
      7       2.5062      2.00000
      8       2.9223      2.00000
      9       3.1218      2.00000
     10       3.2748      2.00000
     11       3.2767      2.00000
     12       3.3489      2.00000
     13       3.4732      2.00000
     14       3.6769      2.00000
     15       3.9003      2.00000
     16       3.9798      2.00000
     17       4.0390      2.00000
     18       4.0418      2.00000
     19       4.0546      2.00000
     20       4.2276      2.00000
     21       4.2472      2.00000
     22       5.0345      2.00001
     23       6.8879     -0.00000
     24      10.2339     -0.00000
     25      10.3204     -0.00000
     26      12.7741      0.00000
     27      14.3402      0.00000
     28      15.2118      0.00000
     29      16.2909      0.00000
     30      16.7105      0.00000

 k-point    12 :       0.4444    0.2222    0.0000
  band No.  band energies     occupation 
      1       0.0608      2.00000
      2       0.9533      2.00000
      3       2.4389      2.00000
      4       2.5099      2.00000
      5       2.5601      2.00000
      6       2.6245      2.00000
      7       2.7149      2.00000
      8       2.7804      2.00000
      9       2.7966      2.00000
     10       2.9781      2.00000
     11       3.2111      2.00000
     12       3.2868      2.00000
     13       3.6364      2.00000
     14       3.7277      2.00000
     15       3.8099      2.00000
     16       3.8339      2.00000
     17       3.8430      2.00000
     18       3.8804      2.00000
     19       4.2198      2.00000
     20       4.2272      2.00000
     21       4.2314      2.00000
     22       4.4823      2.00000
     23       7.8097     -0.00000
     24       8.9111     -0.00000
     25      11.4902      0.00000
     26      12.8397      0.00000
     27      13.3493      0.00000
     28      14.1579      0.00000
     29      17.0323      0.00000
     30      17.7080      0.00000

 k-point    13 :       0.3333    0.3333    0.0000
  band No.  band energies     occupation 
      1      -0.1650      2.00000
      2       1.9855      2.00000
      3       1.9855      2.00000
      4       2.3996      2.00000
      5       2.5731      2.00000
      6       2.5963      2.00000
      7       2.5963      2.00000
      8       2.8848      2.00000
      9       2.9996      2.00000
     10       2.9996      2.00000
     11       3.1290      2.00000
     12       3.3014      2.00000
     13       3.5400      2.00000
     14       3.6286      2.00000
     15       3.8073      2.00000
     16       3.9035      2.00000
     17       3.9035      2.00000
     18       4.0427      2.00000
     19       4.0427      2.00000
     20       4.1435      2.00000
     21       4.2317      2.00000
     22       5.6544      1.52429
     23       5.6544      1.52429
     24       8.6757     -0.00000
     25      11.1965      0.00000
     26      13.2022      0.00000
     27      15.0970      0.00000
     28      15.0970      0.00000
     29      15.8605      0.00000
     30      15.8605      0.00000

 k-point    14 :       0.4444    0.3333    0.0000
  band No.  band energies     occupation 
      1       0.5897      2.00000
      2       1.3842      2.00000
      3       2.2916      2.00000
      4       2.4235      2.00000
      5       2.6867      2.00000
      6       2.7024      2.00000
      7       2.7561      2.00000
      8       2.8044      2.00000
      9       2.8060      2.00000
     10       2.9431      2.00000
     11       3.0675      2.00000
     12       3.2064      2.00000
     13       3.6446      2.00000
     14       3.6683      2.00000
     15       3.7350      2.00000
     16       3.7646      2.00000
     17       3.7738      2.00000
     18       3.8448      2.00000
     19       4.0520      2.00000
     20       4.0807      2.00000
     21       4.4874      2.00000
     22       4.8973      2.00000
     23       6.4204     -0.00001
     24       7.4085     -0.00000
     25      12.3098      0.00000
     26      13.6192      0.00000
     27      13.8441      0.00000
     28      14.7267      0.00000
     29      16.0962      0.00000
     30      16.7449      0.00000

 k-point    15 :       0.4444    0.4444    0.0000
  band No.  band energies     occupation 
      1       1.2302      2.00000
      2       1.8459      2.00000
      3       1.8459      2.00000
      4       2.2050      2.00000
      5       2.7941      2.00000
      6       2.7941      2.00000
      7       2.8136      2.00000
      8       2.8564      2.00000
      9       2.8804      2.00000
     10       2.9701      2.00000
     11       2.9701      2.00000
     12       3.1215      2.00000
     13       3.5916      2.00000
     14       3.6503      2.00000
     15       3.6573      2.00000
     16       3.6573      2.00000
     17       3.7468      2.00000
     18       3.8801      2.00000
     19       3.8801      2.00000
     20       3.9567      2.00000
     21       4.8628      2.00000
     22       5.4532      2.06774
     23       5.4532      2.06774
     24       6.2580     -0.00095
     25      13.3727      0.00000
     26      14.5656      0.00000
     27      14.6429      0.00000
     28      14.6429      0.00000
     29      15.5309      0.00000
     30      15.5309      0.00000

 k-point    16 :       0.1111    0.1111    0.1111
  band No.  band energies     occupation 
      1      -2.0281      2.00000
      2       1.8634      2.00000
      3       1.8634      2.00000
      4       1.8634      2.00000
      5       2.2119      2.00000
      6       2.2119      2.00000
      7       2.2119      2.00000
      8       3.1391      2.00000
      9       3.2675      2.00000
     10       3.2675      2.00000
     11       3.8360      2.00000
     12       3.8360      2.00000
     13       4.0305      2.00000
     14       4.0305      2.00000
     15       4.0305      2.00000
     16       4.1672      2.00000
     17       4.1672      2.00000
     18       4.1672      2.00000
     19       4.3682      2.00000
     20       4.3682      2.00000
     21       4.3682      2.00000
     22       7.1095     -0.00000
     23       7.1095     -0.00000
     24       7.1095     -0.00000
     25      13.1859      0.00000
     26      13.1859      0.00000
     27      13.1859      0.00000
     28      15.4475      0.00000
     29      15.4475      0.00000
     30      15.4475      0.00000

 k-point    17 :       0.2222    0.1111    0.1111
  band No.  band energies     occupation 
      1      -1.6360      2.00000
      2       1.8037      2.00000
      3       2.0186      2.00000
      4       2.0186      2.00000
      5       2.2977      2.00000
      6       2.3050      2.00000
      7       2.3050      2.00000
      8       3.0642      2.00000
      9       3.3235      2.00000
     10       3.3272      2.00000
     11       3.6810      2.00000
     12       3.6810      2.00000
     13       3.7673      2.00000
     14       3.8129      2.00000
     15       3.8907      2.00000
     16       4.0515      2.00000
     17       4.0759      2.00000
     18       4.0759      2.00000
     19       4.3292      2.00000
     20       4.3504      2.00000
     21       4.3504      2.00000
     22       5.7010      1.16133
     23       7.7525     -0.00000
     24       7.7525     -0.00000
     25      13.4492      0.00000
     26      13.4492      0.00000
     27      13.7552      0.00000
     28      13.7552      0.00000
     29      15.5385      0.00000
     30      15.9269      0.00000

 k-point    18 :       0.3333    0.1111    0.1111
  band No.  band energies     occupation 
      1      -1.0011      2.00000
      2       1.4939      2.00000
      3       2.2294      2.00000
      4       2.2294      2.00000
      5       2.4306      2.00000
      6       2.4541      2.00000
      7       2.4541      2.00000
      8       2.9330      2.00000
      9       3.2946      2.00000
     10       3.2946      2.00000
     11       3.3898      2.00000
     12       3.4263      2.00000
     13       3.5014      2.00000
     14       3.7205      2.00000
     15       3.8940      2.00000
     16       3.9468      2.00000
     17       3.9468      2.00000
     18       3.9725      2.00000
     19       4.2606      2.00000
     20       4.3345      2.00000
     21       4.3345      2.00000
     22       4.6748      2.00000
     23       8.6173     -0.00000
     24       8.6173     -0.00000
     25      12.2116      0.00000
     26      12.2116      0.00000
     27      13.9285      0.00000
     28      13.9285      0.00000
     29      16.6742      0.00000
     30      16.7039      0.00000

 k-point    19 :       0.4444    0.1111    0.1111
  band No.  band energies     occupation 
      1      -0.1663      2.00000
      2       0.7563      2.00000
      3       2.4178      2.00000
      4       2.4178      2.00000
      5       2.5943      2.00000
      6       2.6226      2.00000
      7       2.6226      2.00000
      8       2.7691      2.00000
      9       2.9716      2.00000
     10       2.9716      2.00000
     11       3.3367      2.00000
     12       3.3625      2.00000
     13       3.5613      2.00000
     14       3.7227      2.00000
     15       3.8315      2.00000
     16       3.8315      2.00000
     17       3.8378      2.00000
     18       4.0700      2.00000
     19       4.1326      2.00000
     20       4.1704      2.00000
     21       4.3275      2.00000
     22       4.3275      2.00000
     23       9.6225     -0.00000
     24       9.6225     -0.00000
     25      10.8802     -0.00000
     26      10.8802     -0.00000
     27      14.6223      0.00000
     28      14.6223      0.00000
     29      15.5826      0.00000
     30      15.5826      0.00000

 k-point    20 :       0.2222    0.2222    0.1111
  band No.  band energies     occupation 
      1      -1.2540      2.00000
      2       1.9761      2.00000
      3       1.9761      2.00000
      4       2.1403      2.00000
      5       2.3840      2.00000
      6       2.3856      2.00000
      7       2.3856      2.00000
      8       3.0291      2.00000
      9       3.3386      2.00000
     10       3.3515      2.00000
     11       3.4728      2.00000
     12       3.4728      2.00000
     13       3.5020      2.00000
     14       3.7698      2.00000
     15       3.9218      2.00000
     16       3.9544      2.00000
     17       3.9735      2.00000
     18       3.9735      2.00000
     19       4.3140      2.00000
     20       4.3140      2.00000
     21       4.3141      2.00000
     22       6.2699     -0.00071
     23       6.2699     -0.00071
     24       8.2955     -0.00000
     25      11.9648      0.00000
     26      13.7430      0.00000
     27      14.2019      0.00000
     28      14.2019      0.00000
     29      15.8610      0.00000
     30      15.8610      0.00000

 k-point    21 :       0.3333    0.2222    0.1111
  band No.  band energies     occupation 
      1      -0.6390      2.00000
      2       1.7023      2.00000
      3       2.2053      2.00000
      4       2.2998      2.00000
      5       2.5014      2.00000
      6       2.5106      2.00000
      7       2.5254      2.00000
      8       2.9391      2.00000
      9       3.1403      2.00000
     10       3.2458      2.00000
     11       3.2536      2.00000
     12       3.3436      2.00000
     13       3.4178      2.00000
     14       3.7623      2.00000
     15       3.8190      2.00000
     16       3.8434      2.00000
     17       3.8813      2.00000
     18       4.0358      2.00000
     19       4.2394      2.00000
     20       4.2714      2.00000
     21       4.2718      2.00000
     22       5.1256      2.00022
     23       7.0121     -0.00000
     24       9.0374     -0.00000
     25      10.4562     -0.00000
     26      12.6590      0.00000
     27      14.2430      0.00000
     28      14.9314      0.00000
     29      16.3865      0.00000
     30      17.1253      0.00000

 k-point    22 :       0.4444    0.2222    0.1111
  band No.  band energies     occupation 
      1       0.1609      2.00000
      2       1.0272      2.00000
      3       2.4199      2.00000
      4       2.4663      2.00000
      5       2.5662      2.00000
      6       2.6231      2.00000
      7       2.6588      2.00000
      8       2.8083      2.00000
      9       2.9430      2.00000
     10       3.0249      2.00000
     11       3.2009      2.00000
     12       3.2786      2.00000
     13       3.5186      2.00000
     14       3.6567      2.00000
     15       3.7612      2.00000
     16       3.7808      2.00000
     17       3.8862      2.00000
     18       4.0957      2.00000
     19       4.1954      2.00000
     20       4.2460      2.00000
     21       4.2461      2.00000
     22       4.4784      2.00000
     23       7.9050     -0.00000
     24       8.9354     -0.00000
     25      10.2219     -0.00000
     26      11.3196      0.00000
     27      14.9765      0.00000
     28      15.9011      0.00000
     29      15.9448      0.00000
     30      17.1365      0.00000

 k-point    23 :       0.3333    0.3333    0.1111
  band No.  band energies     occupation 
      1      -0.0640      2.00000
      2       1.9718      2.00000
      3       1.9718      2.00000
      4       2.3325      2.00000
      5       2.6178      2.00000
      6       2.6473      2.00000
      7       2.6473      2.00000
      8       2.9210      2.00000
      9       3.0352      2.00000
     10       3.0352      2.00000
     11       3.1573      2.00000
     12       3.3013      2.00000
     13       3.4327      2.00000
     14       3.7300      2.00000
     15       3.7518      2.00000
     16       3.7518      2.00000
     17       3.7595      2.00000
     18       4.1743      2.00000
     19       4.1743      2.00000
     20       4.1976      2.00000
     21       4.2067      2.00000
     22       5.7189      1.01018
     23       5.7189      1.01018
     24       8.6565     -0.00000
     25      10.0105     -0.00000
     26      13.3715      0.00000
     27      13.3715      0.00000
     28      14.7834      0.00000
     29      16.8847      0.00000
     30      17.8026      0.00000

 k-point    24 :       0.4444    0.3333    0.1111
  band No.  band energies     occupation 
      1       0.6628      2.00000
      2       1.4112      2.00000
      3       2.1973      2.00000
      4       2.3109      2.00000
      5       2.7281      2.00000
      6       2.7706      2.00000
      7       2.7739      2.00000
      8       2.8635      2.00000
      9       2.9433      2.00000
     10       3.0499      2.00000
     11       3.0839      2.00000
     12       3.2116      2.00000
     13       3.4873      2.00000
     14       3.6030      2.00000
     15       3.6560      2.00000
     16       3.6755      2.00000
     17       3.8484      2.00000
     18       4.0216      2.00000
     19       4.1321      2.00000
     20       4.1416      2.00000
     21       4.4602      2.00000
     22       4.8948      2.00000
     23       6.4743     -0.00000
     24       7.4533     -0.00000
     25      10.8871     -0.00000
     26      12.0220      0.00000
     27      14.3231      0.00000
     28      15.4967      0.00000
     29      15.5628      0.00000
     30      16.5805      0.00000

 k-point    25 :       0.4444    0.4444    0.1111
  band No.  band energies     occupation 
      1       1.2535      2.00000
      2       1.7998      2.00000
      3       1.7998      2.00000
      4       2.0994      2.00000
      5       2.8900      2.00000
      6       2.9112      2.00000
      7       2.9146      2.00000
      8       2.9146      2.00000
      9       2.9996      2.00000
     10       2.9996      2.00000
     11       3.0247      2.00000
     12       3.1360      2.00000
     13       3.4765      2.00000
     14       3.5501      2.00000
     15       3.5501      2.00000
     16       3.5618      2.00000
     17       3.8725      2.00000
     18       3.9907      2.00000
     19       3.9907      2.00000
     20       4.0397      2.00000
     21       4.8389      2.00000
[...]
      8       2.8984      2.00000
      9       3.1112      2.00000
     10       3.1112      2.00000
     11       3.1708      2.00000
     12       3.2532      2.00000
     13       3.4168      2.00000
     14       3.5217      2.00000
     15       3.6467      2.00000
     16       3.6467      2.00000
     17       4.0957      2.00000
     18       4.1440      2.00000
     19       4.2504      2.00000
     20       4.2617      2.00000
     21       4.2617      2.00000
     22       4.5703      2.00000
     23       8.0458     -0.00000
     24       8.0458     -0.00000
     25       9.7387     -0.00000
     26       9.7387     -0.00000
     27      14.0891      0.00000
     28      15.2668      0.00000
     29      17.4949      0.00000
     30      17.4949      0.00000

 k-point    29 :       0.3333    0.3333    0.2222
  band No.  band energies     occupation 
      1       0.2238      2.00000
      2       1.9326      2.00000
      3       1.9326      2.00000
      4       2.1509      2.00000
      5       2.7449      2.00000
      6       2.7846      2.00000
      7       2.7846      2.00000
      8       3.0402      2.00000
      9       3.1364      2.00000
     10       3.1364      2.00000
     11       3.2231      2.00000
     12       3.2964      2.00000
     13       3.3292      2.00000
     14       3.5715      2.00000
     15       3.5715      2.00000
     16       3.5838      2.00000
     17       3.9312      2.00000
     18       4.1412      2.00000
     19       4.2767      2.00000
     20       4.2893      2.00000
     21       4.2893      2.00000
     22       5.9207     -0.05085
     23       5.9207     -0.05085
     24       7.7118     -0.00000
     25       9.5718     -0.00000
     26      11.5818      0.00000
     27      11.5818      0.00000
     28      15.0534      0.00000
     29      17.2907      0.00000
     30      19.5124      0.00000

 k-point    30 :       0.4444    0.3333    0.2222
  band No.  band energies     occupation 
      1       0.8588      2.00000
      2       1.4730      2.00000
      3       2.0225      2.00000
      4       2.0917      2.00000
      5       2.8426      2.00000
      6       2.8704      2.00000
      7       2.9685      2.00000
      8       3.0575      2.00000
      9       3.1407      2.00000
     10       3.1917      2.00000
     11       3.2197      2.00000
     12       3.2518      2.00000
     13       3.3579      2.00000
     14       3.4443      2.00000
     15       3.5110      2.00000
     16       3.5165      2.00000
     17       4.0462      2.00000
     18       4.2087      2.00000
     19       4.2335      2.00000
     20       4.2365      2.00000
     21       4.3811      2.00000
     22       4.9132      2.00000
     23       6.6015     -0.00000
     24       7.3992     -0.00000
     25       9.4391     -0.00000
     26      10.3148     -0.00000
     27      12.5131      0.00000
     28      13.6712      0.00000
     29      18.0862      0.00000
     30      19.0933      0.00000

 k-point    31 :       0.4444    0.4444    0.2222
  band No.  band energies     occupation 
      1       1.3089      2.00000
      2       1.7053      2.00000
      3       1.7053      2.00000
      4       1.9050      2.00000
      5       2.9777      2.00000
      6       3.0490      2.00000
      7       3.0490      2.00000
      8       3.1660      2.00000
      9       3.2273      2.00000
     10       3.2480      2.00000
     11       3.2480      2.00000
     12       3.3321      2.00000
     13       3.3375      2.00000
     14       3.4049      2.00000
     15       3.4049      2.00000
     16       3.4163      2.00000
     17       4.0414      2.00000
     18       4.1472      2.00000
     19       4.1472      2.00000
     20       4.1689      2.00000
     21       4.7641      2.00000
     22       5.4667      2.07040
     23       5.4667      2.07040
     24       6.3089     -0.00025
     25      10.1395     -0.00000
     26      11.1914      0.00000
     27      11.1914      0.00000
     28      12.3122      0.00000
     29      18.9113      0.00000
     30      19.9563      0.00000

 k-point    32 :       0.3333    0.3333    0.3333
  band No.  band energies     occupation 
      1       0.6471      2.00000
      2       1.8856      2.00000
      3       1.8856      2.00000
      4       1.8856      2.00000
      5       2.9232      2.00000
      6       2.9232      2.00000
      7       2.9232      2.00000
      8       3.2519      2.00000
      9       3.2744      2.00000
     10       3.2744      2.00000
     11       3.3033      2.00000
     12       3.3033      2.00000
     13       3.3033      2.00000
     14       3.4419      2.00000
     15       3.4419      2.00000
     16       3.4419      2.00000
     17       4.0904      2.00000
     18       4.0904      2.00000
     19       4.3151      2.00000
     20       4.3151      2.00000
     21       4.3151      2.00000
     22       6.2552     -0.00102
     23       6.2552     -0.00102
     24       6.2552     -0.00102
     25      10.1212     -0.00000
     26      10.1212     -0.00000
     27      10.1212     -0.00000
     28      13.4549      0.00000
     29      20.0628      0.00000
     30      20.0628      0.00000

 k-point    33 :       0.4444    0.3333    0.3333
  band No.  band energies     occupation 
      1       1.1170      2.00000
      2       1.5421      2.00000
      3       1.8552      2.00000
      4       1.8552      2.00000
      5       2.9881      2.00000
      6       2.9881      2.00000
      7       3.0984      2.00000
      8       3.2167      2.00000
      9       3.2761      2.00000
     10       3.3342      2.00000
     11       3.3748      2.00000
     12       3.3748      2.00000
     13       3.3886      2.00000
     14       3.4223      2.00000
     15       3.4728      2.00000
     16       3.4728      2.00000
     17       4.2172      2.00000
     18       4.2835      2.00000
     19       4.2835      2.00000
     20       4.2953      2.00000
     21       4.3010      2.00000
     22       5.0608      2.00003
     23       6.6075     -0.00000
     24       6.6075     -0.00000
     25       9.1795     -0.00000
     26       9.1795     -0.00000
     27      10.9838     -0.00000
     28      12.0976      0.00000
     29      20.8304      0.00000
     30      20.8304      0.00000

 k-point    34 :       0.4444    0.4444    0.3333
  band No.  band energies     occupation 
      1       1.3768      2.00000
      2       1.6193      2.00000
      3       1.6193      2.00000
      4       1.7201      2.00000
      5       3.0791      2.00000
      6       3.1157      2.00000
      7       3.1157      2.00000
      8       3.1967      2.00000
      9       3.2399      2.00000
     10       3.2797      2.00000
     11       3.2797      2.00000
     12       3.2930      2.00000
     13       3.6850      2.00000
     14       3.6850      2.00000
     15       3.6947      2.00000
     16       3.7679      2.00000
     17       4.1822      2.00000
     18       4.2633      2.00000
     19       4.2633      2.00000
     20       4.2643      2.00000
     21       4.6364      2.00000
     22       5.4792      2.07079
     23       5.4792      2.07079
     24       6.1348     -0.01253
     25       9.0698     -0.00000
     26       9.7938     -0.00000
     27       9.7938     -0.00000
     28      10.7970     -0.00000
     29      21.6165      0.00000
     30      22.5841      0.00000

 k-point    35 :       0.4444    0.4444    0.4444
  band No.  band energies     occupation 
      1       1.4592      2.00000
      2       1.5705      2.00000
      3       1.5705      2.00000
      4       1.5705      2.00000
      5       3.1584      2.00000
      6       3.1584      2.00000
      7       3.1584      2.00000
      8       3.1979      2.00000
      9       3.1979      2.00000
     10       3.2165      2.00000
     11       3.2165      2.00000
     12       3.2165      2.00000
     13       4.0463      2.00000
     14       4.0463      2.00000
     15       4.0463      2.00000
     16       4.2733      2.00000
     17       4.2733      2.00000
     18       4.3018      2.00000
     19       4.3018      2.00000
     20       4.3018      2.00000
     21       4.6868      2.00000
     22       5.4892      2.06926
     23       5.4892      2.06926
     24       5.4892      2.06926
     25       8.9662     -0.00000
     26       8.9662     -0.00000
     27       8.9662     -0.00000
     28       9.6403     -0.00000
     29      24.3193      0.00000
     30      24.3201      0.00000


--------------------------------------------------------------------------------------------------------


 soft charge-density along one line, spin component           1
         0         1         2         3         4         5         6         7         8         9
x    15.8293    0.0000    0.0000   -0.0000    1.0757    0.0000   -0.0000    0.0000   -0.4800   -0.0000
x    -0.0000   -0.0000    0.0473    0.0000   -0.0000    0.0000    0.0129   -0.0000    0.0000    0.0000
y    15.8293    0.0000    0.0000   -0.0000    1.0757    0.0000   -0.0000    0.0000   -0.4800   -0.0000
y    -0.0000   -0.0000    0.0473    0.0000   -0.0000    0.0000    0.0129   -0.0000    0.0000    0.0000
z    15.8293    0.0000    0.0000   -0.0000    1.0757    0.0000   -0.0000    0.0000   -0.4800   -0.0000
z    -0.0000   -0.0000    0.0473    0.0000   -0.0000    0.0000    0.0129   -0.0000    0.0000    0.0000
 total charge-density along one line
x    43.9999    0.0000    0.0000    0.0000   20.0069   -0.0000    0.0000    0.0000    4.4182   -0.0000
x     0.0000    0.0000    0.0964   -0.0000    0.0000    0.0000    0.0139   -0.0000   -0.0000   -0.0000
x     0.0020   -0.0000    0.0000   -0.0000   -0.0010   -0.0000    0.0000    0.0000    0.0006   -0.0000
x    -0.0000   -0.0000   -0.0004   -0.0000    0.0000    0.0000    0.0004    0.0000
y    43.9999    0.0000   -0.0000    0.0000   20.0069   -0.0000    0.0000    0.0000    4.4182   -0.0000
y     0.0000   -0.0000    0.0964   -0.0000   -0.0000   -0.0000    0.0139    0.0000   -0.0000   -0.0000
y     0.0020   -0.0000    0.0000    0.0000   -0.0010   -0.0000    0.0000    0.0000    0.0006    0.0000
y    -0.0000    0.0000   -0.0004    0.0000    0.0000   -0.0000    0.0004   -0.0000
z    43.9999    0.0000   -0.0000    0.0000   20.0069   -0.0000    0.0000    0.0000    4.4182   -0.0000
z     0.0000   -0.0000    0.0964   -0.0000   -0.0000   -0.0000    0.0139    0.0000    0.0000    0.0000
z     0.0020   -0.0000   -0.0000    0.0000   -0.0010    0.0000   -0.0000    0.0000    0.0006    0.0000
z    -0.0000   -0.0000   -0.0004    0.0000   -0.0000   -0.0000    0.0004   -0.0000
 
 pseudopotential strength for first ion, spin component:           1
 -3.957  -0.000   0.000  -0.000  -0.000  -3.926   0.000  -0.000
 -0.000  -3.957  -0.000  -0.000   0.000   0.000  -3.926   0.000
  0.000  -0.000  -3.943  -0.000   0.000  -0.000   0.000  -3.937
 -0.000  -0.000  -0.000  -3.957  -0.000   0.000   0.000   0.000
 -0.000   0.000   0.000  -0.000  -3.943   0.000  -0.000  -0.000
 -3.926   0.000  -0.000   0.000   0.000   9.735  -0.000   0.000
  0.000  -3.926   0.000   0.000  -0.000  -0.000   9.735  -0.000
 -0.000   0.000  -3.937   0.000  -0.000   0.000  -0.000   9.743
  0.000   0.000   0.000  -3.926   0.000  -0.000  -0.000  -0.000
  0.000  -0.000  -0.000   0.000  -3.937  -0.000   0.000   0.000
  0.000   0.000   0.000   0.000   0.000   0.000   0.000  -0.000
  0.000   0.000   0.000   0.000   0.000   0.000   0.000  -0.000
  0.000  -0.000   0.000  -0.000   0.000   0.000   0.000   0.000
 -0.000  -0.000  -0.000   0.000  -0.000  -0.000   0.000  -0.000
 -0.000  -0.000  -0.000  -0.000   0.000   0.000  -0.000  -0.000
  0.000  -0.000   0.000   0.000   0.000   0.000   0.000   0.000
  0.000  -0.000  -0.000   0.000   0.000  -0.000   0.000  -0.000
 -0.000   0.000  -0.000  -0.000   0.000  -0.000  -0.000  -0.000
 total augmentation occupancy for first ion, spin component:           1
  1.902  -0.000   0.000  -0.000   0.000  -0.025  -0.000   0.000   0.000   0.000  -0.000  -0.000  -0.000   0.000   0.000  -0.000
  0.000   1.902  -0.000  -0.000   0.000  -0.000  -0.025  -0.000  -0.000  -0.000  -0.000   0.000  -0.000  -0.000   0.000   0.000
 -0.000   0.000   1.923   0.000   0.000  -0.000  -0.000  -0.040  -0.000  -0.000  -0.000   0.000   0.000   0.000   0.000   0.000
 -0.000  -0.000   0.000   1.902  -0.000  -0.000   0.000  -0.000  -0.025   0.000   0.000   0.000   0.000   0.000  -0.000  -0.000
  0.000  -0.000   0.000  -0.000   1.923   0.000  -0.000  -0.000  -0.000  -0.040   0.000   0.000  -0.000   0.000   0.000   0.000
 -0.025  -0.000  -0.000  -0.000   0.000   0.011   0.000  -0.000  -0.000  -0.000   0.000  -0.000   0.000   0.000   0.000   0.000
  0.000  -0.025  -0.000  -0.000  -0.000  -0.000   0.011  -0.000   0.000   0.000   0.000   0.000   0.000   0.000  -0.000   0.000
 -0.000   0.000  -0.040   0.000  -0.000  -0.000  -0.000   0.011  -0.000   0.000  -0.000   0.000   0.000  -0.000   0.000  -0.000
  0.000  -0.000  -0.000  -0.025  -0.000  -0.000   0.000  -0.000   0.011   0.000   0.000   0.000  -0.000   0.000   0.000  -0.000
 -0.000  -0.000  -0.000  -0.000  -0.040   0.000   0.000   0.000   0.000   0.011  -0.000   0.000   0.000   0.000   0.000   0.000
 -0.000  -0.000  -0.000  -0.000  -0.000  -0.000   0.000  -0.000  -0.000  -0.000   1.551  -0.133   0.000   0.000   0.000   0.000
 -0.000  -0.000  -0.000  -0.000   0.000  -0.000   0.000   0.000   0.000   0.000  -0.133   0.016  -0.000   0.000   0.000   0.000
 -0.000  -0.000  -0.000   0.000   0.000   0.000   0.000   0.000  -0.000   0.000   0.000  -0.000   0.178   0.000   0.000  -0.011
  0.000  -0.000   0.000   0.000   0.000   0.000   0.000   0.000   0.000   0.000   0.000   0.000   0.000   0.178  -0.000  -0.000
  0.000   0.000   0.000  -0.000   0.000   0.000  -0.000  -0.000   0.000  -0.000   0.000   0.000   0.000  -0.000   0.178  -0.000
 -0.000   0.000   0.000  -0.000   0.000   0.000   0.000   0.000  -0.000  -0.000   0.000   0.000  -0.011  -0.000  -0.000   0.001
  0.000   0.000   0.000  -0.000   0.000  -0.000   0.000  -0.000   0.000   0.000  -0.000   0.000   0.000  -0.011  -0.000   0.000
 -0.000  -0.000   0.000   0.000  -0.000   0.000   0.000  -0.000  -0.000  -0.000  -0.000   0.000  -0.000  -0.000  -0.011   0.000


------------------------ aborting loop because EDIFF is reached ----------------------------------------


    CHARGE:  cpu time    0.0435: real time    0.0435
    FORLOC:  cpu time    0.0008: real time    0.0008
    FORNL :  cpu time    0.1639: real time    0.1639
    STRESS:  cpu time    0.1988: real time    0.1988
    FORCOR:  cpu time    0.0110: real time    0.0110
    FORHAR:  cpu time    0.0026: real time    0.0026
    MIXING:  cpu time    0.0005: real time    0.0005

  FORCE on cell =-STRESS in cart. coord.  units (eV):
  Direction    XX          YY          ZZ          XY          YZ          ZX
  --------------------------------------------------------------------------------------
  Alpha Z   211.84642   211.84642   211.84642
  Ewald   -1398.42644 -1398.42644 -1398.42644    -0.00000    -0.00000    -0.00000
  Hartree   494.86400   494.86400   494.86400    -0.00000    -0.00000    -0.00000
  E(xc)    -256.32503  -256.32503  -256.32503     0.00000    -0.00000    -0.00000
  Local     302.40351   302.40351   302.40351     0.00000    -0.00000     0.00000
  n-local   -87.70496   -95.62824   -96.81899     0.41225     2.60729     1.16154
  augment   378.67445   378.67445   378.67445     0.00000    -0.00000     0.00000
  Kinetic   362.52135   354.57121   349.35198    -3.22507     0.16009    -0.98220
  Fock        0.00000     0.00000     0.00000     0.00000     0.00000     0.00000
  -------------------------------------------------------------------------------------
  Total      -4.86564    -4.86564    -4.86564     0.00000     0.00000     0.00000
  in kB    -141.13648  -141.13648  -141.13648     0.00000     0.00000     0.00000
  external pressure =     -141.14 kB  Pullay stress =        0.00 kB


 VOLUME and BASIS-vectors are now :
 -----------------------------------------------------------------------------
  energy-cutoff  :      320.00
  volume of cell :       55.23
      direct lattice vectors                 reciprocal lattice vectors
     3.808351526  0.000000000  0.000000000     0.262580803  0.000000000  0.000000000
     0.000000000  3.808351526  0.000000000     0.000000000  0.262580803  0.000000000
     0.000000000  0.000000000  3.808351526     0.000000000  0.000000000  0.262580803

  length of vectors
     3.808351526  3.808351526  3.808351526     0.262580803  0.262580803  0.262580803


 FORCES acting on ions
    electron-ion (+dipol)            ewald-force                    non-local-force                 convergence-correction
 -----------------------------------------------------------------------------------------------
   -.320E-12 0.861E-13 0.100E-12   -.190E-13 -.390E-14 0.918E-15   -.514E-23 0.570E-23 0.525E-23   0.147E-12 0.537E-14 0.714E-13
   0.408E-12 0.835E-12 0.981E-13   -.396E-14 0.127E-13 0.101E-14   -.884E-23 0.117E-23 -.811E-23   0.186E-12 0.949E-13 0.711E-13
   0.415E-12 0.926E-13 0.858E-12   0.147E-13 -.131E-13 -.430E-15   0.175E-23 -.710E-23 -.123E-22   0.145E-12 0.477E-13 0.757E-14
   -.318E-12 0.838E-12 0.850E-12   0.943E-14 0.352E-14 -.335E-15   -.167E-23 0.286E-23 0.770E-24   0.241E-12 0.105E-12 -.432E-13
 -----------------------------------------------------------------------------------------------
   0.186E-12 0.185E-11 0.191E-11   0.114E-14 -.762E-15 0.116E-14   -.139E-22 0.264E-23 -.144E-22   0.719E-12 0.253E-12 0.107E-12
 
 
 POSITION                                       TOTAL-FORCE (eV/Angst)
 -----------------------------------------------------------------------------------
      0.00000      0.00000      0.00000         0.000000     -0.000000     -0.000000
      1.90418      1.90418      0.00000         0.000000      0.000000      0.000000
      1.90418      0.00000      1.90418        -0.000000     -0.000000      0.000000
      0.00000      1.90418      1.90418        -0.000000      0.000000     -0.000000
 -----------------------------------------------------------------------------------
    total drift:                                0.000000      0.000000      0.000000


--------------------------------------------------------------------------------------------------------



  FREE ENERGIE OF THE ION-ELECTRON SYSTEM (eV)
  ---------------------------------------------------
  free  energy   TOTEN  =       -14.59130102 eV

  energy  without entropy=      -14.59446493  energy(sigma->0) =      -14.59235566
 


--------------------------------------------------------------------------------------------------------


    POTLOK:  cpu time    0.0141: real time    0.0141


--------------------------------------------------------------------------------------------------------


 writing wavefunctions
     LOOP+:  cpu time    8.4315: real time    8.4600
    4ORBIT:  cpu time    0.0000: real time    0.0000

 total amount of memory used by VASP MPI-rank0    50017. kBytes
=======================================================================

   base      :      30000. kBytes
   nonl-proj :       3771. kBytes
   grid      :       2560. kBytes
   one-center:         62. kBytes
   wavefun   :      13624. kBytes
 
  
  
 General timing and accounting informations for this job:
 ========================================================
  
                  Total CPU time used (sec):        8.604
                            User time (sec):        8.564
                          System time (sec):        0.040
                         Elapsed time (sec):        8.627
  
                   Maximum memory used (kb):       57164.
                   Average memory used (kb):          N/A
  
                          Minor page faults:         7919
                          Major page faults:            0
                 Voluntary context switches:           27
