    4    4    1    1
  0.1200752E+02  0.3635000E-09  0.3635000E-09  0.3635000E-09  0.5000000E-15
  1.000000000000000E-004
  CAR 
 unknown system                          
     44     35     30
 
  0.0000000E+00  0.0000000E+00  0.0000000E+00  0.1371742E-02
    1       -1.846246   1.000000
    2        2.604697   1.000000
    3        2.604697   1.000000
    4        2.604697   1.000000
    5        3.051193   1.000000
    6        3.051193   1.000000
    7        3.051193   1.000000
    8        4.409570   1.000000
    9        4.409570   1.000000
   10        4.409570   1.000000
   11        5.215084   1.000000
   12        5.215084   1.000000
   13        5.750461   1.000000
   14        5.750461   1.000000
   15        5.750461   1.000000
   16        5.902885   1.000000
   17        5.902885   1.000000
   18        5.902885   1.000000
   19        5.902885   1.000000
   20        5.902885   1.000000
   21        5.902885   1.000000
   22        8.890375  -0.000000
   23        8.890375  -0.000000
   24        8.890375  -0.000000
   25       14.381907   0.000000
   26       14.381907   0.000000
   27       14.381907   0.000000
   28       20.332438   0.000000
   29       20.332438   0.000000
   30       20.332438   0.000000
 
  0.1111111E+00  0.0000000E+00  0.0000000E+00  0.8230453E-02
    1       -1.698033   1.000000
    2        2.599925   1.000000
    3        2.672834   1.000000
    4        2.672834   1.000000
    5        3.090077   1.000000
    6        3.092423   1.000000
    7        3.092423   1.000000
    8        4.366328   1.000000
    9        4.444184   1.000000
   10        4.444184   1.000000
   11        5.176307   1.000000
   12        5.230864   1.000000
   13        5.659341   1.000000
   14        5.659341   1.000000
   15        5.699994   1.000000
   16        5.699994   1.000000
   17        5.733996   1.000000
   18        5.843380   1.000000
   19        5.843380   1.000000
   20        5.903039   1.000000
   21        5.903039   1.000000
   22        8.040410  -0.000006
   23        9.267353  -0.000000
   24        9.267353  -0.000000
   25       14.437111   0.000000
   26       14.437111   0.000000
   27       15.526882   0.000000
   28       19.421800   0.000000
   29       19.421814   0.000000
   30       19.725199   0.000000
 
  0.2222222E+00  0.0000000E+00  0.0000000E+00  0.8230453E-02
    1       -1.259115   1.000000
    2        2.530486   1.000000
    3        2.859707   1.000000
    4        2.859707   1.000000
    5        3.202202   1.000000
    6        3.216926   1.000000
    7        3.216926   1.000000
    8        4.242779   1.000000
    9        4.546562   1.000000
   10        4.546562   1.000000
   11        5.066891   1.000000
   12        5.146661   1.000000
   13        5.146661   1.000000
   14        5.276421   1.000000
   15        5.557454   1.000000
   16        5.557454   1.000000
   17        5.678715   1.000000
   18        5.678715   1.000000
   19        5.686538   1.000000
   20        5.903313   1.000000
   21        5.903313   1.000000
   22        6.532773   1.000000
   23       10.177881  -0.000000
   24       10.177881  -0.000000
   25       14.612016   0.000000
   26       14.612016   0.000000
   27       17.735097   0.000000
   28       17.735097   0.000000
   29       17.964363   0.000000
   30       18.492273   0.000000
 
  0.3333333E+00  0.0000000E+00  0.0000000E+00  0.8230453E-02
    1       -0.550072   1.000000
    2        2.192915   1.000000
    3        3.106510   1.000000
    4        3.106510   1.000000
    5        3.376596   1.000000
    6        3.428248   1.000000
    7        3.428248   1.000000
    8        4.055522   1.000000
    9        4.605974   1.000000
   10        4.605974   1.000000
   11        4.711459   1.000000
   12        4.711459   1.000000
   13        4.916044   1.000000
   14        5.336438   1.000000
   15        5.346581   1.000000
   16        5.360051   1.000000
   17        5.360051   1.000000
   18        5.444617   1.000000
   19        5.444617   1.000000
   20        5.614369   1.000000
   21        5.903450   1.000000
   22        5.903450   1.000000
   23       11.376741  -0.000000
   24       11.376741  -0.000000
   25       14.932148   0.000000
   26       14.932148   0.000000
   27       15.981474   0.000000
   28       15.981474   0.000000
   29       17.264812   0.000000
   30       17.264812   0.000000
 
  0.4444444E+00  0.0000000E+00  0.0000000E+00  0.8230453E-02
    1        0.378398   1.000000
    2        1.394636   1.000000
    3        3.299368   1.000000
    4        3.299368   1.000000
    5        3.594036   1.000000
    6        3.730379   1.000000
    7        3.730379   1.000000
    8        3.829704   1.000000
    9        4.124930   1.000000
   10        4.124930   1.000000
   11        4.786578   1.000000
   12        4.823669   1.000000
   13        4.929265   1.000000
   14        4.929265   1.000000
   15        5.182626   1.000000
   16        5.182626   1.000000
   17        5.199260   1.000000
   18        5.199260   1.000000
   19        5.433257   1.000000
   20        5.526456   1.000000
   21        5.903614   1.000000
   22        5.903614   1.000000
   23       12.767438  -0.000000
   24       12.767438  -0.000000
   25       14.311100   0.000000
   26       14.311100   0.000000
   27       15.416503   0.000000
   28       15.416503   0.000000
   29       16.283095   0.000000
   30       16.283095   0.000000
 
  0.1111111E+00  0.1111111E+00  0.0000000E+00  0.1646091E-01
    1       -1.550920   1.000000
    2        2.671153   1.000000
    3        2.671153   1.000000
    4        2.738048   1.000000
    5        3.129681   1.000000
    6        3.129681   1.000000
    7        3.130881   1.000000
    8        4.343213   1.000000
    9        4.460392   1.000000
   10        4.472499   1.000000
   11        5.166139   1.000000
   12        5.223994   1.000000
   13        5.495407   1.000000
   14        5.549186   1.000000
   15        5.549186   1.000000
   16        5.653224   1.000000
   17        5.713786   1.000000
   18        5.713786   1.000000
   19        5.843125   1.000000
   20        5.843125   1.000000
   21        5.864593   1.000000
   22        8.409441  -0.000000
   23        8.409441  -0.000000
   24        9.603235  -0.000000
   25       14.492842   0.000000
   26       15.610406   0.000000
   27       15.610406   0.000000
   28       17.747526   0.000000
   29       19.618230   0.000000
   30       19.618294   0.000000
 
  0.2222222E+00  0.1111111E+00  0.0000000E+00  0.3292181E-01
    1       -1.115472   1.000000
    2        2.611104   1.000000
    3        2.866995   1.000000
    4        2.917182   1.000000
    5        3.238165   1.000000
    6        3.246934   1.000000
    7        3.250114   1.000000
    8        4.234233   1.000000
    9        4.552356   1.000000
   10        4.552929   1.000000
   11        5.035033   1.000000
   12        5.065115   1.000000
   13        5.076916   1.000000
   14        5.271432   1.000000
   15        5.294264   1.000000
   16        5.520587   1.000000
   17        5.567469   1.000000
   18        5.669950   1.000000
   19        5.678104   1.000000
   20        5.842601   1.000000
   21        5.844161   1.000000
   22        6.966536   1.010212
   23        9.240150  -0.000000
   24       10.453225  -0.000000
   25       14.658457   0.000000
   26       15.871169   0.000000
   27       15.948441   0.000000
   28       17.918620   0.000000
   29       18.068161   0.000000
   30       18.663742   0.000000
 
  0.3333333E+00  0.1111111E+00  0.0000000E+00  0.3292181E-01
    1       -0.412774   1.000000
    2        2.288590   1.000000
    3        3.129054   1.000000
    4        3.158639   1.000000
    5        3.406026   1.000000
    6        3.436482   1.000000
    7        3.453977   1.000000
    8        4.057264   1.000000
    9        4.508678   1.000000
   10        4.572249   1.000000
   11        4.653539   1.000000
   12        4.714028   1.000000
   13        4.900653   1.000000
   14        4.973464   1.000000
   15        5.336429   1.000000
   16        5.358967   1.000000
   17        5.371256   1.000000
   18        5.443702   1.000000
   19        5.545961   1.000000
   20        5.839925   1.000000
   21        5.841747   1.000000
   22        5.971336   1.000000
   23       10.278742  -0.000000
   24       11.610397  -0.000000
   25       14.202140   0.000000
   26       15.083820   0.000000
   27       16.164992   0.000000
   28       16.330742   0.000000
   29       17.416372   0.000000
   30       19.196349   0.000000
 
  0.4444444E+00  0.1111111E+00  0.0000000E+00  0.3292181E-01
    1        0.505529   1.000000
    2        1.507028   1.000000
    3        3.342507   1.000000
    4        3.355416   1.000000
    5        3.615175   1.000000
    6        3.695070   1.000000
    7        3.744143   1.000000
    8        3.841479   1.000000
    9        4.052233   1.000000
   10        4.120339   1.000000
   11        4.644684   1.000000
   12        4.648812   1.000000
   13        4.929963   1.000000
   14        5.041088   1.000000
   15        5.182126   1.000000
   16        5.190538   1.000000
   17        5.204817   1.000000
   18        5.284882   1.000000
   19        5.472483   1.000000
   20        5.619738   1.000000
   21        5.839777   1.000000
   22        5.840619   1.000000
   23       11.453747  -0.000000
   24       12.761380  -0.000000
   25       12.975006   0.000000
   26       14.502747   0.000000
   27       15.582256   0.000000
   28       16.334828   0.000000
   29       17.085787   0.000000
   30       18.030555   0.000000
 
  0.2222222E+00  0.2222222E+00  0.0000000E+00  0.1646091E-01
    1       -0.691041   1.000000
    2        2.835131   1.000000
    3        2.835131   1.000000
    4        3.073748   1.000000
    5        3.338007   1.000000
    6        3.346216   1.000000
    7        3.346216   1.000000
    8        4.177598   1.000000
    9        4.573298   1.000000
   10        4.604994   1.000000
   11        4.764204   1.000000
   12        4.764204   1.000000
   13        4.818104   1.000000
   14        5.046971   1.000000
   15        5.320376   1.000000
   16        5.414014   1.000000
   17        5.542603   1.000000
   18        5.542603   1.000000
   19        5.676302   1.000000
   20        5.676302   1.000000
   21        5.751728   1.000000
   22        7.732874  -0.010575
   23        7.732874  -0.010575
   24       11.195447  -0.000000
   25       13.920047   0.000000
   26       14.964295   0.000000
   27       18.374244   0.000000
   28       18.374244   0.000000
   29       18.451466   0.000000
   30       18.451466   0.000000
 
  0.3333333E+00  0.2222222E+00  0.0000000E+00  0.3292181E-01
    1       -0.008970   1.000000
    2        2.556232   1.000000
    3        3.144053   1.000000
    4        3.290668   1.000000
    5        3.473247   1.000000
    6        3.494116   1.000000
    7        3.527565   1.000000
    8        4.048229   1.000000
    9        4.287523   1.000000
   10        4.465936   1.000000
   11        4.480455   1.000000
   12        4.579957   1.000000
   13        4.738424   1.000000
   14        4.987744   1.000000
   15        5.262435   1.000000
   16        5.357866   1.000000
   17        5.431071   1.000000
   18        5.442103   1.000000
   19        5.459548   1.000000
   20        5.674240   1.000000
   21        5.699946   1.000000
   22        6.588976   1.000000
   23        8.622959  -0.000000
   24       12.264478  -0.000000
   25       12.265375  -0.000000
   26       15.309920   0.000000
   27       16.697451   0.000000
   28       17.814236   0.000000
   29       18.969696   0.000000
   30       19.289237   0.000000
 
  0.4444444E+00  0.2222222E+00  0.0000000E+00  0.3292181E-01
    1        0.875345   1.000000
    2        1.827307   1.000000
    3        3.425759   1.000000
    4        3.510846   1.000000
    5        3.596618   1.000000
    6        3.676633   1.000000
    7        3.781934   1.000000
    8        3.870544   1.000000
    9        3.891008   1.000000
   10        4.102310   1.000000
   11        4.404795   1.000000
   12        4.499708   1.000000
   13        4.939570   1.000000
   14        5.048685   1.000000
   15        5.149216   1.000000
   16        5.183766   1.000000
   17        5.188498   1.000000
   18        5.234927   1.000000
   19        5.661815   1.000000
   20        5.674017   1.000000
   21        5.679733   1.000000
   22        5.972944   1.000000
   23        9.643423  -0.000000
   24       10.841087  -0.000000
   25       13.567948   0.000000
   26       15.056177   0.000000
   27       15.891261   0.000000
   28       16.722872   0.000000
   29       19.748611   0.000000
   30       20.380398   0.000000
 
  0.3333333E+00  0.3333333E+00  0.0000000E+00  0.1646091E-01
    1        0.632959   1.000000
    2        2.930451   1.000000
    3        2.930451   1.000000
    4        3.410362   1.000000
    5        3.581563   1.000000
    6        3.638852   1.000000
    7        3.638852   1.000000
    8        3.998864   1.000000
    9        4.141438   1.000000
   10        4.141438   1.000000
   11        4.285613   1.000000
   12        4.517860   1.000000
   13        4.821354   1.000000
   14        4.926544   1.000000
   15        5.146172   1.000000
   16        5.261492   1.000000
   17        5.261492   1.000000
   18        5.443719   1.000000
   19        5.443719   1.000000
   20        5.570995   1.000000
   21        5.676734   1.000000
   22        7.296015   0.722706
   23        7.296015   0.722706
   24       10.585373  -0.000000
   25       13.246903   0.000000
   26       15.748223   0.000000
   27       17.535265   0.000000
   28       17.535265   0.000000
   29       18.522205   0.000000
   30       18.522205   0.000000
 
  0.4444444E+00  0.3333333E+00  0.0000000E+00  0.3292181E-01
    1        1.447840   1.000000
    2        2.296748   1.000000
    3        3.281282   1.000000
    4        3.440406   1.000000
    5        3.728881   1.000000
    6        3.770359   1.000000
    7        3.833063   1.000000
    8        3.893006   1.000000
    9        3.899491   1.000000
   10        4.059955   1.000000
   11        4.223275   1.000000
   12        4.396340   1.000000
   13        4.944538   1.000000
   14        4.979880   1.000000
   15        5.055494   1.000000
   16        5.090259   1.000000
   17        5.101134   1.000000
   18        5.198145   1.000000
   19        5.456038   1.000000
   20        5.492484   1.000000
   21        5.985121   1.000000
   22        6.459963   1.000000
   23        8.145099  -0.000000
   24        9.218307  -0.000000
   25       14.481903   0.000000
   26       15.921663   0.000000
   27       16.413005   0.000000
   28       17.334062   0.000000
   29       18.630729   0.000000
   30       19.482091   0.000000
 
  0.4444444E+00  0.4444444E+00  0.0000000E+00  0.1646091E-01
    1        2.137179   1.000000
    2        2.799457   1.000000
    3        2.799457   1.000000
    4        3.193882   1.000000
    5        3.880934   1.000000
    6        3.880934   1.000000
    7        3.906235   1.000000
    8        3.943578   1.000000
    9        3.984476   1.000000
   10        4.094342   1.000000
   11        4.094342   1.000000
   12        4.285037   1.000000
   13        4.878553   1.000000
   14        4.950759   1.000000
   15        4.958170   1.000000
   16        4.958170   1.000000
   17        5.077618   1.000000
   18        5.242891   1.000000
   19        5.242891   1.000000
   20        5.338370   1.000000
   21        6.426412   1.000000
   22        7.090945   1.034679
   23        7.090945   1.034679
   24        7.974140  -0.000048
   25       15.656082   0.000000
   26       17.048145   0.000000
   27       17.048145   0.000000
   28       17.174161   0.000000
   29       18.195413   0.000000
   30       18.195433   0.000000
 
  0.1111111E+00  0.1111111E+00  0.1111111E+00  0.1097394E-01
    1       -1.405026   1.000000
    2        2.738626   1.000000
    3        2.738626   1.000000
    4        2.738626   1.000000
    5        3.167228   1.000000
    6        3.167228   1.000000
    7        3.167228   1.000000
    8        4.322946   1.000000
    9        4.484705   1.000000
   10        4.484705   1.000000
   11        5.190054   1.000000
   12        5.190054   1.000000
   13        5.403802   1.000000
   14        5.403802   1.000000
   15        5.403802   1.000000
   16        5.598082   1.000000
   17        5.598082   1.000000
   18        5.598082   1.000000
   19        5.850744   1.000000
   20        5.850744   1.000000
   21        5.850744   1.000000
   22        8.721243  -0.000000
   23        8.721243  -0.000000
   24        8.721243  -0.000000
   25       15.694829   0.000000
   26       15.694829   0.000000
   27       15.694829   0.000000
   28       17.931626   0.000000
   29       17.931626   0.000000
   30       17.931626   0.000000
 
  0.2222222E+00  0.1111111E+00  0.1111111E+00  0.3292181E-01
    1       -0.973528   1.000000
    2        2.685250   1.000000
    3        2.923722   1.000000
    4        2.923722   1.000000
    5        3.272920   1.000000
    6        3.279896   1.000000
    7        3.279896   1.000000
    8        4.227733   1.000000
    9        4.553186   1.000000
   10        4.557922   1.000000
   11        4.966203   1.000000
   12        4.966203   1.000000
   13        5.102666   1.000000
   14        5.131430   1.000000
   15        5.257484   1.000000
   16        5.453674   1.000000
   17        5.481762   1.000000
   18        5.481762   1.000000
   19        5.802002   1.000000
   20        5.828527   1.000000
   21        5.828527   1.000000
   22        7.259186   0.846409
   23        9.476457  -0.000000
   24        9.476457  -0.000000
   25       15.897981   0.000000
   26       15.897981   0.000000
   27       16.176861   0.000000
   28       16.176861   0.000000
   29       18.151665   0.000000
   30       18.489214   0.000000
 
  0.3333333E+00  0.1111111E+00  0.1111111E+00  0.3292181E-01
    1       -0.278198   1.000000
    2        2.374830   1.000000
    3        3.175814   1.000000
    4        3.175814   1.000000
    5        3.436862   1.000000
    6        3.460129   1.000000
    7        3.460129   1.000000
    8        4.062662   1.000000
    9        4.491394   1.000000
   10        4.491394   1.000000
   11        4.632499   1.000000
   12        4.679519   1.000000
   13        4.755316   1.000000
   14        5.042289   1.000000
   15        5.257431   1.000000
   16        5.319522   1.000000
   17        5.319522   1.000000
   18        5.358759   1.000000
   19        5.716491   1.000000
   20        5.808451   1.000000
   21        5.808451   1.000000
   22        6.160121   1.000000
   23       10.460631  -0.000000
   24       10.460631  -0.000000
   25       14.442957   0.000000
   26       14.442957   0.000000
   27       16.461082   0.000000
   28       16.461082   0.000000
   29       19.291136   0.000000
   30       19.353472   0.000000
 
  0.4444444E+00  0.1111111E+00  0.1111111E+00  0.3292181E-01
    1        0.628006   1.000000
    2        1.611756   1.000000
    3        3.397587   1.000000
    4        3.397587   1.000000
    5        3.639818   1.000000
    6        3.670230   1.000000
    7        3.670230   1.000000
    8        3.857382   1.000000
    9        4.095934   1.000000
   10        4.095934   1.000000
   11        4.560803   1.000000
   12        4.595003   1.000000
   13        4.845616   1.000000
   14        5.045086   1.000000
   15        5.176220   1.000000
   16        5.176220   1.000000
   17        5.185126   1.000000
   18        5.479582   1.000000
   19        5.540034   1.000000
   20        5.604171   1.000000
   21        5.799727   1.000000
   22        5.799727   1.000000
   23       11.558863  -0.000000
   24       11.558863  -0.000000
   25       13.027656   0.000000
   26       13.027656   0.000000
   27       17.176219   0.000000
   28       17.176219   0.000000
   29       18.172783   0.000000
   30       18.172783   0.000000
 
  0.2222222E+00  0.2222222E+00  0.1111111E+00  0.3292181E-01
    1       -0.554678   1.000000
    2        2.887857   1.000000
    3        2.887857   1.000000
    4        3.075073   1.000000
    5        3.370858   1.000000
    6        3.378050   1.000000
    7        3.378050   1.000000
    8        4.180940   1.000000
    9        4.570705   1.000000
   10        4.588024   1.000000
   11        4.714814   1.000000
   12        4.714814   1.000000
   13        4.743634   1.000000
   14        5.105106   1.000000
   15        5.295273   1.000000
   16        5.330987   1.000000
   17        5.353758   1.000000
   18        5.353758   1.000000
   19        5.782244   1.000000
   20        5.782244   1.000000
   21        5.783374   1.000000
   22        7.918673  -0.000223
   23        7.918673  -0.000223
   24       10.094522  -0.000000
   25       14.178285   0.000000
   26       16.276083   0.000000
   27       16.614647   0.000000
   28       16.614647   0.000000
   29       18.510055   0.000000
   30       18.510055   0.000000
 
  0.3333333E+00  0.2222222E+00  0.1111111E+00  0.6584362E-01
    1        0.116607   1.000000
    2        2.609932   1.000000
    3        3.160345   1.000000
    4        3.276651   1.000000
    5        3.504960   1.000000
    6        3.531986   1.000000
    7        3.544009   1.000000
    8        4.066749   1.000000
    9        4.309511   1.000000
   10        4.430266   1.000000
   11        4.454602   1.000000
   12        4.573992   1.000000
   13        4.669091   1.000000
   14        5.094379   1.000000
   15        5.162529   1.000000
   16        5.191595   1.000000
   17        5.236709   1.000000
   18        5.436105   1.000000
   19        5.687349   1.000000
   20        5.729406   1.000000
   21        5.730014   1.000000
   22        6.684814   1.000013
   23        8.753287  -0.000000
   24       10.895331  -0.000000
   25       12.596387  -0.000000
   26       14.956818   0.000000
   27       16.787675   0.000000
   28       17.424264   0.000000
   29       19.054316   0.000000
   30       19.830399   0.000000
 
  0.4444444E+00  0.2222222E+00  0.1111111E+00  0.6584362E-01
    1        0.982231   1.000000
    2        1.905773   1.000000
    3        3.419333   1.000000
    4        3.489164   1.000000
    5        3.576448   1.000000
    6        3.660306   1.000000
    7        3.716163   1.000000
    8        3.902641   1.000000
    9        4.063833   1.000000
   10        4.159068   1.000000
   11        4.392776   1.000000
   12        4.490108   1.000000
   13        4.792438   1.000000
   14        4.962333   1.000000
   15        5.088605   1.000000
   16        5.111629   1.000000
   17        5.245332   1.000000
   18        5.504823   1.000000
   19        5.631453   1.000000
   20        5.697743   1.000000
   21        5.698099   1.000000
   22        5.962097   1.000000
   23        9.727786  -0.000000
   24       10.799546  -0.000000
   25       12.361875  -0.000000
   26       13.516743   0.000000
   27       17.550330   0.000000
   28       18.486929   0.000000
   29       18.566008   0.000000
   30       19.776304   0.000000
 
  0.3333333E+00  0.3333333E+00  0.1111111E+00  0.3292181E-01
    1        0.740386   1.000000
    2        2.916544   1.000000
    3        2.916544   1.000000
    4        3.331094   1.000000
    5        3.637441   1.000000
    6        3.692656   1.000000
    7        3.692656   1.000000
    8        4.040427   1.000000
    9        4.186512   1.000000
   10        4.186512   1.000000
   11        4.320383   1.000000
   12        4.518829   1.000000
   13        4.686467   1.000000
   14        5.050883   1.000000
   15        5.076674   1.000000
   16        5.076674   1.000000
   17        5.091106   1.000000
   18        5.605758   1.000000
   19        5.605758   1.000000
   20        5.638044   1.000000
   21        5.645390   1.000000
   22        7.356851   0.474698
   23        7.356851   0.474698
   24       10.484981  -0.000000
   25       12.144135  -0.000000
   26       15.746966   0.000000
   27       15.746966   0.000000
   28       17.351874   0.000000
   29       19.559412   0.000000
   30       20.540278   0.000000
 
  0.4444444E+00  0.3333333E+00  0.1111111E+00  0.6584362E-01
    1        1.522536   1.000000
    2        2.321006   1.000000
    3        3.177108   1.000000
    4        3.310168   1.000000
    5        3.777925   1.000000
    6        3.838246   1.000000
    7        3.847623   1.000000
    8        3.966017   1.000000
    9        4.067687   1.000000
   10        4.187242   1.000000
   11        4.246158   1.000000
   12        4.404196   1.000000
   13        4.752361   1.000000
   14        4.893746   1.000000
   15        4.958326   1.000000
   16        4.980936   1.000000
   17        5.200386   1.000000
   18        5.414129   1.000000
   19        5.554765   1.000000
   20        5.567815   1.000000
   21        5.950023   1.000000
   22        6.448956   1.000000
   23        8.185788  -0.000000
   24        9.234425  -0.000000
   25       13.066716   0.000000
   26       14.292276   0.000000
   27       16.788794   0.000000
   28       18.062355   0.000000
   29       18.172096   0.000000
   30       19.249546   0.000000
 
  0.4444444E+00  0.4444444E+00  0.1111111E+00  0.3292181E-01
    1        2.154892   1.000000
    2        2.741551   1.000000
    3        2.741551   1.000000
    4        3.070737   1.000000
    5        3.983288   1.000000
    6        4.013238   1.000000
    7        4.013238   1.000000
    8        4.019371   1.000000
    9        4.138710   1.000000
   10        4.138710   1.000000
   11        4.155195   1.000000
   12        4.305160   1.000000
   13        4.737749   1.000000
   14        4.827128   1.000000
   15        4.827128   1.000000
   16        4.842119   1.000000
   17        5.232173   1.000000
   18        5.378571   1.000000
   19        5.378571   1.000000
   20        5.441077   1.000000
   21        6.391976   1.000000
   22        7.081145   1.033472
   23        7.081145   1.033472
   24        7.977670  -0.000043
   25       14.075072   0.000000
   26       15.317636   0.000000
   27       15.317636   0.000000
   28       16.575627   0.000000
   29       19.053929   0.000000
   30       20.191562   0.000000
 
  0.2222222E+00  0.2222222E+00  0.2222222E+00  0.1097394E-01
    1       -0.153952   1.000000
    2        3.018187   1.000000
    3        3.018187   1.000000
    4        3.018187   1.000000
    5        3.479895   1.000000
    6        3.479895   1.000000
    7        3.479895   1.000000
    8        4.172707   1.000000
    9        4.555862   1.000000
   10        4.555862   1.000000
   11        4.555862   1.000000
   12        4.570164   1.000000
   13        4.570164   1.000000
   14        5.157261   1.000000
   15        5.157261   1.000000
   16        5.157261   1.000000
   17        5.242832   1.000000
   18        5.242832   1.000000
   19        5.812519   1.000000
   20        5.812519   1.000000
   21        5.812519   1.000000
   22        8.410920  -0.000000
   23        8.410920  -0.000000
   24        8.410920  -0.000000
   25       14.702853   0.000000
   26       14.702853   0.000000
   27       14.702853   0.000000
   28       18.846001   0.000000
   29       18.846001   0.000000
   30       18.846001   0.000000
 
  0.3333333E+00  0.2222222E+00  0.2222222E+00  0.3292181E-01
    1        0.481560   1.000000
    2        2.738447   1.000000
    3        3.163106   1.000000
    4        3.163106   1.000000
    5        3.635140   1.000000
    6        3.635140   1.000000
    7        3.655708   1.000000
    8        4.117777   1.000000
    9        4.356416   1.000000
   10        4.356416   1.000000
   11        4.379151   1.000000
   12        4.552504   1.000000
   13        4.591025   1.000000
   14        4.966214   1.000000
   15        5.033211   1.000000
   16        5.033211   1.000000
   17        5.259111   1.000000
   18        5.409275   1.000000
   19        5.767381   1.000000
   20        5.767381   1.000000
   21        5.787776   1.000000
   22        7.008550   1.018045
   23        9.091857  -0.000000
   24        9.091857  -0.000000
   25       13.082967   0.000000
   26       13.082967   0.000000
   27       15.498162   0.000000
   28       19.321867   0.000000
   29       19.418650   0.000000
   30       19.418650   0.000000
 
  0.4444444E+00  0.2222222E+00  0.2222222E+00  0.3292181E-01
    1        1.284341   1.000000
    2        2.113069   1.000000
    3        3.266636   1.000000
    4        3.266636   1.000000
    5        3.732427   1.000000
    6        3.732427   1.000000
    7        3.847268   1.000000
    8        4.006545   1.000000
    9        4.262827   1.000000
   10        4.262827   1.000000
   11        4.356969   1.000000
   12        4.460020   1.000000
   13        4.666176   1.000000
   14        4.795063   1.000000
   15        4.946598   1.000000
   16        4.946598   1.000000
   17        5.498447   1.000000
   18        5.571095   1.000000
   19        5.703615   1.000000
   20        5.717645   1.000000
   21        5.717645   1.000000
   22        6.051642   1.000000
   23        9.786859  -0.000000
   24        9.786859  -0.000000
   25       11.916516  -0.000000
   26       11.916516  -0.000000
   27       16.544024   0.000000
   28       17.821091   0.000000
   29       20.225091   0.000000
   30       20.225091   0.000000
 
  0.3333333E+00  0.3333333E+00  0.2222222E+00  0.3292181E-01
    1        1.044973   1.000000
    2        2.872486   1.000000
    3        2.872486   1.000000
    4        3.119376   1.000000
    5        3.796924   1.000000
    6        3.848255   1.000000
    7        3.848255   1.000000