<?xml version="1.0" encoding="ISO-8859-1"?>
<modeling>
 <generator>
  <i name="program" type="string">vasp </i>
  <i name="version" type="string">6.2.0  </i>
  <i name="subversion" type="string">18Jan21 (build Mar 17 2021 09:06:54) complex                          serial </i>
  <i name="platform" type="string">LinuxIFC </i>
  <i name="date" type="string">2021 08 03 </i>
  <i name="time" type="string">10:21:43 </i>
 </generator>
 <incar>
  <i type="string" name="PREC">normal</i>
  <i type="int" name="ICHARG">     1</i>
  <i type="int" name="IBRION">     1</i>
  <i name="EDIFF">      0.00000100</i>
  <i type="int" name="NSW">     0</i>
  <i type="int" name="ISIF">     4</i>
  <i name="ENCUT">    320.00000000</i>
  <i type="int" name="NBANDS">    30</i>
  <i type="int" name="ISMEAR">     1</i>
  <i name="SIGMA">      0.20000000</i>
  <i type="logical" name="LCHARG"> T  </i>
  <i type="int" name="KPAR">     1</i>
  <i type="int" name="NCORE">     1</i>
  <i type="string" name="GGA">PE</i>
 </incar>
 <primitive_cell>
  <structure name="primitive_cell" >
   <crystal>
    <varray name="basis" >
     <v>       1.81750000      -1.81750000       0.00000000 </v>
     <v>       1.81750000       0.00000000       1.81750000 </v>
     <v>       0.00000000      -1.81750000       1.81750000 </v>
    </varray>
    <i name="volume">     12.00751822 </i>
    <varray name="rec_basis" >
     <v>       0.27510316      -0.27510316      -0.27510316 </v>
     <v>       0.27510316       0.27510316       0.27510316 </v>
     <v>      -0.27510316      -0.27510316       0.27510316 </v>
    </varray>
   </crystal>
   <varray name="positions" >
    <v>       0.00000000       0.00000000       0.00000000 </v>
   </varray>
  </structure>
  <varray name="primitive_index" >
   <v type="int" >        1 </v>
  </varray>
 </primitive_cell>
 <kpoints>
  <generation param="Monkhorst-Pack">
   <v type="int" name="divisions">       9        9        9 </v>
   <v name="usershift">      0.00000000       0.00000000       0.00000000 </v>
   <v name="genvec1">      0.11111111       0.00000000       0.00000000 </v>
   <v name="genvec2">      0.00000000       0.11111111       0.00000000 </v>
   <v name="genvec3">      0.00000000       0.00000000       0.11111111 </v>
   <v name="shift">      0.00000000       0.00000000       0.00000000 </v>
  </generation>
  <varray name="kpointlist" >
   <v>       0.00000000       0.00000000       0.00000000 </v>
   <v>       0.11111111       0.00000000       0.00000000 </v>
   <v>       0.22222222       0.00000000       0.00000000 </v>
   <v>       0.33333333       0.00000000       0.00000000 </v>
   <v>       0.44444444       0.00000000       0.00000000 </v>
   <v>       0.11111111       0.11111111       0.00000000 </v>
   <v>       0.22222222       0.11111111       0.00000000 </v>
   <v>       0.33333333       0.11111111       0.00000000 </v>
   <v>       0.44444444       0.11111111       0.00000000 </v>
   <v>       0.22222222       0.22222222       0.00000000 </v>
   <v>       0.33333333       0.22222222       0.00000000 </v>
   <v>       0.44444444       0.22222222       0.00000000 </v>
   <v>       0.33333333       0.33333333       0.00000000 </v>
   <v>       0.44444444       0.33333333       0.00000000 </v>
   <v>       0.44444444       0.44444444       0.00000000 </v>
   <v>       0.11111111       0.11111111       0.11111111 </v>
   <v>       0.22222222       0.11111111       0.11111111 </v>
   <v>       0.33333333       0.11111111       0.11111111 </v>
   <v>       0.44444444       0.11111111       0.11111111 </v>
   <v>       0.22222222       0.22222222       0.11111111 </v>
   <v>       0.33333333       0.22222222       0.11111111 </v>
   <v>       0.44444444       0.22222222       0.11111111 </v>
   <v>       0.33333333       0.33333333       0.11111111 </v>
   <v>       0.44444444       0.33333333       0.11111111 </v>
   <v>       0.44444444       0.44444444       0.11111111 </v>
   <v>       0.22222222       0.22222222       0.22222222 </v>
   <v>       0.33333333       0.22222222       0.22222222 </v>
   <v>       0.44444444       0.22222222       0.22222222 </v>
   <v>       0.33333333       0.33333333       0.22222222 </v>
   <v>       0.44444444       0.33333333       0.22222222 </v>
   <v>       0.44444444       0.44444444       0.22222222 </v>
   <v>       0.33333333       0.33333333       0.33333333 </v>
   <v>       0.44444444       0.33333333       0.33333333 </v>
   <v>       0.44444444       0.44444444       0.33333333 </v>
   <v>       0.44444444       0.44444444       0.44444444 </v>
  </varray>
  <varray name="weights" >
   <v>       0.00137174 </v>
   <v>       0.00823045 </v>
   <v>       0.00823045 </v>
   <v>       0.00823045 </v>
   <v>       0.00823045 </v>
   <v>       0.01646091 </v>
   <v>       0.03292181 </v>
   <v>       0.03292181 </v>
   <v>       0.03292181 </v>
   <v>       0.01646091 </v>
   <v>       0.03292181 </v>
   <v>       0.03292181 </v>
   <v>       0.01646091 </v>
   <v>       0.03292181 </v>
   <v>       0.01646091 </v>
   <v>       0.01097394 </v>
   <v>       0.03292181 </v>
   <v>       0.03292181 </v>
   <v>       0.03292181 </v>
   <v>       0.03292181 </v>
   <v>       0.06584362 </v>
   <v>       0.06584362 </v>
   <v>       0.03292181 </v>
   <v>       0.06584362 </v>
   <v>       0.03292181 </v>
   <v>       0.01097394 </v>
   <v>       0.03292181 </v>
   <v>       0.03292181 </v>
   <v>       0.03292181 </v>
   <v>       0.06584362 </v>
   <v>       0.03292181 </v>
   <v>       0.01097394 </v>
   <v>       0.03292181 </v>
   <v>       0.03292181 </v>
   <v>       0.01097394 </v>
  </varray>
 </kpoints>
 <parameters>
  <separator name="general" >
   <i type="string" name="SYSTEM">unknown system</i>
   <i type="logical" name="LCOMPAT"> F  </i>
  </separator>
  <separator name="electronic" >
   <i type="string" name="PREC">normal</i>
   <i name="ENMAX">    320.00000000</i>
   <i name="ENAUG">    586.98000000</i>
   <i name="EDIFF">      0.00000100</i>
   <i type="int" name="IALGO">    38</i>
   <i type="int" name="IWAVPR">     0</i>
   <i type="int" name="NBANDS">    30</i>
   <i type="int" name="NBANDSLOW">    -1</i>
   <i type="int" name="NBANDSHIGH">    -1</i>
   <i name="NELECT">     44.00000000</i>
   <i type="int" name="TURBO">     0</i>
   <i type="int" name="IRESTART">     0</i>
   <i type="int" name="NREBOOT">     0</i>
   <i type="int" name="NMIN">     0</i>
   <i name="EREF">      0.00000000</i>
   <separator name="electronic smearing" >
    <i type="int" name="ISMEAR">     1</i>
    <i name="SIGMA">      0.20000000</i>
    <i name="KSPACING">      0.50000000</i>
    <i type="logical" name="KGAMMA"> T  </i>
    <i type="logical" name="KBLOWUP"> T  </i>
   </separator>
   <separator name="electronic projectors" >
    <i type="logical" name="LREAL"> F  </i>
    <v name="ROPT">      0.00000000</v>
    <i type="int" name="LMAXPAW">  -100</i>
    <i type="int" name="LMAXMIX">     2</i>
    <i type="logical" name="NLSPLINE"> F  </i>
   </separator>
   <separator name="electronic startup" >
    <i type="int" name="ISTART">     0</i>
    <i type="int" name="ICHARG">     1</i>
    <i type="int" name="INIWAV">     1</i>
   </separator>
   <separator name="electronic spin" >
    <i type="int" name="ISPIN">     1</i>
    <i type="logical" name="LNONCOLLINEAR"> F  </i>
    <v name="MAGMOM">      1.00000000      1.00000000      1.00000000      1.00000000</v>
    <i name="NUPDOWN">     -1.00000000</i>
    <i type="logical" name="LSORBIT"> F  </i>
    <v name="SAXIS">      0.00000000      0.00000000      1.00000000</v>
    <i type="logical" name="LSPIRAL"> F  </i>
    <v name="QSPIRAL">      0.00000000      0.00000000      0.00000000</v>
    <i type="logical" name="LZEROZ"> F  </i>
   </separator>
   <separator name="electronic exchange-correlation" >
    <i type="logical" name="LASPH"> F  </i>
    <i type="logical" name="LMETAGGA"> F  </i>
   </separator>
   <separator name="electronic convergence" >
    <i type="int" name="NELM">    60</i>
    <i type="int" name="NELMDL">    -5</i>
    <i type="int" name="NELMIN">     2</i>
    <i name="ENINI">    320.00000000</i>
    <separator name="electronic convergence detail" >
     <i type="logical" name="LDIAG"> T  </i>
     <i type="logical" name="LSUBROT"> F  </i>
     <i name="WEIMIN">      0.00000000</i>
     <i name="EBREAK">      0.00000001</i>
     <i name="DEPER">      0.30000000</i>
     <i type="int" name="NRMM">     4</i>
     <i name="TIME">      0.40000000</i>
    </separator>
   </separator>
   <separator name="electronic mixer" >
    <i name="AMIX">      0.40000000</i>
    <i name="BMIX">      1.00000000</i>
    <i name="AMIN">      0.10000000</i>
    <i name="AMIX_MAG">      1.60000000</i>
    <i name="BMIX_MAG">      1.00000000</i>
    <separator name="electronic mixer details" >
     <i type="int" name="IMIX">     4</i>
     <i type="logical" name="MIXFIRST"> F  </i>
     <i type="int" name="MAXMIX">   -45</i>
     <i name="WC">    100.00000000</i>
     <i type="int" name="INIMIX">     1</i>
     <i type="int" name="MIXPRE">     1</i>
     <i type="int" name="MREMOVE">     5</i>
    </separator>
   </separator>
   <separator name="electronic dipolcorrection" >
    <i type="logical" name="LDIPOL"> F  </i>
    <i type="logical" name="LMONO"> F  </i>
    <i type="int" name="IDIPOL">     0</i>
    <i name="EPSILON">      1.00000000</i>
    <v name="DIPOL">   -100.00000000   -100.00000000   -100.00000000</v>
    <i name="EFIELD">      0.00000000</i>
   </separator>
  </separator>
  <separator name="grids" >
   <i type="int" name="NGX">    16</i>
   <i type="int" name="NGY">    16</i>
   <i type="int" name="NGZ">    16</i>
   <i type="int" name="NGXF">    32</i>
   <i type="int" name="NGYF">    32</i>
   <i type="int" name="NGZF">    32</i>
   <i type="logical" name="ADDGRID"> F  </i>
  </separator>
  <separator name="ionic" >
   <i type="int" name="NSW">     0</i>
   <i type="int" name="IBRION">    -1</i>
   <i type="int" name="MDALGO">     0</i>
   <i type="int" name="ISIF">     4</i>
   <i name="PSTRESS">      0.00000000</i>
   <i name="EDIFFG">      0.00001000</i>
   <i type="int" name="NFREE">     0</i>
   <i name="POTIM">      0.50000000</i>
   <i name="SMASS">     -3.00000000</i>
   <i name="SCALEE">      1.00000000</i>
  </separator>
  <separator name="ionic md" >
   <i name="TEBEG">      0.00010000</i>
   <i name="TEEND">      0.00010000</i>
   <i type="int" name="NBLOCK">     1</i>
   <i type="int" name="KBLOCK">     1</i>
   <i type="int" name="NPACO">   256</i>
   <i name="APACO">     16.00000000</i>
  </separator>
  <separator name="symmetry" >
   <i type="int" name="ISYM">     2</i>
   <i name="SYMPREC">      0.00001000</i>
  </separator>
  <separator name="dos" >
   <i type="int" name="LORBIT">     0</i>
   <v name="RWIGS">     -1.00000000</v>
   <i type="int" name="NEDOS">   301</i>
   <i name="EMIN">     10.00000000</i>
   <i name="EMAX">    -10.00000000</i>
   <i name="EFERMI">      0.00000000</i>
  </separator>
  <separator name="writing" >
   <i type="int" name="NWRITE">     2</i>
   <i type="logical" name="LWAVE"> T  </i>
   <i type="logical" name="LDOWNSAMPLE"> F  </i>
   <i type="logical" name="LCHARG"> T  </i>
   <i type="logical" name="LPARD"> F  </i>
   <i type="logical" name="LVTOT"> F  </i>
   <i type="logical" name="LVHAR"> F  </i>
   <i type="logical" name="LELF"> F  </i>
   <i type="logical" name="LOPTICS"> F  </i>
   <v name="STM">      0.00000000      0.00000000      0.00000000      0.00000000      0.00000000      0.00000000      0.00000000</v>
  </separator>
  <separator name="performance" >
   <i type="int" name="NPAR">     1</i>
   <i type="int" name="NSIM">     4</i>
   <i type="int" name="NBLK">    -1</i>
   <i type="logical" name="LPLANE"> T  </i>
   <i type="logical" name="LSCALAPACK"> F  </i>
   <i type="logical" name="LSCAAWARE"> F  </i>
   <i type="logical" name="LSCALU"> F  </i>
   <i type="logical" name="LASYNC"> F  </i>
   <i type="logical" name="LORBITALREAL"> F  </i>
  </separator>
  <separator name="miscellaneous" >
   <i type="int" name="IDIOT">     3</i>
   <i type="int" name="PHON_NSTRUCT">    -1</i>
   <i type="logical" name="LMUSIC"> F  </i>
   <v name="POMASS">     63.54600000</v>
   <v name="DARWINR">      0.00000000</v>
   <v name="DARWINV">      1.00000000</v>
   <i type="logical" name="LCORR"> T  </i>
  </separator>
  <i type="logical" name="GGA_COMPAT"> T  </i>
  <i type="logical" name="LBERRY"> F  </i>
  <i type="int" name="ICORELEVEL">     0</i>
  <i type="logical" name="LDAU"> F  </i>
  <i type="int" name="I_CONSTRAINED_M">     0</i>
  <separator name="electronic exchange-correlation" >
   <i type="string" name="GGA">PE</i>
   <i type="int" name="VOSKOWN">     0</i>
   <i type="logical" name="LHFCALC"> F  </i>
   <i type="string" name="PRECFOCK"></i>
   <i type="logical" name="LSYMGRAD"> F  </i>
   <i type="logical" name="LHFONE"> F  </i>
   <i type="logical" name="LRHFCALC"> F  </i>
   <i type="logical" name="LTHOMAS"> F  </i>
   <i type="logical" name="LMODELHF"> F  </i>
   <i type="logical" name="LFOCKACE"> F  </i>
   <i name="ENCUT4O">     -1.00000000</i>
   <i type="int" name="EXXOEP">     0</i>
   <i type="int" name="FOURORBIT">     0</i>
   <i name="AEXX">      0.00000000</i>
   <i name="HFALPHA">      0.00000000</i>
   <i name="MCALPHA">      0.00000000</i>
   <i name="ALDAX">      1.00000000</i>
   <i name="AGGAX">      1.00000000</i>
   <i name="ALDAC">      1.00000000</i>
   <i name="AGGAC">      1.00000000</i>
   <i type="int" name="NKREDX">     1</i>
   <i type="int" name="NKREDY">     1</i>
   <i type="int" name="NKREDZ">     1</i>
   <i type="logical" name="SHIFTRED"> F  </i>
   <i type="logical" name="ODDONLY"> F  </i>
   <i type="logical" name="EVENONLY"> F  </i>
   <i type="int" name="LMAXFOCK">     0</i>
   <i type="int" name="NMAXFOCKAE">     0</i>
   <i type="logical" name="LFOCKAEDFT"> F  </i>
   <i name="HFSCREEN">      0.00000000</i>
   <i name="HFSCREENC">      0.00000000</i>
   <i type="int" name="NBANDSGWLOW">     0</i>
  </separator>
  <separator name="vdW DFT" >
   <i type="logical" name="LUSE_VDW"> F  </i>
   <i name="Zab_VDW">     -0.84910000</i>
   <i name="PARAM1">      0.12340000</i>
   <i name="PARAM2">      1.00000000</i>
   <i name="PARAM3">      0.00000000</i>
  </separator>
  <separator name="model GW" >
   <i type="int" name="MODEL_GW">     0</i>
   <i name="MODEL_EPS0">      7.20451093</i>
   <i name="MODEL_ALPHA">      1.00000000</i>
  </separator>
  <separator name="linear response parameters" >
   <i type="logical" name="LEPSILON"> F  </i>
   <i type="logical" name="LRPA"> F  </i>
   <i type="logical" name="LNABLA"> F  </i>
   <i type="logical" name="LVEL"> F  </i>
   <i type="int" name="KINTER">     0</i>
   <i name="CSHIFT">      0.10000000</i>
   <i name="OMEGAMAX">     -1.00000000</i>
   <i name="DEG_THRESHOLD">      0.00200000</i>
   <i name="RTIME">     -0.10000000</i>
   <i name="WPLASMAI">      0.00000000</i>
   <v name="DFIELD">      0.00000000      0.00000000      0.00000000</v>
   <v name="WPLASMA">      0.00000000      0.00000000      0.00000000      0.00000000      0.00000000      0.00000000      0.00000000      0.00000000      0.00000000</v>
  </separator>
  <separator name="orbital magnetization" >
   <i type="logical" name="NUCIND"> F  </i>
   <v name="MAGPOS">      0.00000000      0.00000000      0.00000000</v>
   <i type="logical" name="LNICSALL"> T  </i>
   <i type="logical" name="ORBITALMAG"> F  </i>
   <i type="logical" name="LMAGBLOCH"> F  </i>
   <i type="logical" name="LCHIMAG"> F  </i>
   <i type="logical" name="LGAUGE"> T  </i>
   <i type="int" name="MAGATOM">     0</i>
   <v name="MAGDIPOL">      0.00000000      0.00000000      0.00000000</v>
   <v name="AVECCONST">      0.00000000      0.00000000      0.00000000</v>
  </separator>
  <separator name="response functions" >
   <i type="logical" name="LFINITE_TEMPERATURE"> F  </i>
   <i type="logical" name="LADDER"> F  </i>
   <i type="logical" name="LRPAFORCE"> F  </i>
   <i type="logical" name="LFXC"> F  </i>
   <i type="logical" name="LHARTREE"> T  </i>
   <i type="int" name="IBSE">     0</i>
   <v type="int" name="KPOINT">    -1     0     0     0</v>
   <i type="logical" name="LTCTC"> F  </i>
   <i type="logical" name="LTCTE"> F  </i>
   <i type="logical" name="LTETE"> F  </i>
   <i type="logical" name="LTRIPLET"> F  </i>
   <i type="logical" name="LFXCEPS"> F  </i>
   <i type="logical" name="LFXHEG"> F  </i>
   <i type="int" name="NATURALO">     2</i>
   <i type="logical" name="LHOLEGF"> F  </i>
   <i type="logical" name="L2ORDER"> F  </i>
   <i type="logical" name="LDMP1"> F  </i>
   <i type="logical" name="LMP2LT"> F  </i>
   <i type="logical" name="LSMP2LT"> F  </i>
   <i type="logical" name="LGWLF"> F  </i>
   <i name="ENCUTGW">     -2.00000000</i>
   <i name="ENCUTGWSOFT">     -2.00000000</i>
   <i name="ENCUTLF">     -1.00000000</i>
   <i type="logical" name="LESF_SPLINES"> F  </i>
   <i type="int" name="LMAXMP2">    -1</i>
   <i name="SCISSOR">      0.00000000</i>
   <i type="int" name="NOMEGA">     0</i>
   <i type="int" name="NOMEGAR">     0</i>
   <i type="int" name="NBANDSGW">    -1</i>
   <i type="int" name="NBANDSO">    -1</i>
   <i type="int" name="NBANDSV">    -1</i>
   <i type="int" name="NELM">     1</i>
   <i type="int" name="NELMHF">     1</i>
   <i type="int" name="DIM">     3</i>
   <i type="int" name="IESPILON">     4</i>
   <i type="int" name="ANTIRES">     0</i>
   <i name="OMEGAMAX">    -30.00000000</i>
   <i name="OMEGAMIN">    -30.00000000</i>
   <i name="OMEGATL">   -200.00000000</i>
   <i type="int" name="OMEGAGRID">     0</i>
   <i name="CSHIFT">     -0.10000000</i>
   <i type="logical" name="LSELFENERGY"> F  </i>
   <i type="logical" name="LSPECTRAL"> F  </i>
   <i type="logical" name="LSPECTRALGW"> F  </i>
   <i type="logical" name="LSINGLES"> F  </i>
   <i type="logical" name="LFERMIGW"> F  </i>
   <i type="logical" name="ODDONLYGW"> F  </i>
   <i type="logical" name="EVENONLYGW"> F  </i>
   <i type="int" name="NKREDLFX">     1</i>
   <i type="int" name="NKREDLFY">     1</i>
   <i type="int" name="NKREDLFZ">     1</i>
   <i type="int" name="MAXMEM">  2800</i>
   <i type="int" name="TELESCOPE">     0</i>
   <i type="int" name="NTAUPAR">    -1</i>
   <i type="int" name="NOMEGAPAR">    -1</i>
   <i name="DAMP_NEWTON">      0.80000001</i>
   <i name="LAMBDA">      1.00000000</i>
  </separator>
  <separator name="External order field" >
   <i name="OFIELD_KAPPA">      0.00000000</i>
   <v name="OFIELD_K">      0.00000000      0.00000000      0.00000000</v>
   <i name="OFIELD_Q6_NEAR">      0.00000000</i>
   <i name="OFIELD_Q6_FAR">      0.00000000</i>
   <i name="OFIELD_A">      0.00000000</i>
  </separator>
 </parameters>
 <atominfo>
  <atoms>       4 </atoms>
  <types>       1 </types>
  <array name="atoms" >
   <dimension dim="1">ion</dimension>
   <field type="string">element</field>
   <field type="int">atomtype</field>
   <set>
    <rc><c>Cu</c><c>   1</c></rc>
    <rc><c>Cu</c><c>   1</c></rc>
    <rc><c>Cu</c><c>   1</c></rc>
    <rc><c>Cu</c><c>   1</c></rc>
   </set>
  </array>
  <array name="atomtypes" >
   <dimension dim="1">type</dimension>
   <field type="int">atomspertype</field>
   <field type="string">element</field>
   <field>mass</field>
   <field>valence</field>
   <field type="string">pseudopotential</field>
   <set>
    <rc><c>   4</c><c>Cu</c><c>     63.54600000</c><c>     11.00000000</c><c>  PAW_PBE Cu 22Jun2005                  </c></rc>
   </set>
  </array>
 </atominfo>
 <structure name="initialpos" >
  <crystal>
   <varray name="basis" >
    <v>       3.63500000       0.00000000       0.00000000 </v>
    <v>       0.00000000       3.63500000       0.00000000 </v>
    <v>       0.00000000       0.00000000       3.63500000 </v>
   </varray>
   <i name="volume">     48.03007287 </i>
   <varray name="rec_basis" >
    <v>       0.27510316       0.00000000       0.00000000 </v>
    <v>       0.00000000       0.27510316       0.00000000 </v>
    <v>       0.00000000       0.00000000       0.27510316 </v>
   </varray>
  </crystal>
  <varray name="positions" >
   <v>       0.00000000       0.00000000       0.00000000 </v>
   <v>       0.50000000       0.50000000       0.00000000 </v>
   <v>       0.50000000       0.00000000       0.50000000 </v>
   <v>       0.00000000       0.50000000       0.50000000 </v>
  </varray>
 </structure>
 <calculation>
  <scstep>
   <time name="dav">    0.46    0.48</time>
   <time name="total">    0.47    0.49</time>
   <energy>
    <i name="alphaZ">    243.62337785 </i>
    <i name="ewald">  -4395.34838493 </i>
    <i name="hartreedc">  -1460.68397545 </i>
    <i name="XCdc">    182.95596869 </i>
    <i name="pawpsdc">   4912.82663951 </i>
    <i name="pawaedc">  -5336.19386850 </i>
    <i name="eentropy">      0.00253905 </i>
    <i name="bandstr">    571.19508066 </i>
    <i name="atom">   5563.77610493 </i>
    <i name="e_fr_energy">    282.15348180 </i>
    <i name="e_wo_entrp">    282.15094275 </i>
    <i name="e_0_energy">    282.15263545 </i>
   </energy>
  </scstep>
  <scstep>
   <time name="dav">    0.41    0.41</time>
   <time name="total">    0.42    0.42</time>
   <energy>
    <i name="e_fr_energy">      2.29131504 </i>
    <i name="e_wo_entrp">      2.29222359 </i>
    <i name="e_0_energy">      2.29161789 </i>
   </energy>
  </scstep>
  <scstep>
   <time name="dav">    0.45    0.45</time>
   <time name="total">    0.45    0.45</time>
   <energy>
    <i name="e_fr_energy">    -18.10411622 </i>
    <i name="e_wo_entrp">    -18.10119388 </i>
    <i name="e_0_energy">    -18.10314211 </i>
   </energy>
  </scstep>
  <scstep>
   <time name="dav">    0.45    0.45</time>
   <time name="total">    0.45    0.45</time>
   <energy>
    <i name="e_fr_energy">    -18.50310330 </i>
    <i name="e_wo_entrp">    -18.50005469 </i>
    <i name="e_0_energy">    -18.50208710 </i>
   </energy>
  </scstep>
  <scstep>
   <time name="dav">    0.49    0.49</time>
   <time name="total">    0.52    0.52</time>
   <energy>
    <i name="e_fr_energy">    -18.50841736 </i>
    <i name="e_wo_entrp">    -18.50536699 </i>
    <i name="e_0_energy">    -18.50740057 </i>
   </energy>
  </scstep>
  <scstep>
   <time name="dav">    0.42    0.42</time>
   <time name="total">    0.47    0.47</time>
   <energy>
    <i name="e_fr_energy">    -16.39710210 </i>
    <i name="e_wo_entrp">    -16.39728950 </i>
    <i name="e_0_energy">    -16.39716457 </i>
   </energy>
  </scstep>
  <scstep>
   <time name="dav">    0.43    0.43</time>
   <time name="total">    0.47    0.47</time>
   <energy>
    <i name="e_fr_energy">    -14.99024903 </i>
    <i name="e_wo_entrp">    -14.99185313 </i>
    <i name="e_0_energy">    -14.99078373 </i>
   </energy>
  </scstep>
  <scstep>
   <time name="dav">    0.48    0.48</time>
   <time name="total">    0.53    0.53</time>
   <energy>
    <i name="e_fr_energy">    -14.96132190 </i>
    <i name="e_wo_entrp">    -14.96298635 </i>
    <i name="e_0_energy">    -14.96187672 </i>
   </energy>
  </scstep>
  <scstep>
   <time name="dav">    0.43    0.43</time>
   <time name="total">    0.48    0.48</time>
   <energy>
    <i name="e_fr_energy">    -14.95067164 </i>
    <i name="e_wo_entrp">    -14.95214020 </i>
    <i name="e_0_energy">    -14.95116116 </i>
   </energy>
  </scstep>
  <scstep>
   <time name="dav">    0.47    0.47</time>
   <time name="total">    0.52    0.52</time>
   <energy>
    <i name="e_fr_energy">    -14.95078214 </i>
    <i name="e_wo_entrp">    -14.95225618 </i>
    <i name="e_0_energy">    -14.95127349 </i>
   </energy>
  </scstep>
  <scstep>
   <time name="dav">    0.44    0.44</time>
   <time name="total">    0.49    0.49</time>
   <energy>
    <i name="e_fr_energy">    -14.95078010 </i>
    <i name="e_wo_entrp">    -14.95225172 </i>
    <i name="e_0_energy">    -14.95127064 </i>
   </energy>
  </scstep>
  <scstep>
   <time name="dav">    0.30    0.30</time>
   <time name="total">    0.34    0.34</time>
   <energy>
    <i name="e_fr_energy">    -14.95078338 </i>
    <i name="e_wo_entrp">    -14.95225347 </i>
    <i name="e_0_energy">    -14.95127341 </i>
   </energy>
  </scstep>
  <scstep>
   <time name="dav">    0.29    0.29</time>
   <time name="total">    0.30    0.30</time>
   <energy>
    <i name="alphaZ">    243.62337785 </i>
    <i name="ewald">  -4395.34838493 </i>
    <i name="hartreedc">  -1368.00611239 </i>
    <i name="XCdc">    178.57718761 </i>
    <i name="pawpsdc">   5243.18070879 </i>
    <i name="pawaedc">  -5674.32239060 </i>
    <i name="eentropy">      0.00147024 </i>
    <i name="bandstr">    193.56725486 </i>
    <i name="atom">   5563.77610493 </i>
    <i name="e_fr_energy">    -14.95078365 </i>
    <i name="e_wo_entrp">    -14.95225389 </i>
    <i name="e_0_energy">    -14.95127373 </i>
   </energy>
  </scstep>
  <structure>
   <crystal>
    <varray name="basis" >
     <v>       3.63500000       0.00000000       0.00000000 </v>
     <v>       0.00000000       3.63500000       0.00000000 </v>
     <v>       0.00000000       0.00000000       3.63500000 </v>
    </varray>
    <i name="volume">     48.03007287 </i>
    <varray name="rec_basis" >
     <v>       0.27510316       0.00000000       0.00000000 </v>
     <v>       0.00000000       0.27510316       0.00000000 </v>
     <v>       0.00000000       0.00000000       0.27510316 </v>
    </varray>
   </crystal>
   <varray name="positions" >
    <v>       0.00000000       0.00000000       0.00000000 </v>
    <v>       0.50000000       0.50000000       0.00000000 </v>
    <v>       0.50000000       0.00000000       0.50000000 </v>
    <v>       0.00000000       0.50000000       0.50000000 </v>
   </varray>
  </structure>
  <varray name="forces" >
   <v>      -0.00000000       0.00000000      -0.00000000 </v>
   <v>       0.00000000      -0.00000000      -0.00000000 </v>
   <v>      -0.00000000      -0.00000000       0.00000000 </v>
   <v>       0.00000000       0.00000000       0.00000000 </v>
  </varray>
  <varray name="stress" >
   <v>      -3.69798686       0.00000000      -0.00000000 </v>
   <v>       0.00000000      -3.69798686       0.00000000 </v>
   <v>       0.00000000       0.00000000      -3.69798686 </v>
  </varray>
  <energy>
   <i name="e_fr_energy">    -14.95078365 </i>
   <i name="e_wo_entrp">    -14.95225389 </i>
   <i name="e_0_energy">    -14.95127373 </i>
  </energy>
  <time name="totalsc">    6.30    6.32</time>
  <eigenvalues>
   <array>
    <dimension dim="1">band</dimension>
    <dimension dim="2">kpoint</dimension>
    <dimension dim="3">spin</dimension>
    <field>eigene</field>
    <field>occ</field>
    <set>
     <set comment="spin 1">
      <set comment="kpoint 1">
       <r>   -1.8462    1.0000 </r>
       <r>    2.6047    1.0000 </r>
       <r>    2.6047    1.0000 </r>
       <r>    2.6047    1.0000 </r>
       <r>    3.0512    1.0000 </r>
       <r>    3.0512    1.0000 </r>
       <r>    3.0512    1.0000 </r>
       <r>    4.4096    1.0000 </r>
       <r>    4.4096    1.0000 </r>
       <r>    4.4096    1.0000 </r>
       <r>    5.2151    1.0000 </r>
       <r>    5.2151    1.0000 </r>
       <r>    5.7505    1.0000 </r>
       <r>    5.7505    1.0000 </r>
       <r>    5.7505    1.0000 </r>
       <r>    5.9029    1.0000 </r>
       <r>    5.9029    1.0000 </r>
       <r>    5.9029    1.0000 </r>
       <r>    5.9029    1.0000 </r>
       <r>    5.9029    1.0000 </r>
       <r>    5.9029    1.0000 </r>
       <r>    8.8904   -0.0000 </r>
       <r>    8.8904   -0.0000 </r>
       <r>    8.8904   -0.0000 </r>
       <r>   14.3819    0.0000 </r>
       <r>   14.3819    0.0000 </r>
       <r>   14.3819    0.0000 </r>
       <r>   20.3324    0.0000 </r>
       <r>   20.3324    0.0000 </r>
       <r>   20.3324    0.0000 </r>
      </set>
      <set comment="kpoint 2">
       <r>   -1.6980    1.0000 </r>
       <r>    2.5999    1.0000 </r>
       <r>    2.6728    1.0000 </r>
       <r>    2.6728    1.0000 </r>
       <r>    3.0901    1.0000 </r>
       <r>    3.0924    1.0000 </r>
       <r>    3.0924    1.0000 </r>
       <r>    4.3663    1.0000 </r>
       <r>    4.4442    1.0000 </r>
       <r>    4.4442    1.0000 </r>
       <r>    5.1763    1.0000 </r>
       <r>    5.2309    1.0000 </r>
       <r>    5.6593    1.0000 </r>
       <r>    5.6593    1.0000 </r>
       <r>    5.7000    1.0000 </r>
       <r>    5.7000    1.0000 </r>
       <r>    5.7340    1.0000 </r>
       <r>    5.8434    1.0000 </r>
       <r>    5.8434    1.0000 </r>
       <r>    5.9030    1.0000 </r>
       <r>    5.9030    1.0000 </r>
       <r>    8.0404   -0.0000 </r>
       <r>    9.2674   -0.0000 </r>
       <r>    9.2674   -0.0000 </r>
       <r>   14.4371    0.0000 </r>
       <r>   14.4371    0.0000 </r>
       <r>   15.5269    0.0000 </r>
       <r>   19.4218    0.0000 </r>
       <r>   19.4218    0.0000 </r>
       <r>   19.7252    0.0000 </r>
      </set>
      <set comment="kpoint 3">
       <r>   -1.2591    1.0000 </r>
       <r>    2.5305    1.0000 </r>
       <r>    2.8597    1.0000 </r>
       <r>    2.8597    1.0000 </r>
       <r>    3.2022    1.0000 </r>
       <r>    3.2169    1.0000 </r>
       <r>    3.2169    1.0000 </r>
       <r>    4.2428    1.0000 </r>
       <r>    4.5466    1.0000 </r>
       <r>    4.5466    1.0000 </r>
       <r>    5.0669    1.0000 </r>
       <r>    5.1467    1.0000 </r>
       <r>    5.1467    1.0000 </r>
       <r>    5.2764    1.0000 </r>
       <r>    5.5575    1.0000 </r>
       <r>    5.5575    1.0000 </r>
       <r>    5.6787    1.0000 </r>
       <r>    5.6787    1.0000 </r>
       <r>    5.6865    1.0000 </r>
       <r>    5.9033    1.0000 </r>
       <r>    5.9033    1.0000 </r>
       <r>    6.5328    1.0000 </r>
       <r>   10.1779   -0.0000 </r>
       <r>   10.1779   -0.0000 </r>
       <r>   14.6120    0.0000 </r>
       <r>   14.6120    0.0000 </r>
       <r>   17.7351    0.0000 </r>
       <r>   17.7351    0.0000 </r>
       <r>   17.9644    0.0000 </r>
       <r>   18.4923    0.0000 </r>
      </set>
      <set comment="kpoint 4">
       <r>   -0.5501    1.0000 </r>
       <r>    2.1929    1.0000 </r>
       <r>    3.1065    1.0000 </r>
       <r>    3.1065    1.0000 </r>
       <r>    3.3766    1.0000 </r>
       <r>    3.4282    1.0000 </r>
       <r>    3.4282    1.0000 </r>
       <r>    4.0555    1.0000 </r>
       <r>    4.6060    1.0000 </r>
       <r>    4.6060    1.0000 </r>
       <r>    4.7115    1.0000 </r>
       <r>    4.7115    1.0000 </r>
       <r>    4.9160    1.0000 </r>
       <r>    5.3364    1.0000 </r>
       <r>    5.3466    1.0000 </r>
       <r>    5.3601    1.0000 </r>
       <r>    5.3601    1.0000 </r>
       <r>    5.4446    1.0000 </r>
       <r>    5.4446    1.0000 </r>
       <r>    5.6144    1.0000 </r>
       <r>    5.9035    1.0000 </r>
       <r>    5.9035    1.0000 </r>
       <r>   11.3767   -0.0000 </r>
       <r>   11.3767   -0.0000 </r>
       <r>   14.9321    0.0000 </r>
       <r>   14.9321    0.0000 </r>
       <r>   15.9815    0.0000 </r>
       <r>   15.9815    0.0000 </r>
       <r>   17.2648    0.0000 </r>
       <r>   17.2648    0.0000 </r>
      </set>
      <set comment="kpoint 5">
       <r>    0.3784    1.0000 </r>
       <r>    1.3946    1.0000 </r>
       <r>    3.2994    1.0000 </r>
       <r>    3.2994    1.0000 </r>
       <r>    3.5940    1.0000 </r>
       <r>    3.7304    1.0000 </r>
       <r>    3.7304    1.0000 </r>
       <r>    3.8297    1.0000 </r>
       <r>    4.1249    1.0000 </r>
       <r>    4.1249    1.0000 </r>
       <r>    4.7866    1.0000 </r>
       <r>    4.8237    1.0000 </r>
       <r>    4.9293    1.0000 </r>
       <r>    4.9293    1.0000 </r>
       <r>    5.1826    1.0000 </r>
       <r>    5.1826    1.0000 </r>
       <r>    5.1993    1.0000 </r>
       <r>    5.1993    1.0000 </r>
       <r>    5.4333    1.0000 </r>
       <r>    5.5265    1.0000 </r>
       <r>    5.9036    1.0000 </r>
       <r>    5.9036    1.0000 </r>
       <r>   12.7674   -0.0000 </r>
       <r>   12.7674   -0.0000 </r>
       <r>   14.3111    0.0000 </r>
       <r>   14.3111    0.0000 </r>
       <r>   15.4165    0.0000 </r>
       <r>   15.4165    0.0000 </r>
       <r>   16.2831    0.0000 </r>
       <r>   16.2831    0.0000 </r>
      </set>
      <set comment="kpoint 6">
       <r>   -1.5509    1.0000 </r>
       <r>    2.6712    1.0000 </r>
       <r>    2.6712    1.0000 </r>
       <r>    2.7380    1.0000 </r>
       <r>    3.1297    1.0000 </r>
       <r>    3.1297    1.0000 </r>
       <r>    3.1309    1.0000 </r>
       <r>    4.3432    1.0000 </r>
       <r>    4.4604    1.0000 </r>
       <r>    4.4725    1.0000 </r>
       <r>    5.1661    1.0000 </r>
       <r>    5.2240    1.0000 </r>
       <r>    5.4954    1.0000 </r>
       <r>    5.5492    1.0000 </r>
       <r>    5.5492    1.0000 </r>
       <r>    5.6532    1.0000 </r>
       <r>    5.7138    1.0000 </r>
       <r>    5.7138    1.0000 </r>
       <r>    5.8431    1.0000 </r>
       <r>    5.8431    1.0000 </r>
       <r>    5.8646    1.0000 </r>
       <r>    8.4094   -0.0000 </r>
       <r>    8.4094   -0.0000 </r>
       <r>    9.6032   -0.0000 </r>
       <r>   14.4928    0.0000 </r>
       <r>   15.6104    0.0000 </r>
       <r>   15.6104    0.0000 </r>
       <r>   17.7475    0.0000 </r>
       <r>   19.6182    0.0000 </r>
       <r>   19.6183    0.0000 </r>
      </set>
      <set comment="kpoint 7">
       <r>   -1.1155    1.0000 </r>
       <r>    2.6111    1.0000 </r>
       <r>    2.8670    1.0000 </r>
       <r>    2.9172    1.0000 </r>
       <r>    3.2382    1.0000 </r>
       <r>    3.2469    1.0000 </r>
       <r>    3.2501    1.0000 </r>
       <r>    4.2342    1.0000 </r>
       <r>    4.5524    1.0000 </r>
       <r>    4.5529    1.0000 </r>
       <r>    5.0350    1.0000 </r>
       <r>    5.0651    1.0000 </r>
       <r>    5.0769    1.0000 </r>
       <r>    5.2714    1.0000 </r>
       <r>    5.2943    1.0000 </r>
       <r>    5.5206    1.0000 </r>
       <r>    5.5675    1.0000 </r>
       <r>    5.6699    1.0000 </r>
       <r>    5.6781    1.0000 </r>
       <r>    5.8426    1.0000 </r>
       <r>    5.8442    1.0000 </r>
       <r>    6.9665    1.0102 </r>
       <r>    9.2402   -0.0000 </r>
       <r>   10.4532   -0.0000 </r>
       <r>   14.6585    0.0000 </r>
       <r>   15.8712    0.0000 </r>
       <r>   15.9484    0.0000 </r>
       <r>   17.9186    0.0000 </r>
       <r>   18.0682    0.0000 </r>
       <r>   18.6637    0.0000 </r>
      </set>
      <set comment="kpoint 8">
       <r>   -0.4128    1.0000 </r>
       <r>    2.2886    1.0000 </r>
       <r>    3.1291    1.0000 </r>
       <r>    3.1586    1.0000 </r>
       <r>    3.4060    1.0000 </r>
       <r>    3.4365    1.0000 </r>
       <r>    3.4540    1.0000 </r>
       <r>    4.0573    1.0000 </r>
       <r>    4.5087    1.0000 </r>
       <r>    4.5722    1.0000 </r>
       <r>    4.6535    1.0000 </r>
       <r>    4.7140    1.0000 </r>
       <r>    4.9007    1.0000 </r>
       <r>    4.9735    1.0000 </r>
       <r>    5.3364    1.0000 </r>
       <r>    5.3590    1.0000 </r>
       <r>    5.3713    1.0000 </r>
       <r>    5.4437    1.0000 </r>
       <r>    5.5460    1.0000 </r>
       <r>    5.8399    1.0000 </r>
       <r>    5.8417    1.0000 </r>
       <r>    5.9713    1.0000 </r>
       <r>   10.2787   -0.0000 </r>
       <r>   11.6104   -0.0000 </r>
       <r>   14.2021    0.0000 </r>
       <r>   15.0838    0.0000 </r>
       <r>   16.1650    0.0000 </r>
       <r>   16.3307    0.0000 </r>
       <r>   17.4164    0.0000 </r>
       <r>   19.1963    0.0000 </r>
      </set>
      <set comment="kpoint 9">
       <r>    0.5055    1.0000 </r>
       <r>    1.5070    1.0000 </r>
       <r>    3.3425    1.0000 </r>
       <r>    3.3554    1.0000 </r>
       <r>    3.6152    1.0000 </r>
       <r>    3.6951    1.0000 </r>
       <r>    3.7441    1.0000 </r>
       <r>    3.8415    1.0000 </r>
       <r>    4.0522    1.0000 </r>
       <r>    4.1203    1.0000 </r>
       <r>    4.6447    1.0000 </r>
       <r>    4.6488    1.0000 </r>
       <r>    4.9300    1.0000 </r>
       <r>    5.0411    1.0000 </r>
       <r>    5.1821    1.0000 </r>
       <r>    5.1905    1.0000 </r>
       <r>    5.2048    1.0000 </r>
       <r>    5.2849    1.0000 </r>
       <r>    5.4725    1.0000 </r>
       <r>    5.6197    1.0000 </r>
       <r>    5.8398    1.0000 </r>
       <r>    5.8406    1.0000 </r>
       <r>   11.4537   -0.0000 </r>
       <r>   12.7614   -0.0000 </r>
       <r>   12.9750    0.0000 </r>
       <r>   14.5027    0.0000 </r>
       <r>   15.5823    0.0000 </r>
       <r>   16.3348    0.0000 </r>
       <r>   17.0858    0.0000 </r>
       <r>   18.0306    0.0000 </r>
      </set>
      <set comment="kpoint 10">
       <r>   -0.6910    1.0000 </r>
       <r>    2.8351    1.0000 </r>
       <r>    2.8351    1.0000 </r>
       <r>    3.0737    1.0000 </r>
       <r>    3.3380    1.0000 </r>
       <r>    3.3462    1.0000 </r>
       <r>    3.3462    1.0000 </r>
       <r>    4.1776    1.0000 </r>
       <r>    4.5733    1.0000 </r>
       <r>    4.6050    1.0000 </r>
       <r>    4.7642    1.0000 </r>
       <r>    4.7642    1.0000 </r>
       <r>    4.8181    1.0000 </r>
       <r>    5.0470    1.0000 </r>
       <r>    5.3204    1.0000 </r>
       <r>    5.4140    1.0000 </r>
       <r>    5.5426    1.0000 </r>
       <r>    5.5426    1.0000 </r>
       <r>    5.6763    1.0000 </r>
       <r>    5.6763    1.0000 </r>
       <r>    5.7517    1.0000 </r>
       <r>    7.7329   -0.0106 </r>
       <r>    7.7329   -0.0106 </r>
       <r>   11.1954   -0.0000 </r>
       <r>   13.9200    0.0000 </r>
       <r>   14.9643    0.0000 </r>
       <r>   18.3742    0.0000 </r>
       <r>   18.3742    0.0000 </r>
       <r>   18.4515    0.0000 </r>
       <r>   18.4515    0.0000 </r>
      </set>
      <set comment="kpoint 11">
       <r>   -0.0090    1.0000 </r>
       <r>    2.5562    1.0000 </r>
       <r>    3.1441    1.0000 </r>
       <r>    3.2907    1.0000 </r>
       <r>    3.4732    1.0000 </r>
       <r>    3.4941    1.0000 </r>
       <r>    3.5276    1.0000 </r>
       <r>    4.0482    1.0000 </r>
       <r>    4.2875    1.0000 </r>
       <r>    4.4659    1.0000 </r>
       <r>    4.4805    1.0000 </r>
       <r>    4.5800    1.0000 </r>
       <r>    4.7384    1.0000 </r>
       <r>    4.9877    1.0000 </r>
       <r>    5.2624    1.0000 </r>
       <r>    5.3579    1.0000 </r>
       <r>    5.4311    1.0000 </r>
       <r>    5.4421    1.0000 </r>
       <r>    5.4595    1.0000 </r>
       <r>    5.6742    1.0000 </r>
       <r>    5.6999    1.0000 </r>
       <r>    6.5890    1.0000 </r>
       <r>    8.6230   -0.0000 </r>
       <r>   12.2645   -0.0000 </r>
       <r>   12.2654   -0.0000 </r>
       <r>   15.3099    0.0000 </r>
       <r>   16.6975    0.0000 </r>
       <r>   17.8142    0.0000 </r>
       <r>   18.9697    0.0000 </r>
       <r>   19.2892    0.0000 </r>
      </set>
      <set comment="kpoint 12">
       <r>    0.8753    1.0000 </r>
       <r>    1.8273    1.0000 </r>
       <r>    3.4258    1.0000 </r>
       <r>    3.5108    1.0000 </r>
       <r>    3.5966    1.0000 </r>
       <r>    3.6766    1.0000 </r>
       <r>    3.7819    1.0000 </r>
       <r>    3.8705    1.0000 </r>
       <r>    3.8910    1.0000 </r>
       <r>    4.1023    1.0000 </r>
       <r>    4.4048    1.0000 </r>
       <r>    4.4997    1.0000 </r>
       <r>    4.9396    1.0000 </r>
       <r>    5.0487    1.0000 </r>
       <r>    5.1492    1.0000 </r>
       <r>    5.1838    1.0000 </r>
       <r>    5.1885    1.0000 </r>
       <r>    5.2349    1.0000 </r>
       <r>    5.6618    1.0000 </r>
       <r>    5.6740    1.0000 </r>
       <r>    5.6797    1.0000 </r>
       <r>    5.9729    1.0000 </r>
       <r>    9.6434   -0.0000 </r>
       <r>   10.8411   -0.0000 </r>
       <r>   13.5679    0.0000 </r>
       <r>   15.0562    0.0000 </r>
       <r>   15.8913    0.0000 </r>
       <r>   16.7229    0.0000 </r>
       <r>   19.7486    0.0000 </r>
       <r>   20.3804    0.0000 </r>
      </set>
      <set comment="kpoint 13">
       <r>    0.6330    1.0000 </r>
       <r>    2.9305    1.0000 </r>
       <r>    2.9305    1.0000 </r>
       <r>    3.4104    1.0000 </r>
       <r>    3.5816    1.0000 </r>
       <r>    3.6389    1.0000 </r>
       <r>    3.6389    1.0000 </r>
       <r>    3.9989    1.0000 </r>
       <r>    4.1414    1.0000 </r>
       <r>    4.1414    1.0000 </r>
       <r>    4.2856    1.0000 </r>
       <r>    4.5179    1.0000 </r>
       <r>    4.8214    1.0000 </r>
       <r>    4.9265    1.0000 </r>
       <r>    5.1462    1.0000 </r>
       <r>    5.2615    1.0000 </r>
       <r>    5.2615    1.0000 </r>
       <r>    5.4437    1.0000 </r>
       <r>    5.4437    1.0000 </r>
       <r>    5.5710    1.0000 </r>
       <r>    5.6767    1.0000 </r>
       <r>    7.2960    0.7227 </r>
       <r>    7.2960    0.7227 </r>
       <r>   10.5854   -0.0000 </r>
       <r>   13.2469    0.0000 </r>
       <r>   15.7482    0.0000 </r>
       <r>   17.5353    0.0000 </r>
       <r>   17.5353    0.0000 </r>
       <r>   18.5222    0.0000 </r>
       <r>   18.5222    0.0000 </r>
      </set>
      <set comment="kpoint 14">
       <r>    1.4478    1.0000 </r>
       <r>    2.2967    1.0000 </r>
       <r>    3.2813    1.0000 </r>
       <r>    3.4404    1.0000 </r>
       <r>    3.7289    1.0000 </r>
       <r>    3.7704    1.0000 </r>
       <r>    3.8331    1.0000 </r>
       <r>    3.8930    1.0000 </r>
       <r>    3.8995    1.0000 </r>
       <r>    4.0600    1.0000 </r>
       <r>    4.2233    1.0000 </r>
       <r>    4.3963    1.0000 </r>
       <r>    4.9445    1.0000 </r>
       <r>    4.9799    1.0000 </r>
       <r>    5.0555    1.0000 </r>
       <r>    5.0903    1.0000 </r>
       <r>    5.1011    1.0000 </r>
       <r>    5.1981    1.0000 </r>
       <r>    5.4560    1.0000 </r>
       <r>    5.4925    1.0000 </r>
       <r>    5.9851    1.0000 </r>
       <r>    6.4600    1.0000 </r>
       <r>    8.1451   -0.0000 </r>
       <r>    9.2183   -0.0000 </r>
       <r>   14.4819    0.0000 </r>
       <r>   15.9217    0.0000 </r>
       <r>   16.4130    0.0000 </r>
       <r>   17.3341    0.0000 </r>
       <r>   18.6307    0.0000 </r>
       <r>   19.4821    0.0000 </r>
      </set>
      <set comment="kpoint 15">
       <r>    2.1372    1.0000 </r>
       <r>    2.7995    1.0000 </r>
       <r>    2.7995    1.0000 </r>
       <r>    3.1939    1.0000 </r>
       <r>    3.8809    1.0000 </r>
       <r>    3.8809    1.0000 </r>
       <r>    3.9062    1.0000 </r>
       <r>    3.9436    1.0000 </r>
       <r>    3.9845    1.0000 </r>
       <r>    4.0943    1.0000 </r>
       <r>    4.0943    1.0000 </r>
       <r>    4.2850    1.0000 </r>
       <r>    4.8786    1.0000 </r>
       <r>    4.9508    1.0000 </r>
       <r>    4.9582    1.0000 </r>
       <r>    4.9582    1.0000 </r>
       <r>    5.0776    1.0000 </r>
       <r>    5.2429    1.0000 </r>
       <r>    5.2429    1.0000 </r>
       <r>    5.3384    1.0000 </r>
       <r>    6.4264    1.0000 </r>
       <r>    7.0909    1.0347 </r>
       <r>    7.0909    1.0347 </r>
       <r>    7.9741   -0.0000 </r>
       <r>   15.6561    0.0000 </r>
       <r>   17.0481    0.0000 </r>
       <r>   17.0481    0.0000 </r>
       <r>   17.1742    0.0000 </r>
       <r>   18.1954    0.0000 </r>
       <r>   18.1954    0.0000 </r>
      </set>
      <set comment="kpoint 16">
       <r>   -1.4050    1.0000 </r>
       <r>    2.7386    1.0000 </r>
       <r>    2.7386    1.0000 </r>
       <r>    2.7386    1.0000 </r>
       <r>    3.1672    1.0000 </r>
       <r>    3.1672    1.0000 </r>
       <r>    3.1672    1.0000 </r>
       <r>    4.3229    1.0000 </r>
       <r>    4.4847    1.0000 </r>
       <r>    4.4847    1.0000 </r>
       <r>    5.1901    1.0000 </r>
       <r>    5.1901    1.0000 </r>
       <r>    5.4038    1.0000 </r>
       <r>    5.4038    1.0000 </r>
       <r>    5.4038    1.0000 </r>
       <r>    5.5981    1.0000 </r>
       <r>    5.5981    1.0000 </r>
       <r>    5.5981    1.0000 </r>
       <r>    5.8507    1.0000 </r>
       <r>    5.8507    1.0000 </r>
       <r>    5.8507    1.0000 </r>
       <r>    8.7212   -0.0000 </r>
       <r>    8.7212   -0.0000 </r>
       <r>    8.7212   -0.0000 </r>
       <r>   15.6948    0.0000 </r>
       <r>   15.6948    0.0000 </r>
       <r>   15.6948    0.0000 </r>
       <r>   17.9316    0.0000 </r>
       <r>   17.9316    0.0000 </r>
       <r>   17.9316    0.0000 </r>
      </set>
      <set comment="kpoint 17">
       <r>   -0.9735    1.0000 </r>
       <r>    2.6853    1.0000 </r>
       <r>    2.9237    1.0000 </r>
       <r>    2.9237    1.0000 </r>
       <r>    3.2729    1.0000 </r>
       <r>    3.2799    1.0000 </r>
       <r>    3.2799    1.0000 </r>
       <r>    4.2277    1.0000 </r>
       <r>    4.5532    1.0000 </r>
       <r>    4.5579    1.0000 </r>
       <r>    4.9662    1.0000 </r>
       <r>    4.9662    1.0000 </r>
       <r>    5.1027    1.0000 </r>
       <r>    5.1314    1.0000 </r>
       <r>    5.2575    1.0000 </r>
       <r>    5.4537    1.0000 </r>
       <r>    5.4818    1.0000 </r>
       <r>    5.4818    1.0000 </r>
       <r>    5.8020    1.0000 </r>
       <r>    5.8285    1.0000 </r>
       <r>    5.8285    1.0000 </r>
       <r>    7.2592    0.8464 </r>
       <r>    9.4765   -0.0000 </r>
       <r>    9.4765   -0.0000 </r>
       <r>   15.8980    0.0000 </r>
       <r>   15.8980    0.0000 </r>
       <r>   16.1769    0.0000 </r>
       <r>   16.1769    0.0000 </r>
       <r>   18.1517    0.0000 </r>
       <r>   18.4892    0.0000 </r>
      </set>
      <set comment="kpoint 18">
       <r>   -0.2782    1.0000 </r>
       <r>    2.3748    1.0000 </r>
       <r>    3.1758    1.0000 </r>
       <r>    3.1758    1.0000 </r>
       <r>    3.4369    1.0000 </r>
       <r>    3.4601    1.0000 </r>
       <r>    3.4601    1.0000 </r>
       <r>    4.0627    1.0000 </r>
       <r>    4.4914    1.0000 </r>
       <r>    4.4914    1.0000 </r>
       <r>    4.6325    1.0000 </r>
       <r>    4.6795    1.0000 </r>
       <r>    4.7553    1.0000 </r>
       <r>    5.0423    1.0000 </r>
       <r>    5.2574    1.0000 </r>
       <r>    5.3195    1.0000 </r>
       <r>    5.3195    1.0000 </r>
       <r>    5.3588    1.0000 </r>
       <r>    5.7165    1.0000 </r>
       <r>    5.8085    1.0000 </r>
       <r>    5.8085    1.0000 </r>
       <r>    6.1601    1.0000 </r>
       <r>   10.4606   -0.0000 </r>
       <r>   10.4606   -0.0000 </r>
       <r>   14.4430    0.0000 </r>
       <r>   14.4430    0.0000 </r>
       <r>   16.4611    0.0000 </r>
       <r>   16.4611    0.0000 </r>
       <r>   19.2911    0.0000 </r>
       <r>   19.3535    0.0000 </r>
      </set>
      <set comment="kpoint 19">
       <r>    0.6280    1.0000 </r>
       <r>    1.6118    1.0000 </r>
       <r>    3.3976    1.0000 </r>
       <r>    3.3976    1.0000 </r>
       <r>    3.6398    1.0000 </r>
       <r>    3.6702    1.0000 </r>
       <r>    3.6702    1.0000 </r>
       <r>    3.8574    1.0000 </r>
       <r>    4.0959    1.0000 </r>
       <r>    4.0959    1.0000 </r>
       <r>    4.5608    1.0000 </r>
       <r>    4.5950    1.0000 </r>
       <r>    4.8456    1.0000 </r>
       <r>    5.0451    1.0000 </r>
       <r>    5.1762    1.0000 </r>
       <r>    5.1762    1.0000 </r>
       <r>    5.1851    1.0000 </r>
       <r>    5.4796    1.0000 </r>
       <r>    5.5400    1.0000 </r>
       <r>    5.6042    1.0000 </r>
       <r>    5.7997    1.0000 </r>
       <r>    5.7997    1.0000 </r>
       <r>   11.5589   -0.0000 </r>
       <r>   11.5589   -0.0000 </r>
       <r>   13.0277    0.0000 </r>
       <r>   13.0277    0.0000 </r>
       <r>   17.1762    0.0000 </r>
       <r>   17.1762    0.0000 </r>
       <r>   18.1728    0.0000 </r>
       <r>   18.1728    0.0000 </r>
      </set>
      <set comment="kpoint 20">
       <r>   -0.5547    1.0000 </r>
       <r>    2.8879    1.0000 </r>
       <r>    2.8879    1.0000 </r>
       <r>    3.0751    1.0000 </r>
       <r>    3.3709    1.0000 </r>
       <r>    3.3781    1.0000 </r>
       <r>    3.3781    1.0000 </r>
       <r>    4.1809    1.0000 </r>
       <r>    4.5707    1.0000 </r>
       <r>    4.5880    1.0000 </r>
       <r>    4.7148    1.0000 </r>
       <r>    4.7148    1.0000 </r>
       <r>    4.7436    1.0000 </r>
       <r>    5.1051    1.0000 </r>
       <r>    5.2953    1.0000 </r>
       <r>    5.3310    1.0000 </r>
       <r>    5.3538    1.0000 </r>
       <r>    5.3538    1.0000 </r>
       <r>    5.7822    1.0000 </r>
       <r>    5.7822    1.0000 </r>
       <r>    5.7834    1.0000 </r>
       <r>    7.9187   -0.0002 </r>
       <r>    7.9187   -0.0002 </r>
       <r>   10.0945   -0.0000 </r>
       <r>   14.1783    0.0000 </r>
       <r>   16.2761    0.0000 </r>
       <r>   16.6146    0.0000 </r>
       <r>   16.6146    0.0000 </r>
       <r>   18.5101    0.0000 </r>
       <r>   18.5101    0.0000 </r>
      </set>
      <set comment="kpoint 21">
       <r>    0.1166    1.0000 </r>
       <r>    2.6099    1.0000 </r>
       <r>    3.1603    1.0000 </r>
       <r>    3.2767    1.0000 </r>
       <r>    3.5050    1.0000 </r>
       <r>    3.5320    1.0000 </r>
       <r>    3.5440    1.0000 </r>
       <r>    4.0667    1.0000 </r>
       <r>    4.3095    1.0000 </r>
       <r>    4.4303    1.0000 </r>
       <r>    4.4546    1.0000 </r>
       <r>    4.5740    1.0000 </r>
       <r>    4.6691    1.0000 </r>
       <r>    5.0944    1.0000 </r>
       <r>    5.1625    1.0000 </r>
       <r>    5.1916    1.0000 </r>
       <r>    5.2367    1.0000 </r>
       <r>    5.4361    1.0000 </r>
       <r>    5.6873    1.0000 </r>
       <r>    5.7294    1.0000 </r>
       <r>    5.7300    1.0000 </r>
       <r>    6.6848    1.0000 </r>
       <r>    8.7533   -0.0000 </r>
       <r>   10.8953   -0.0000 </r>
       <r>   12.5964   -0.0000 </r>
       <r>   14.9568    0.0000 </r>
       <r>   16.7877    0.0000 </r>
       <r>   17.4243    0.0000 </r>
       <r>   19.0543    0.0000 </r>
       <r>   19.8304    0.0000 </r>
      </set>
      <set comment="kpoint 22">
       <r>    0.9822    1.0000 </r>
       <r>    1.9058    1.0000 </r>
       <r>    3.4193    1.0000 </r>
       <r>    3.4892    1.0000 </r>
       <r>    3.5764    1.0000 </r>
       <r>    3.6603    1.0000 </r>
       <r>    3.7162    1.0000 </r>
       <r>    3.9026    1.0000 </r>
       <r>    4.0638    1.0000 </r>
       <r>    4.1591    1.0000 </r>
       <r>    4.3928    1.0000 </r>
       <r>    4.4901    1.0000 </r>
       <r>    4.7924    1.0000 </r>
       <r>    4.9623    1.0000 </r>
       <r>    5.0886    1.0000 </r>
       <r>    5.1116    1.0000 </r>
       <r>    5.2453    1.0000 </r>
       <r>    5.5048    1.0000 </r>
       <r>    5.6315    1.0000 </r>
       <r>    5.6977    1.0000 </r>
       <r>    5.6981    1.0000 </r>
       <r>    5.9621    1.0000 </r>
       <r>    9.7278   -0.0000 </r>
       <r>   10.7995   -0.0000 </r>
       <r>   12.3619   -0.0000 </r>
       <r>   13.5167    0.0000 </r>
       <r>   17.5503    0.0000 </r>
       <r>   18.4869    0.0000 </r>
       <r>   18.5660    0.0000 </r>
       <r>   19.7763    0.0000 </r>
      </set>
      <set comment="kpoint 23">
       <r>    0.7404    1.0000 </r>
       <r>    2.9165    1.0000 </r>
       <r>    2.9165    1.0000 </r>
       <r>    3.3311    1.0000 </r>
       <r>    3.6374    1.0000 </r>
       <r>    3.6927    1.0000 </r>
       <r>    3.6927    1.0000 </r>
       <r>    4.0404    1.0000 </r>
       <r>    4.1865    1.0000 </r>
       <r>    4.1865    1.0000 </r>
       <r>    4.3204    1.0000 </r>
       <r>    4.5188    1.0000 </r>
       <r>    4.6865    1.0000 </r>
       <r>    5.0509    1.0000 </r>
       <r>    5.0767    1.0000 </r>
       <r>    5.0767    1.0000 </r>
       <r>    5.0911    1.0000 </r>
       <r>    5.6058    1.0000 </r>
       <r>    5.6058    1.0000 </r>
       <r>    5.6380    1.0000 </r>
       <r>    5.6454    1.0000 </r>
       <r>    7.3569    0.4747 </r>
       <r>    7.3569    0.4747 </r>
       <r>   10.4850   -0.0000 </r>
       <r>   12.1441   -0.0000 </r>
       <r>   15.7470    0.0000 </r>
       <r>   15.7470    0.0000 </r>
       <r>   17.3519    0.0000 </r>
       <r>   19.5594    0.0000 </r>
       <r>   20.5403    0.0000 </r>
      </set>
      <set comment="kpoint 24">
       <r>    1.5225    1.0000 </r>
       <r>    2.3210    1.0000 </r>
       <r>    3.1771    1.0000 </r>
       <r>    3.3102    1.0000 </r>
       <r>    3.7779    1.0000 </r>
       <r>    3.8382    1.0000 </r>
       <r>    3.8476    1.0000 </r>
       <r>    3.9660    1.0000 </r>
       <r>    4.0677    1.0000 </r>
       <r>    4.1872    1.0000 </r>
       <r>    4.2462    1.0000 </r>
       <r>    4.4042    1.0000 </r>
       <r>    4.7524    1.0000 </r>
       <r>    4.8937    1.0000 </r>
       <r>    4.9583    1.0000 </r>
       <r>    4.9809    1.0000 </r>
       <r>    5.2004    1.0000 </r>
       <r>    5.4141    1.0000 </r>
       <r>    5.5548    1.0000 </r>
       <r>    5.5678    1.0000 </r>
       <r>    5.9500    1.0000 </r>
       <r>    6.4490    1.0000 </r>
       <r>    8.1858   -0.0000 </r>
       <r>    9.2344   -0.0000 </r>
       <r>   13.0667    0.0000 </r>
       <r>   14.2923    0.0000 </r>
       <r>   16.7888    0.0000 </r>
       <r>   18.0624    0.0000 </r>
       <r>   18.1721    0.0000 </r>
       <r>   19.2495    0.0000 </r>
      </set>
      <set comment="kpoint 25">
       <r>    2.1549    1.0000 </r>
       <r>    2.7416    1.0000 </r>
       <r>    2.7416    1.0000 </r>
       <r>    3.0707    1.0000 </r>
       <r>    3.9833    1.0000 </r>
       <r>    4.0132    1.0000 </r>
       <r>    4.0132    1.0000 </r>
       <r>    4.0194    1.0000 </r>
       <r>    4.1387    1.0000 </r>
       <r>    4.1387    1.0000 </r>
       <r>    4.1552    1.0000 </r>
       <r>    4.3052    1.0000 </r>
       <r>    4.7377    1.0000 </r>
       <r>    4.8271    1.0000 </r>
       <r>    4.8271    1.0000 </r>
       <r>    4.8421    1.0000 </r>
       <r>    5.2322    1.0000 </r>
       <r>    5.3786    1.0000 </r>
       <r>    5.3786    1.0000 </r>
       <r>    5.4411    1.0000 </r>
       <r>    6.3920    1.0000 </r>
       <r>    7.0811    1.0335 </r>
       <r>    7.0811    1.0335 </r>
       <r>    7.9777   -0.0000 </r>
       <r>   14.0751    0.0000 </r>
       <r>   15.3176    0.0000 </r>
       <r>   15.3176    0.0000 </r>
       <r>   16.5756    0.0000 </r>
       <r>   19.0539    0.0000 </r>
       <r>   20.1916    0.0000 </r>
      </set>
      <set comment="kpoint 26">
       <r>   -0.1540    1.0000 </r>
       <r>    3.0182    1.0000 </r>
       <r>    3.0182    1.0000 </r>
       <r>    3.0182    1.0000 </r>
       <r>    3.4799    1.0000 </r>
       <r>    3.4799    1.0000 </r>
       <r>    3.4799    1.0000 </r>
       <r>    4.1727    1.0000 </r>
       <r>    4.5559    1.0000 </r>
       <r>    4.5559    1.0000 </r>
       <r>    4.5559    1.0000 </r>
       <r>    4.5702    1.0000 </r>
       <r>    4.5702    1.0000 </r>
       <r>    5.1573    1.0000 </r>
       <r>    5.1573    1.0000 </r>
       <r>    5.1573    1.0000 </r>
       <r>    5.2428    1.0000 </r>
       <r>    5.2428    1.0000 </r>
       <r>    5.8125    1.0000 </r>
       <r>    5.8125    1.0000 </r>
       <r>    5.8125    1.0000 </r>
       <r>    8.4109   -0.0000 </r>
       <r>    8.4109   -0.0000 </r>
       <r>    8.4109   -0.0000 </r>
       <r>   14.7029    0.0000 </r>
       <r>   14.7029    0.0000 </r>
       <r>   14.7029    0.0000 </r>
       <r>   18.8460    0.0000 </r>
       <r>   18.8460    0.0000 </r>
       <r>   18.8460    0.0000 </r>
      </set>
      <set comment="kpoint 27">
       <r>    0.4816    1.0000 </r>
       <r>    2.7384    1.0000 </r>
       <r>    3.1631    1.0000 </r>
       <r>    3.1631    1.0000 </r>
       <r>    3.6351    1.0000 </r>
       <r>    3.6351    1.0000 </r>
       <r>    3.6557    1.0000 </r>
       <r>    4.1178    1.0000 </r>
       <r>    4.3564    1.0000 </r>
       <r>    4.3564    1.0000 </r>
       <r>    4.3792    1.0000 </r>
       <r>    4.5525    1.0000 </r>
       <r>    4.5910    1.0000 </r>
       <r>    4.9662    1.0000 </r>
       <r>    5.0332    1.0000 </r>
       <r>    5.0332    1.0000 </r>
       <r>    5.2591    1.0000 </r>
       <r>    5.4093    1.0000 </r>
       <r>    5.7674    1.0000 </r>
       <r>    5.7674    1.0000 </r>
       <r>    5.7878    1.0000 </r>
       <r>    7.0085    1.0180 </r>
       <r>    9.0919   -0.0000 </r>
       <r>    9.0919   -0.0000 </r>
       <r>   13.0830    0.0000 </r>
       <r>   13.0830    0.0000 </r>
       <r>   15.4982    0.0000 </r>
       <r>   19.3219    0.0000 </r>
       <r>   19.4187    0.0000 </r>
       <r>   19.4187    0.0000 </r>
      </set>
      <set comment="kpoint 28">
       <r>    1.2843    1.0000 </r>
       <r>    2.1131    1.0000 </r>
       <r>    3.2666    1.0000 </r>
       <r>    3.2666    1.0000 </r>
       <r>    3.7324    1.0000 </r>
       <r>    3.7324    1.0000 </r>
       <r>    3.8473    1.0000 </r>
       <r>    4.0065    1.0000 </r>
       <r>    4.2628    1.0000 </r>
       <r>    4.2628    1.0000 </r>
       <r>    4.3570    1.0000 </r>
       <r>    4.4600    1.0000 </r>
       <r>    4.6662    1.0000 </r>
       <r>    4.7951    1.0000 </r>
       <r>    4.9466    1.0000 </r>
       <r>    4.9466    1.0000 </r>
       <r>    5.4984    1.0000 </r>
       <r>    5.5711    1.0000 </r>
       <r>    5.7036    1.0000 </r>
       <r>    5.7176    1.0000 </r>
       <r>    5.7176    1.0000 </r>
       <r>    6.0516    1.0000 </r>
       <r>    9.7869   -0.0000 </r>
       <r>    9.7869   -0.0000 </r>
       <r>   11.9165   -0.0000 </r>
       <r>   11.9165   -0.0000 </r>
       <r>   16.5440    0.0000 </r>
       <r>   17.8211    0.0000 </r>
       <r>   20.2251    0.0000 </r>
       <r>   20.2251    0.0000 </r>
      </set>
      <set comment="kpoint 29">
       <r>    1.0450    1.0000 </r>
       <r>    2.8725    1.0000 </r>
       <r>    2.8725    1.0000 </r>
       <r>    3.1194    1.0000 </r>
       <r>    3.7969    1.0000 </r>
       <r>    3.8483    1.0000 </r>
       <r>    3.8483    1.0000 </r>
       <r>    4.1766    1.0000 </r>
       <r>    4.3073    1.0000 </r>
       <r>    4.3073    1.0000 </r>
       <r>    4.3999    1.0000 </r>
       <r>    4.5153    1.0000 </r>
       <r>    4.5579    1.0000 </r>
       <r>    4.8546    1.0000 </r>
       <r>    4.8546    1.0000 </r>
       <r>    4.8701    1.0000 </r>
       <r>    5.3050    1.0000 </r>
       <r>    5.5644    1.0000 </r>
       <r>    5.7366    1.0000 </r>
       <r>    5.7514    1.0000 </r>
       <r>    5.7514    1.0000 </r>
       <r>    7.5465   -0.0227 </r>
       <r>    7.5465   -0.0227 </r>
       <r>    9.4044   -0.0000 </r>
       <r>   11.7533   -0.0000 </r>
       <r>   13.8439    0.0000 </r>
       <r>   13.8439    0.0000 </r>
       <r>   17.5968    0.0000 </r>
       <r>   20.0174    0.0000 </r>
       <r>   22.3596    0.0000 </r>
      </set>
      <set comment="kpoint 30">
       <r>    1.7217    1.0000 </r>
       <r>    2.3755    1.0000 </r>
       <r>    2.9752    1.0000 </r>
       <r>    3.0537    1.0000 </r>
       <r>    3.9238    1.0000 </r>
       <r>    3.9584    1.0000 </r>
       <r>    4.0735    1.0000 </r>
       <r>    4.1885    1.0000 </r>
       <r>    4.3190    1.0000 </r>
       <r>    4.3564    1.0000 </r>
       <r>    4.4181    1.0000 </r>
       <r>    4.4242    1.0000 </r>
       <r>    4.5921    1.0000 </r>
       <r>    4.6980    1.0000 </r>
       <r>    4.7794    1.0000 </r>
       <r>    4.7849    1.0000 </r>
       <r>    5.4451    1.0000 </r>
       <r>    5.6485    1.0000 </r>
       <r>    5.6825    1.0000 </r>
       <r>    5.6855    1.0000 </r>
       <r>    5.8481    1.0000 </r>
       <r>    6.4418    1.0000 </r>
       <r>    8.2587   -0.0000 </r>
       <r>    9.0565   -0.0000 </r>
       <r>   11.6287   -0.0000 </r>
       <r>   12.5113   -0.0000 </r>
       <r>   14.8571    0.0000 </r>
       <r>   16.1088    0.0000 </r>
       <r>   20.8630    0.0000 </r>
       <r>   21.9244    0.0000 </r>
      </set>
      <set comment="kpoint 31">
       <r>    2.1970    1.0000 </r>
       <r>    2.6227    1.0000 </r>
       <r>    2.6227    1.0000 </r>
       <r>    2.8420    1.0000 </r>
       <r>    4.1004    1.0000 </r>
       <r>    4.1905    1.0000 </r>
       <r>    4.1905    1.0000 </r>
       <r>    4.3510    1.0000 </r>
       <r>    4.3772    1.0000 </r>
       <r>    4.4149    1.0000 </r>
       <r>    4.4149    1.0000 </r>
       <r>    4.5101    1.0000 </r>
       <r>    4.5662    1.0000 </r>
       <r>    4.6459    1.0000 </r>
       <r>    4.6459    1.0000 </r>
       <r>    4.6626    1.0000 </r>
       <r>    5.4424    1.0000 </r>
       <r>    5.5732    1.0000 </r>
       <r>    5.5732    1.0000 </r>
       <r>    5.6018    1.0000 </r>
       <r>    6.2834    1.0000 </r>
       <r>    7.0432    1.0259 </r>
       <r>    7.0432    1.0259 </r>
       <r>    7.9288   -0.0002 </r>
       <r>   12.3391   -0.0000 </r>
       <r>   13.4487    0.0000 </r>
       <r>   13.4487    0.0000 </r>
       <r>   14.6508    0.0000 </r>
       <r>   21.7467    0.0000 </r>
       <r>   22.8662    0.0000 </r>
      </set>
      <set comment="kpoint 32">
       <r>    1.4901    1.0000 </r>
       <r>    2.8168    1.0000 </r>
       <r>    2.8168    1.0000 </r>
       <r>    2.8168    1.0000 </r>
       <r>    4.0239    1.0000 </r>
       <r>    4.0239    1.0000 </r>
       <r>    4.0239    1.0000 </r>
       <r>    4.4122    1.0000 </r>
       <r>    4.4897    1.0000 </r>
       <r>    4.4897    1.0000 </r>
       <r>    4.4918    1.0000 </r>
       <r>    4.4918    1.0000 </r>
       <r>    4.4918    1.0000 </r>
       <r>    4.6949    1.0000 </r>
       <r>    4.6949    1.0000 </r>
       <r>    4.6949    1.0000 </r>
       <r>    5.5037    1.0000 </r>
       <r>    5.5037    1.0000 </r>
       <r>    5.7846    1.0000 </r>
       <r>    5.7846    1.0000 </r>
       <r>    5.7846    1.0000 </r>
       <r>    7.8517   -0.0011 </r>
       <r>    7.8517   -0.0011 </r>
       <r>    7.8517   -0.0011 </r>
       <r>   12.3194   -0.0000 </r>
       <r>   12.3194   -0.0000 </r>
       <r>   12.3194   -0.0000 </r>
       <r>   15.8830    0.0000 </r>
       <r>   22.9712    0.0000 </r>
       <r>   22.9712    0.0000 </r>
      </set>
      <set comment="kpoint 33">
       <r>    1.9838    1.0000 </r>
       <r>    2.4377    1.0000 </r>
       <r>    2.7800    1.0000 </r>
       <r>    2.7800    1.0000 </r>
       <r>    4.1150    1.0000 </r>
       <r>    4.1150    1.0000 </r>
       <r>    4.2544    1.0000 </r>
       <r>    4.4144    1.0000 </r>
       <r>    4.4910    1.0000 </r>
       <r>    4.5623    1.0000 </r>
       <r>    4.5803    1.0000 </r>
       <r>    4.6025    1.0000 </r>
       <r>    4.6103    1.0000 </r>
       <r>    4.6103    1.0000 </r>
       <r>    4.6820    1.0000 </r>
       <r>    4.6820    1.0000 </r>
       <r>    5.6620    1.0000 </r>
       <r>    5.7343    1.0000 </r>
       <r>    5.7449    1.0000 </r>
       <r>    5.7449    1.0000 </r>
       <r>    5.7598    1.0000 </r>
       <r>    6.5578    1.0000 </r>
       <r>    8.1486   -0.0000 </r>
       <r>    8.1486   -0.0000 </r>
       <r>   11.3837   -0.0000 </r>
       <r>   11.3837   -0.0000 </r>
       <r>   13.2379    0.0000 </r>
       <r>   14.4294    0.0000 </r>
       <r>   23.7630    0.0000 </r>
       <r>   23.7630    0.0000 </r>
      </set>
      <set comment="kpoint 34">
       <r>    2.2526    1.0000 </r>
       <r>    2.5143    1.0000 </r>
       <r>    2.5143    1.0000 </r>
       <r>    2.6246    1.0000 </r>
       <r>    4.2367    1.0000 </r>
       <r>    4.2845    1.0000 </r>
       <r>    4.2845    1.0000 </r>
       <r>    4.3907    1.0000 </r>
       <r>    4.4457    1.0000 </r>
       <r>    4.4943    1.0000 </r>
       <r>    4.4943    1.0000 </r>
       <r>    4.5105    1.0000 </r>
       <r>    4.9245    1.0000 </r>
       <r>    4.9245    1.0000 </r>
       <r>    4.9403    1.0000 </r>
       <r>    4.9974    1.0000 </r>
       <r>    5.6184    1.0000 </r>
       <r>    5.7189    1.0000 </r>
       <r>    5.7189    1.0000 </r>
       <r>    5.7212    1.0000 </r>
       <r>    6.0875    1.0000 </r>
       <r>    6.9546    1.0085 </r>
       <r>    6.9546    1.0085 </r>
       <r>    7.6054   -0.0351 </r>
       <r>   11.2806   -0.0000 </r>
       <r>   12.0029   -0.0000 </r>
       <r>   12.0029   -0.0000 </r>
       <r>   13.0513    0.0000 </r>
       <r>   24.6283    0.0000 </r>
       <r>   25.6471    0.0000 </r>
      </set>
      <set comment="kpoint 35">
       <r>    2.3318    1.0000 </r>
       <r>    2.4527    1.0000 </r>
       <r>    2.4527    1.0000 </r>
       <r>    2.4527    1.0000 </r>
       <r>    4.3424    1.0000 </r>
       <r>    4.3424    1.0000 </r>
       <r>    4.3424    1.0000 </r>
       <r>    4.3938    1.0000 </r>
       <r>    4.3938    1.0000 </r>
       <r>    4.4164    1.0000 </r>
       <r>    4.4164    1.0000 </r>
       <r>    4.4164    1.0000 </r>
       <r>    5.3829    1.0000 </r>
       <r>    5.3829    1.0000 </r>
       <r>    5.3829    1.0000 </r>
       <r>    5.7325    1.0000 </r>
       <r>    5.7325    1.0000 </r>
       <r>    5.7680    1.0000 </r>
       <r>    5.7680    1.0000 </r>
       <r>    5.7680    1.0000 </r>
       <r>    5.9074    1.0000 </r>
       <r>    6.8276    1.0007 </r>
       <r>    6.8276    1.0007 </r>
       <r>    6.8276    1.0007 </r>
       <r>   11.1832   -0.0000 </r>
       <r>   11.1832   -0.0000 </r>
       <r>   11.1832   -0.0000 </r>
       <r>   11.8556   -0.0000 </r>
       <r>   27.3814    0.0000 </r>
       <r>   27.3814    0.0000 </r>
      </set>
     </set>
    </set>
   </array>
  </eigenvalues>
  <separator name="orbital magnetization" >
   <v name="MAGDIPOLOUT">      0.00000000      0.00000000      0.00000000</v>
  </separator>
  <dos>
   <i name="efermi">      7.35086856 </i>
   <total>
    <array>
     <dimension dim="1">gridpoints</dimension>
     <dimension dim="2">spin</dimension>
     <field>energy</field>
     <field>total</field>
     <field>integrated</field>
     <set>
      <set comment="spin 1">
       <r>    -3.8462     0.0000     0.0000 </r>
       <r>    -3.7355     0.0000     0.0000 </r>
       <r>    -3.6247     0.0000     0.0000 </r>
       <r>    -3.5140    -0.0000    -0.0000 </r>
       <r>    -3.4032    -0.0000    -0.0000 </r>
       <r>    -3.2925    -0.0000    -0.0000 </r>
       <r>    -3.1817    -0.0000    -0.0000 </r>
       <r>    -3.0709    -0.0000    -0.0000 </r>
       <r>    -2.9602    -0.0000    -0.0000 </r>
       <r>    -2.8494    -0.0000    -0.0000 </r>
       <r>    -2.7387    -0.0000    -0.0000 </r>
       <r>    -2.6279    -0.0000    -0.0000 </r>
       <r>    -2.5171    -0.0000    -0.0000 </r>
       <r>    -2.4064    -0.0000    -0.0000 </r>
       <r>    -2.2956    -0.0001    -0.0000 </r>
       <r>    -2.1849    -0.0006    -0.0001 </r>
       <r>    -2.0741    -0.0021    -0.0003 </r>
       <r>    -1.9633    -0.0021    -0.0005 </r>
       <r>    -1.8526     0.0104     0.0006 </r>
       <r>    -1.7418     0.0539     0.0066 </r>
       <r>    -1.6311     0.1273     0.0207 </r>
       <r>    -1.5203     0.1835     0.0410 </r>
       <r>    -1.4095     0.1728     0.0601 </r>
       <r>    -1.2988     0.1435     0.0760 </r>
       <r>    -1.1880     0.2174     0.1001 </r>
       <r>    -1.0773     0.3795     0.1421 </r>
       <r>    -0.9665     0.4188     0.1885 </r>
       <r>    -0.8558     0.2542     0.2167 </r>
       <r>    -0.7450     0.1331     0.2314 </r>
       <r>    -0.6342     0.2568     0.2599 </r>
       <r>    -0.5235     0.4611     0.3109 </r>
       <r>    -0.4127     0.5356     0.3703 </r>
       <r>    -0.3020     0.4858     0.4241 </r>
       <r>    -0.1912     0.3673     0.4647 </r>
       <r>    -0.0804     0.3247     0.5007 </r>
       <r>     0.0303     0.5239     0.5587 </r>
       <r>     0.1411     0.6697     0.6329 </r>
       <r>     0.2518     0.4247     0.6800 </r>
       <r>     0.3626     0.2246     0.7048 </r>
       <r>     0.4734     0.4811     0.7581 </r>
       <r>     0.5841     0.7872     0.8453 </r>
       <r>     0.6949     0.7670     0.9303 </r>
       <r>     0.8056     0.6379     1.0009 </r>
       <r>     0.9164     0.7511     1.0841 </r>
       <r>     1.0271     0.8987     1.1836 </r>
       <r>     1.1379     0.6237     1.2527 </r>
       <r>     1.2487     0.2939     1.2853 </r>
       <r>     1.3594     0.4609     1.3363 </r>
       <r>     1.4702     1.0293     1.4503 </r>
       <r>     1.5809     1.3769     1.6028 </r>
       <r>     1.6917     1.2057     1.7364 </r>
       <r>     1.8025     1.0336     1.8509 </r>
       <r>     1.9132     1.0169     1.9635 </r>
       <r>     2.0240     0.9436     2.0680 </r>
       <r>     2.1347     1.1344     2.1936 </r>
       <r>     2.2455     1.8692     2.4007 </r>
       <r>     2.3563     2.5451     2.6826 </r>
       <r>     2.4670     2.6908     2.9806 </r>
       <r>     2.5778     3.0318     3.3164 </r>
       <r>     2.6885     3.9436     3.7532 </r>
       <r>     2.7993     4.8796     4.2936 </r>
       <r>     2.9100     5.3133     4.8821 </r>
       <r>     3.0208     5.2853     5.4675 </r>
       <r>     3.1316     6.2667     6.1616 </r>
       <r>     3.2423     8.1312     7.0622 </r>
       <r>     3.3531     9.2470     8.0864 </r>
       <r>     3.4638     9.4350     9.1314 </r>
       <r>     3.5746     8.9773    10.1257 </r>
       <r>     3.6854     8.5435    11.0720 </r>
       <r>     3.7961     8.5490    12.0189 </r>
       <r>     3.9069     8.9784    13.0133 </r>
       <r>     4.0176    10.4142    14.1668 </r>
       <r>     4.1284    12.3438    15.5340 </r>
       <r>     4.2392    13.1459    16.9900 </r>
       <r>     4.3499    14.2326    18.5664 </r>
       <r>     4.4607    16.7192    20.4182 </r>
       <r>     4.5714    17.7531    22.3845 </r>
       <r>     4.6822    15.4878    24.0999 </r>
       <r>     4.7930    12.0700    25.4368 </r>
       <r>     4.9037    10.9571    26.6504 </r>
       <r>     5.0145    12.5982    28.0457 </r>
       <r>     5.1252    14.4158    29.6424 </r>
       <r>     5.2360    14.6641    31.2666 </r>
       <r>     5.3467    13.6373    32.7770 </r>
       <r>     5.4575    13.2271    34.2421 </r>
       <r>     5.5683    14.9377    35.8965 </r>
       <r>     5.6790    18.4610    37.9413 </r>
       <r>     5.7898    19.1161    40.0585 </r>
       <r>     5.9005    13.3115    41.5329 </r>
       <r>     6.0113     5.8638    42.1824 </r>
       <r>     6.1221     1.6730    42.3677 </r>
       <r>     6.2328     0.4562    42.4182 </r>
       <r>     6.3436     0.8625    42.5137 </r>
       <r>     6.4543     1.8325    42.7167 </r>
       <r>     6.5651     2.0101    42.9394 </r>
       <r>     6.6759     1.3288    43.0865 </r>
       <r>     6.7866     0.7766    43.1725 </r>
       <r>     6.8974     1.0059    43.2839 </r>
       <r>     7.0081     1.8651    43.4905 </r>
       <r>     7.1189     2.0752    43.7204 </r>
       <r>     7.2296     1.4161    43.8772 </r>
       <r>     7.3404     1.0179    43.9900 </r>
       <r>     7.4512     0.9263    44.0926 </r>
       <r>     7.5619     0.8668    44.1886 </r>
       <r>     7.6727     0.7740    44.2743 </r>
       <r>     7.7834     0.7521    44.3576 </r>
       <r>     7.8942     1.1383    44.4837 </r>
       <r>     8.0050     1.5043    44.6503 </r>
       <r>     8.1157     1.6673    44.8349 </r>
       <r>     8.2265     1.8093    45.0353 </r>
       <r>     8.3372     1.4546    45.1964 </r>
       <r>     8.4480     0.8146    45.2867 </r>
       <r>     8.5588     0.4943    45.3414 </r>
       <r>     8.6695     0.6779    45.4165 </r>
       <r>     8.7803     0.8762    45.5135 </r>
       <r>     8.8910     0.6102    45.5811 </r>
       <r>     9.0018     0.6212    45.6499 </r>
       <r>     9.1125     1.2746    45.7911 </r>
       <r>     9.2233     1.6999    45.9794 </r>
       <r>     9.3341     1.4483    46.1398 </r>
       <r>     9.4448     1.0192    46.2527 </r>
       <r>     9.5556     0.8806    46.3502 </r>
       <r>     9.6663     1.0595    46.4676 </r>
       <r>     9.7771     1.2405    46.6050 </r>
       <r>     9.8879     0.8477    46.6988 </r>
       <r>     9.9986     0.2995    46.7320 </r>
       <r>    10.1094     0.2613    46.7610 </r>
       <r>    10.2201     0.4255    46.8081 </r>
       <r>    10.3309     0.6117    46.8758 </r>
       <r>    10.4417     1.0027    46.9869 </r>
       <r>    10.5524     1.0712    47.1055 </r>
       <r>    10.6632     0.6555    47.1781 </r>
       <r>    10.7739     0.7463    47.2608 </r>
       <r>    10.8847     1.1619    47.3895 </r>
       <r>    10.9955     0.8667    47.4855 </r>
       <r>    11.1062     0.3731    47.5268 </r>
       <r>    11.2170     0.5060    47.5829 </r>
       <r>    11.3277     0.9407    47.6871 </r>
       <r>    11.4385     1.2684    47.8275 </r>
       <r>    11.5492     1.4948    47.9931 </r>
       <r>    11.6600     1.4692    48.1558 </r>
       <r>    11.7708     1.0510    48.2722 </r>
       <r>    11.8815     0.8675    48.3683 </r>
       <r>    11.9923     1.0106    48.4803 </r>
       <r>    12.1030     0.9158    48.5817 </r>
       <r>    12.2138     0.9754    48.6897 </r>
       <r>    12.3246     1.4597    48.8514 </r>
       <r>    12.4353     1.5960    49.0282 </r>
       <r>    12.5461     1.3079    49.1730 </r>
       <r>    12.6568     0.9806    49.2816 </r>
       <r>    12.7676     0.6004    49.3482 </r>
       <r>    12.8784     0.5257    49.4064 </r>
       <r>    12.9891     1.2879    49.5490 </r>
       <r>    13.0999     2.0608    49.7773 </r>
       <r>    13.2106     1.5614    49.9502 </r>
       <r>    13.3214     0.7303    50.0311 </r>
       <r>    13.4321     0.8018    50.1199 </r>
       <r>    13.5429     1.1601    50.2484 </r>
       <r>    13.6537     0.8480    50.3423 </r>
       <r>    13.7644     0.4494    50.3921 </r>
       <r>    13.8752     0.5345    50.4513 </r>
       <r>    13.9859     0.5675    50.5141 </r>
       <r>    14.0967     0.5737    50.5777 </r>
       <r>    14.2075     0.9016    50.6775 </r>
       <r>    14.3182     1.3671    50.8290 </r>
       <r>    14.4290     1.7936    51.0276 </r>
       <r>    14.5397     1.8547    51.2330 </r>
       <r>    14.6505     1.4326    51.3917 </r>
       <r>    14.7613     1.0617    51.5093 </r>
       <r>    14.8720     1.1354    51.6351 </r>
       <r>    14.9828     1.3884    51.7888 </r>
       <r>    15.0935     1.1611    51.9174 </r>
       <r>    15.2043     0.7318    51.9985 </r>
       <r>    15.3150     0.7701    52.0838 </r>
       <r>    15.4258     0.9287    52.1867 </r>
       <r>    15.5366     0.9775    52.2949 </r>
       <r>    15.6473     1.2243    52.4305 </r>
       <r>    15.7581     1.5983    52.6076 </r>
       <r>    15.8688     1.9635    52.8250 </r>
       <r>    15.9796     1.9701    53.0432 </r>
       <r>    16.0904     1.6431    53.2252 </r>
       <r>    16.2011     1.6044    53.4029 </r>
       <r>    16.3119     1.6538    53.5861 </r>
       <r>    16.4226     1.5818    53.7613 </r>
       <r>    16.5334     1.5973    53.9382 </r>
       <r>    16.6442     1.7725    54.1345 </r>
       <r>    16.7549     1.8855    54.3434 </r>
       <r>    16.8657     1.4259    54.5013 </r>
       <r>    16.9764     0.7085    54.5798 </r>
       <r>    17.0872     0.7034    54.6577 </r>
       <r>    17.1980     1.0947    54.7789 </r>
       <r>    17.3087     1.3253    54.9257 </r>
       <r>    17.4195     1.6003    55.1030 </r>
       <r>    17.5302     1.7062    55.2919 </r>
       <r>    17.6410     1.3265    55.4389 </r>
       <r>    17.7517     0.9325    55.5422 </r>
       <r>    17.8625     1.0131    55.6544 </r>
       <r>    17.9733     1.4439    55.8143 </r>
       <r>    18.0840     2.0943    56.0462 </r>
       <r>    18.1948     2.2717    56.2979 </r>
       <r>    18.3055     1.5604    56.4707 </r>
       <r>    18.4163     1.5056    56.6374 </r>
       <r>    18.5271     2.4483    56.9086 </r>
       <r>    18.6378     2.3381    57.1676 </r>
       <r>    18.7486     1.1019    57.2896 </r>
       <r>    18.8593     0.4235    57.3365 </r>
       <r>    18.9701     0.6535    57.4089 </r>
       <r>    19.0809     1.0882    57.5294 </r>
       <r>    19.1916     1.4518    57.6902 </r>
       <r>    19.3024     1.9419    57.9053 </r>
       <r>    19.4131     2.0568    58.1331 </r>
       <r>    19.5239     1.5155    58.3010 </r>
       <r>    19.6346     1.0612    58.4185 </r>
       <r>    19.7454     1.2222    58.5539 </r>
       <r>    19.8562     1.3477    58.7032 </r>
       <r>    19.9669     0.8523    58.7976 </r>
       <r>    20.0777     0.4855    58.8513 </r>
       <r>    20.1884     0.7060    58.9295 </r>
       <r>    20.2992     0.8945    59.0286 </r>
       <r>    20.4100     0.6796    59.1039 </r>
       <r>    20.5207     0.4163    59.1500 </r>
       <r>    20.6315     0.2433    59.1769 </r>
       <r>    20.7422     0.2179    59.2011 </r>
       <r>    20.8530     0.4416    59.2500 </r>
       <r>    20.9638     0.4801    59.3031 </r>
       <r>    21.0745     0.1850    59.3236 </r>
       <r>    21.1853    -0.0094    59.3226 </r>
       <r>    21.2960    -0.0233    59.3200 </r>
       <r>    21.4068    -0.0149    59.3183 </r>
       <r>    21.5175    -0.0174    59.3164 </r>
       <r>    21.6283     0.0447    59.3214 </r>
       <r>    21.7391     0.2435    59.3483 </r>
       <r>    21.8498     0.5091    59.4047 </r>
       <r>    21.9606     0.6129    59.4726 </r>
       <r>    22.0713     0.3632    59.5128 </r>
       <r>    22.1821     0.0774    59.5214 </r>
       <r>    22.2929     0.1161    59.5343 </r>
       <r>    22.4036     0.2509    59.5621 </r>
       <r>    22.5144     0.1682    59.5807 </r>
       <r>    22.6251     0.0129    59.5821 </r>
       <r>    22.7359     0.0352    59.5860 </r>
       <r>    22.8467     0.2495    59.6137 </r>
       <r>    22.9574     0.4005    59.6580 </r>
       <r>    23.0682     0.2739    59.6884 </r>
       <r>    23.1789     0.0652    59.6956 </r>
       <r>    23.2897    -0.0159    59.6938 </r>
       <r>    23.4005    -0.0244    59.6911 </r>
       <r>    23.5112    -0.0274    59.6881 </r>
       <r>    23.6220     0.0873    59.6978 </r>
       <r>    23.7327     0.3984    59.7419 </r>
       <r>    23.8435     0.5213    59.7996 </r>
       <r>    23.9542     0.2475    59.8270 </r>
       <r>    24.0650     0.0085    59.8280 </r>
       <r>    24.1758    -0.0264    59.8251 </r>
       <r>    24.2865    -0.0158    59.8233 </r>
       <r>    24.3973    -0.0106    59.8221 </r>
       <r>    24.5080     0.0678    59.8296 </r>
       <r>    24.6188     0.2262    59.8547 </r>
       <r>    24.7296     0.2459    59.8819 </r>
       <r>    24.8403     0.0932    59.8923 </r>
       <r>    24.9511    -0.0047    59.8917 </r>
       <r>    25.0618    -0.0107    59.8905 </r>
       <r>    25.1726    -0.0035    59.8902 </r>
       <r>    25.2834    -0.0072    59.8894 </r>
       <r>    25.3941    -0.0128    59.8879 </r>
       <r>    25.5049     0.0425    59.8926 </r>
       <r>    25.6156     0.1976    59.9145 </r>
       <r>    25.7264     0.2612    59.9435 </r>
       <r>    25.8371     0.1255    59.9574 </r>
       <r>    25.9479     0.0049    59.9579 </r>
       <r>    26.0587    -0.0124    59.9565 </r>
       <r>    26.1694    -0.0035    59.9561 </r>
       <r>    26.2802    -0.0004    59.9561 </r>
       <r>    26.3909    -0.0000    59.9561 </r>
       <r>    26.5017    -0.0000    59.9561 </r>
       <r>    26.6125    -0.0000    59.9561 </r>
       <r>    26.7232    -0.0000    59.9561 </r>
       <r>    26.8340    -0.0001    59.9561 </r>
       <r>    26.9447    -0.0015    59.9559 </r>
       <r>    27.0555    -0.0069    59.9552 </r>
       <r>    27.1663    -0.0038    59.9547 </r>
       <r>    27.2770     0.0592    59.9613 </r>
       <r>    27.3878     0.1620    59.9792 </r>
       <r>    27.4985     0.1532    59.9962 </r>
       <r>    27.6093     0.0479    60.0015 </r>
       <r>    27.7200    -0.0061    60.0008 </r>
       <r>    27.8308    -0.0062    60.0001 </r>
       <r>    27.9416    -0.0012    60.0000 </r>
       <r>    28.0523    -0.0001    60.0000 </r>
       <r>    28.1631    -0.0000    60.0000 </r>
       <r>    28.2738    -0.0000    60.0000 </r>
       <r>    28.3846    -0.0000    60.0000 </r>
       <r>    28.4954    -0.0000    60.0000 </r>
       <r>    28.6061    -0.0000    60.0000 </r>
       <r>    28.7169     0.0000    60.0000 </r>
       <r>    28.8276     0.0000    60.0000 </r>
       <r>    28.9384     0.0000    60.0000 </r>
       <r>    29.0492     0.0000    60.0000 </r>
       <r>    29.1599     0.0000    60.0000 </r>
       <r>    29.2707     0.0000    60.0000 </r>
       <r>    29.3814     0.0000    60.0000 </r>
      </set>
     </set>
    </array>
   </total>
  </dos>
 </calculation>
 <structure name="finalpos" >
  <crystal>
   <varray name="basis" >
    <v>       3.63500000       0.00000000       0.00000000 </v>
    <v>       0.00000000       3.63500000       0.00000000 </v>
    <v>       0.00000000       0.00000000       3.63500000 </v>
   </varray>
   <i name="volume">     48.03007287 </i>
   <varray name="rec_basis" >
    <v>       0.27510316       0.00000000       0.00000000 </v>
    <v>       0.00000000       0.27510316       0.00000000 </v>
    <v>       0.00000000       0.00000000       0.27510316 </v>
   </varray>
  </crystal>
  <varray name="positions" >
   <v>       0.00000000       0.00000000       0.00000000 </v>
   <v>       0.50000000       0.50000000       0.00000000 </v>
   <v>       0.50000000       0.00000000       0.50000000 </v>
   <v>       0.00000000       0.50000000       0.50000000 </v>
  </varray>
 </structure>
</modeling>
