 vasp.6.2.0 18Jan21 (build Mar 17 2021 09:06:54) complex                        
  
 POSCAR found type information on POSCAR Cu
 POSCAR found :  1 types and       4 ions
 LDA part: xc-table for Pade appr. of Perdew
 POSCAR, INCAR and KPOINTS ok, starting setup
 FFT: planning ...
 WAVECAR not read
 WARNING: chargedensity file is incomplete
 entering main loop
       N       E                     dE             d eps       ncg     rms          rms(c)
DAV:   1     0.282153481799E+03    0.28215E+03   -0.14481E+04  2252   0.182E+03
DAV:   2     0.229131503908E+01   -0.27986E+03   -0.26997E+03  2100   0.333E+02
DAV:   3    -0.181041162161E+02   -0.20395E+02   -0.19686E+02  2352   0.133E+02
DAV:   4    -0.185031032982E+02   -0.39899E+00   -0.39861E+00  2370   0.249E+01
DAV:   5    -0.185084173632E+02   -0.53141E-02   -0.53139E-02  2702   0.273E+00    0.152E+01
DAV:   6    -0.163971021037E+02    0.21113E+01   -0.29543E+01  2310   0.110E+02    0.784E+00
DAV:   7    -0.149902490295E+02    0.14069E+01   -0.55386E+00  2372   0.461E+01    0.975E-01
DAV:   8    -0.149613218987E+02    0.28927E-01   -0.77546E-02  2692   0.322E+00    0.775E-01
DAV:   9    -0.149506716449E+02    0.10650E-01   -0.23729E-02  2402   0.314E+00    0.355E-02
DAV:  10    -0.149507821398E+02   -0.11049E-03   -0.88999E-04  2658   0.315E-01    0.125E-02
DAV:  11    -0.149507800975E+02    0.20423E-05   -0.15304E-05  2484   0.386E-02    0.679E-03
DAV:  12    -0.149507833773E+02   -0.32799E-05   -0.57825E-07  1382   0.147E-02    0.906E-04
DAV:  13    -0.149507836499E+02   -0.27256E-06   -0.29110E-07  1278   0.571E-03
   1 F= -.14950784E+02 E0= -.14951274E+02  d E =0.147024E-02
 writing wavefunctions
