unknown system                          
   1.00000000000000     
     3.445083    0.000000    0.000000
     0.000000    3.445083    0.000000
     0.000000    0.000000    3.445083
   Fe
     4
Direct
  0.000000  0.000000  0.000000
  0.500000  0.500000  0.000000
  0.500000  0.000000  0.500000
  0.000000  0.500000  0.500000
 
   32   32   32
 0.34349091909E+03 0.32799059904E+03 0.28576256033E+03 0.22745701153E+03 0.16535615682E+03
 0.10943396001E+03 0.65874439036E+02 0.37112604979E+02 0.21994896341E+02 0.16125491792E+02
 0.13567415461E+02 0.11788401041E+02 0.10662890551E+02 0.99875620121E+01 0.95757416177E+01
 0.93294858607E+01 0.92426431471E+01 0.93294858607E+01 0.95757416177E+01 0.99875620121E+01
 0.10662890551E+02 0.11788401041E+02 0.13567415461E+02 0.16125491792E+02 0.21994896341E+02
 0.37112604979E+02 0.65874439036E+02 0.10943396001E+03 0.16535615682E+03 0.22745701153E+03
 0.28576256033E+03 0.32799059904E+03 0.32799059904E+03 0.31318512028E+03 0.27283538113E+03
 0.21709598985E+03 0.15772261372E+03 0.10431480579E+03 0.62847832943E+02 0.35641903725E+02
 0.21490972498E+02 0.16038878088E+02 0.13556922059E+02 0.11822405381E+02 0.10724477749E+02
 0.10063123317E+02 0.96578924710E+01 0.94150888226E+01 0.93294858607E+01 0.94150888226E+01
 0.96578924710E+01 0.10063123317E+02 0.10724477749E+02 0.11822405381E+02 0.13556922059E+02
 0.16038878088E+02 0.21490972498E+02 0.35641903725E+02 0.62847832943E+02 0.10431480579E+03
 0.15772261372E+03 0.21709598985E+03 0.27283538113E+03 0.31318512028E+03 0.28576256033E+03
 0.27283538113E+03 0.23757501125E+03 0.18882000078E+03 0.13691287162E+03 0.90421856775E+02
 0.54716560863E+02 0.31767689086E+02 0.20213018537E+02 0.15820177112E+02 0.13527185443E+02
 0.11919817138E+02 0.10899832629E+02 0.10277799090E+02 0.98910548920E+01 0.96578924710E+01
 0.95757416177E+01 0.96578924710E+01 0.98910548920E+01 0.10277799090E+02 0.10899832629E+02
 0.11919817138E+02 0.13527185443E+02 0.15820177112E+02 0.20213018537E+02 0.31767689086E+02
 0.54716560863E+02 0.90421856775E+02 0.13691287162E+03 0.18882000078E+03 0.23757501125E+03
 0.27283538113E+03 0.22745701153E+03 0.21709598985E+03 0.18882000078E+03 0.14972980072E+03
 0.10825770179E+03 0.71503828114E+02 0.43897168494E+02 0.26833034184E+02 0.18711854483E+02
 0.15531073786E+02 0.13494541019E+02 0.12085374307E+02 0.11187903400E+02 0.10631004592E+02
 0.10277799090E+02 0.10063123317E+02 0.99875620121E+01 0.10063123317E+02 0.10277799090E+02
 0.10631004592E+02 0.11187903400E+02 0.12085374307E+02 0.13494541019E+02 0.15531073786E+02
 0.18711854483E+02 0.26833034184E+02 0.43897168494E+02 0.71503828114E+02 0.10825770179E+03
 0.14972980072E+03 0.18882000078E+03 0.21709598985E+03 0.16535615682E+03 0.15772261372E+03
 0.13691287162E+03 0.10825770179E+03 0.78168690035E+02 0.52078302063E+02 0.33245526389E+02
 0.22332581443E+02 0.17494698243E+02 0.15200636525E+02 0.13507871720E+02 0.12363150192E+02
 0.11638989237E+02 0.11187903400E+02 0.10899832629E+02 0.10724477749E+02 0.10662890551E+02
 0.10724477749E+02 0.10899832629E+02 0.11187903400E+02 0.11638989237E+02 0.12363150192E+02
 0.13507871720E+02 0.15200636525E+02 0.17494698243E+02 0.22332581443E+02 0.33245526389E+02
 0.52078302063E+02 0.78168690035E+02 0.10825770179E+03 0.13691287162E+03 0.15772261372E+03
 0.10943396001E+03 0.10431480579E+03 0.90421856775E+02 0.71503828114E+02 0.52078302063E+02
 0.35899125171E+02 0.24976837884E+02 0.19225010569E+02 0.16663380146E+02 0.14913719420E+02
 0.13652236941E+02 0.12843876326E+02 0.12363150192E+02 0.12085374307E+02 0.11919817138E+02
 0.11822405381E+02 0.11788401041E+02 0.11822405381E+02 0.11919817138E+02 0.12085374307E+02
 0.12363150192E+02 0.12843876326E+02 0.13652236941E+02 0.14913719420E+02 0.16663380146E+02
 0.19225010569E+02 0.24976837884E+02 0.35899125171E+02 0.52078302063E+02 0.71503828114E+02
 0.90421856775E+02 0.10431480579E+03 0.65874439036E+02 0.62847832943E+02 0.54716560863E+02
 0.43897168494E+02 0.33245526389E+02 0.24976837884E+02 0.19957968568E+02 0.17513042704E+02
 0.15964067994E+02 0.14786275820E+02 0.14039232327E+02 0.13652236941E+02 0.13507871720E+02
 0.13494541019E+02 0.13527185443E+02 0.13556922059E+02 0.13567415461E+02 0.13556922059E+02
 0.13527185443E+02 0.13494541019E+02 0.13507871720E+02 0.13652236941E+02 0.14039232327E+02
 0.14786275820E+02 0.15964067994E+02 0.17513042704E+02 0.19957968568E+02 0.24976837884E+02
 0.33245526389E+02 0.43897168494E+02 0.54716560863E+02 0.62847832943E+02 0.37112604979E+02
 0.35641903725E+02 0.31767689086E+02 0.26833034184E+02 0.22332581443E+02 0.19225010569E+02
 0.17513042704E+02 0.16355504878E+02 0.15460488959E+02 0.14939040852E+02 0.14786275820E+02
 0.14913719420E+02 0.15200636525E+02 0.15531073786E+02 0.15820177112E+02 0.16038878088E+02
 0.16125491792E+02 0.16038878088E+02 0.15820177112E+02 0.15531073786E+02 0.15200636525E+02
 0.14913719420E+02 0.14786275820E+02 0.14939040852E+02 0.15460488959E+02 0.16355504878E+02
 0.17513042704E+02 0.19225010569E+02 0.22332581443E+02 0.26833034184E+02 0.31767689086E+02
 0.35641903725E+02 0.21994896341E+02 0.21490972498E+02 0.20213018537E+02 0.18711854483E+02
 0.17494698243E+02 0.16663380146E+02 0.15964067994E+02 0.15460488959E+02 0.15276825326E+02
 0.15460488959E+02 0.15964067994E+02 0.16663380146E+02 0.17494698243E+02 0.18711854483E+02
 0.20213018537E+02 0.21490972498E+02 0.21994896341E+02 0.21490972498E+02 0.20213018537E+02
 0.18711854483E+02 0.17494698243E+02 0.16663380146E+02 0.15964067994E+02 0.15460488959E+02
 0.15276825326E+02 0.15460488959E+02 0.15964067994E+02 0.16663380146E+02 0.17494698243E+02
 0.18711854483E+02 0.20213018537E+02 0.21490972498E+02 0.16125491792E+02 0.16038878088E+02
 0.15820177112E+02 0.15531073786E+02 0.15200636525E+02 0.14913719420E+02 0.14786275820E+02
 0.14939040852E+02 0.15460488959E+02 0.16355504878E+02 0.17513042704E+02 0.19225010569E+02
 0.22332581443E+02 0.26833034184E+02 0.31767689086E+02 0.35641903725E+02 0.37112604979E+02
 0.35641903725E+02 0.31767689086E+02 0.26833034184E+02 0.22332581443E+02 0.19225010569E+02
 0.17513042704E+02 0.16355504878E+02 0.15460488959E+02 0.14939040852E+02 0.14786275820E+02
 0.14913719420E+02 0.15200636525E+02 0.15531073786E+02 0.15820177112E+02 0.16038878088E+02
 0.13567415461E+02 0.13556922059E+02 0.13527185443E+02 0.13494541019E+02 0.13507871720E+02
 0.13652236941E+02 0.14039232327E+02 0.14786275820E+02 0.15964067994E+02 0.17513042704E+02
 0.19957968568E+02 0.24976837884E+02 0.33245526389E+02 0.43897168494E+02 0.54716560863E+02
 0.62847832943E+02 0.65874439036E+02 0.62847832943E+02 0.54716560863E+02 0.43897168494E+02
 0.33245526389E+02 0.24976837884E+02 0.19957968568E+02 0.17513042704E+02 0.15964067994E+02
 0.14786275820E+02 0.14039232327E+02 0.13652236941E+02 0.13507871720E+02 0.13494541019E+02
 0.13527185443E+02 0.13556922059E+02 0.11788401041E+02 0.11822405381E+02 0.11919817138E+02
 0.12085374307E+02 0.12363150192E+02 0.12843876326E+02 0.13652236941E+02 0.14913719420E+02
 0.16663380146E+02 0.19225010569E+02 0.24976837884E+02 0.35899125171E+02 0.52078302063E+02
 0.71503828114E+02 0.90421856775E+02 0.10431480579E+03 0.10943396001E+03 0.10431480579E+03
 0.90421856775E+02 0.71503828114E+02 0.52078302063E+02 0.35899125171E+02 0.24976837884E+02
 0.19225010569E+02 0.16663380146E+02 0.14913719420E+02 0.13652236941E+02 0.12843876326E+02
 0.12363150192E+02 0.12085374307E+02 0.11919817138E+02 0.11822405381E+02 0.10662890551E+02
 0.10724477749E+02 0.10899832629E+02 0.11187903400E+02 0.11638989237E+02 0.12363150192E+02
 0.13507871720E+02 0.15200636525E+02 0.17494698243E+02 0.22332581443E+02 0.33245526389E+02
 0.52078302063E+02 0.78168690035E+02 0.10825770179E+03 0.13691287162E+03 0.15772261372E+03
 0.16535615682E+03 0.15772261372E+03 0.13691287162E+03 0.10825770179E+03 0.78168690035E+02
 0.52078302063E+02 0.33245526389E+02 0.22332581443E+02 0.17494698243E+02 0.15200636525E+02
 0.13507871720E+02 0.12363150192E+02 0.11638989237E+02 0.11187903400E+02 0.10899832629E+02
 0.10724477749E+02 0.99875620121E+01 0.10063123317E+02 0.10277799090E+02 0.10631004592E+02
 0.11187903400E+02 0.12085374307E+02 0.13494541019E+02 0.15531073786E+02 0.18711854483E+02
 0.26833034184E+02 0.43897168494E+02 0.71503828114E+02 0.10825770179E+03 0.14972980072E+03
 0.18882000078E+03 0.21709598985E+03 0.22745701153E+03 0.21709598985E+03 0.18882000078E+03
 0.14972980072E+03 0.10825770179E+03 0.71503828114E+02 0.43897168494E+02 0.26833034184E+02
 0.18711854483E+02 0.15531073786E+02 0.13494541019E+02 0.12085374307E+02 0.11187903400E+02
 0.10631004592E+02 0.10277799090E+02 0.10063123317E+02 0.95757416177E+01 0.96578924710E+01
 0.98910548920E+01 0.10277799090E+02 0.10899832629E+02 0.11919817138E+02 0.13527185443E+02
 0.15820177112E+02 0.20213018537E+02 0.31767689086E+02 0.54716560863E+02 0.90421856775E+02
 0.13691287162E+03 0.18882000078E+03 0.23757501125E+03 0.27283538113E+03 0.28576256033E+03
 0.27283538113E+03 0.23757501125E+03 0.18882000078E+03 0.13691287162E+03 0.90421856775E+02
 0.54716560863E+02 0.31767689086E+02 0.20213018537E+02 0.15820177112E+02 0.13527185443E+02
 0.11919817138E+02 0.10899832629E+02 0.10277799090E+02 0.98910548920E+01 0.96578924710E+01
 0.93294858607E+01 0.94150888226E+01 0.96578924710E+01 0.10063123317E+02 0.10724477749E+02
 0.11822405381E+02 0.13556922059E+02 0.16038878088E+02 0.21490972498E+02 0.35641903725E+02
 0.62847832943E+02 0.10431480579E+03 0.15772261372E+03 0.21709598985E+03 0.27283538113E+03
 0.31318512028E+03 0.32799059904E+03 0.31318512028E+03 0.27283538113E+03 0.21709598985E+03
 0.15772261372E+03 0.10431480579E+03 0.62847832943E+02 0.35641903725E+02 0.21490972498E+02
 0.16038878088E+02 0.13556922059E+02 0.11822405381E+02 0.10724477749E+02 0.10063123317E+02
 0.96578924710E+01 0.94150888226E+01 0.92426431471E+01 0.93294858607E+01 0.95757416177E+01
 0.99875620121E+01 0.10662890551E+02 0.11788401041E+02 0.13567415461E+02 0.16125491792E+02
 0.21994896341E+02 0.37112604979E+02 0.65874439036E+02 0.10943396001E+03 0.16535615682E+03
 0.22745701153E+03 0.28576256033E+03 0.32799059904E+03 0.34349091909E+03 0.32799059904E+03
 0.28576256033E+03 0.22745701153E+03 0.16535615682E+03 0.10943396001E+03 0.65874439036E+02
 0.37112604979E+02 0.21994896341E+02 0.16125491792E+02 0.13567415461E+02 0.11788401041E+02
 0.10662890551E+02 0.99875620121E+01 0.95757416177E+01 0.93294858607E+01 0.93294858607E+01
 0.94150888226E+01 0.96578924710E+01 0.10063123317E+02 0.10724477749E+02 0.11822405381E+02
 0.13556922059E+02 0.16038878088E+02 0.21490972498E+02 0.35641903725E+02 0.62847832943E+02
 0.10431480579E+03 0.15772261372E+03 0.21709598985E+03 0.27283538113E+03 0.31318512028E+03
 0.32799059904E+03 0.31318512028E+03 0.27283538113E+03 0.21709598985E+03 0.15772261372E+03
 0.10431480579E+03 0.62847832943E+02 0.35641903725E+02 0.21490972498E+02 0.16038878088E+02
 0.13556922059E+02 0.11822405381E+02 0.10724477749E+02 0.10063123317E+02 0.96578924710E+01
 0.94150888226E+01 0.95757416177E+01 0.96578924710E+01 0.98910548920E+01 0.10277799090E+02
 0.10899832629E+02 0.11919817138E+02 0.13527185443E+02 0.15820177112E+02 0.20213018537E+02
 0.31767689086E+02 0.54716560863E+02 0.90421856775E+02 0.13691287162E+03 0.18882000078E+03
 0.23757501125E+03 0.27283538113E+03 0.28576256033E+03 0.27283538113E+03 0.23757501125E+03
 0.18882000078E+03 0.13691287162E+03 0.90421856775E+02 0.54716560863E+02 0.31767689086E+02
 0.20213018537E+02 0.15820177112E+02 0.13527185443E+02 0.11919817138E+02 0.10899832629E+02
 0.10277799090E+02 0.98910548920E+01 0.96578924710E+01 0.99875620121E+01 0.10063123317E+02
 0.10277799090E+02 0.10631004592E+02 0.11187903400E+02 0.12085374307E+02 0.13494541019E+02
 0.15531073786E+02 0.18711854483E+02 0.26833034184E+02 0.43897168494E+02 0.71503828114E+02
 0.10825770179E+03 0.14972980072E+03 0.18882000078E+03 0.21709598985E+03 0.22745701153E+03
 0.21709598985E+03 0.18882000078E+03 0.14972980072E+03 0.10825770179E+03 0.71503828114E+02
 0.43897168494E+02 0.26833034184E+02 0.18711854483E+02 0.15531073786E+02 0.13494541019E+02
 0.12085374307E+02 0.11187903400E+02 0.10631004592E+02 0.10277799090E+02 0.10063123317E+02
 0.10662890551E+02 0.10724477749E+02 0.10899832629E+02 0.11187903400E+02 0.11638989237E+02
 0.12363150192E+02 0.13507871720E+02 0.15200636525E+02 0.17494698243E+02 0.22332581443E+02
 0.33245526389E+02 0.52078302063E+02 0.78168690035E+02 0.10825770179E+03 0.13691287162E+03
 0.15772261372E+03 0.16535615682E+03 0.15772261372E+03 0.13691287162E+03 0.10825770179E+03
 0.78168690035E+02 0.52078302063E+02 0.33245526389E+02 0.22332581443E+02 0.17494698243E+02
 0.15200636525E+02 0.13507871720E+02 0.12363150192E+02 0.11638989237E+02 0.11187903400E+02
 0.10899832629E+02 0.10724477749E+02 0.11788401041E+02 0.11822405381E+02 0.11919817138E+02
 0.12085374307E+02 0.12363150192E+02 0.12843876326E+02 0.13652236941E+02 0.14913719420E+02
 0.16663380146E+02 0.19225010569E+02 0.24976837884E+02 0.35899125171E+02 0.52078302063E+02
 0.71503828114E+02 0.90421856775E+02 0.10431480579E+03 0.10943396001E+03 0.10431480579E+03
 0.90421856775E+02 0.71503828114E+02 0.52078302063E+02 0.35899125171E+02 0.24976837884E+02
 0.19225010569E+02 0.16663380146E+02 0.14913719420E+02 0.13652236941E+02 0.12843876326E+02
 0.12363150192E+02 0.12085374307E+02 0.11919817138E+02 0.11822405381E+02 0.13567415461E+02
 0.13556922059E+02 0.13527185443E+02 0.13494541019E+02 0.13507871720E+02 0.13652236941E+02
 0.14039232327E+02 0.14786275820E+02 0.15964067994E+02 0.17513042704E+02 0.19957968568E+02
 0.24976837884E+02 0.33245526389E+02 0.43897168494E+02 0.54716560863E+02 0.62847832943E+02
 0.65874439036E+02 0.62847832943E+02 0.54716560863E+02 0.43897168494E+02 0.33245526389E+02
 0.24976837884E+02 0.19957968568E+02 0.17513042704E+02 0.15964067994E+02 0.14786275820E+02
 0.14039232327E+02 0.13652236941E+02 0.13507871720E+02 0.13494541019E+02 0.13527185443E+02
 0.13556922059E+02 0.16125491792E+02 0.16038878088E+02 0.15820177112E+02 0.15531073786E+02
 0.15200636525E+02 0.14913719420E+02 0.14786275820E+02 0.14939040852E+02 0.15460488959E+02
 0.16355504878E+02 0.17513042704E+02 0.19225010569E+02 0.22332581443E+02 0.26833034184E+02
 0.31767689086E+02 0.35641903725E+02 0.37112604979E+02 0.35641903725E+02 0.31767689086E+02
 0.26833034184E+02 0.22332581443E+02 0.19225010569E+02 0.17513042704E+02 0.16355504878E+02
 0.15460488959E+02 0.14939040852E+02 0.14786275820E+02 0.14913719420E+02 0.15200636525E+02
 0.15531073786E+02 0.15820177112E+02 0.16038878088E+02 0.21994896341E+02 0.21490972498E+02
 0.20213018537E+02 0.18711854483E+02 0.17494698243E+02 0.16663380146E+02 0.15964067994E+02
 0.15460488959E+02 0.15276825326E+02 0.15460488959E+02 0.15964067994E+02 0.16663380146E+02
 0.17494698243E+02 0.18711854483E+02 0.20213018537E+02 0.21490972498E+02 0.21994896341E+02
 0.21490972498E+02 0.20213018537E+02 0.18711854483E+02 0.17494698243E+02 0.16663380146E+02
 0.15964067994E+02 0.15460488959E+02 0.15276825326E+02 0.15460488959E+02 0.15964067994E+02
 0.16663380146E+02 0.17494698243E+02 0.18711854483E+02 0.20213018537E+02 0.21490972498E+02
 0.37112604979E+02 0.35641903725E+02 0.31767689086E+02 0.26833034184E+02 0.22332581443E+02
 0.19225010569E+02 0.17513042704E+02 0.16355504878E+02 0.15460488959E+02 0.14939040852E+02
 0.14786275820E+02 0.14913719420E+02 0.15200636525E+02 0.15531073786E+02 0.15820177112E+02
 0.16038878088E+02 0.16125491792E+02 0.16038878088E+02 0.15820177112E+02 0.15531073786E+02
 0.15200636525E+02 0.14913719420E+02 0.14786275820E+02 0.14939040852E+02 0.15460488959E+02
 0.16355504878E+02 0.17513042704E+02 0.19225010569E+02 0.22332581443E+02 0.26833034184E+02
 0.31767689086E+02 0.35641903725E+02 0.65874439036E+02 0.62847832943E+02 0.54716560863E+02
 0.43897168494E+02 0.33245526389E+02 0.24976837884E+02 0.19957968568E+02 0.17513042704E+02
 0.15964067994E+02 0.14786275820E+02 0.14039232327E+02 0.13652236941E+02 0.13507871720E+02
 0.13494541019E+02 0.13527185443E+02 0.13556922059E+02 0.13567415461E+02 0.13556922059E+02
 0.13527185443E+02 0.13494541019E+02 0.13507871720E+02 0.13652236941E+02 0.14039232327E+02
 0.14786275820E+02 0.15964067994E+02 0.17513042704E+02 0.19957968568E+02 0.24976837884E+02
 0.33245526389E+02 0.43897168494E+02 0.54716560863E+02 0.62847832943E+02 0.10943396001E+03
 0.10431480579E+03 0.90421856775E+02 0.71503828114E+02 0.52078302063E+02 0.35899125171E+02
 0.24976837884E+02 0.19225010569E+02 0.16663380146E+02 0.14913719420E+02 0.13652236941E+02
 0.12843876326E+02 0.12363150192E+02 0.12085374307E+02 0.11919817138E+02 0.11822405381E+02
 0.11788401041E+02 0.11822405381E+02 0.11919817138E+02 0.12085374307E+02 0.12363150192E+02
 0.12843876326E+02 0.13652236941E+02 0.14913719420E+02 0.16663380146E+02 0.19225010569E+02
 0.24976837884E+02 0.35899125171E+02 0.52078302063E+02 0.71503828114E+02 0.90421856775E+02
 0.10431480579E+03 0.16535615682E+03 0.15772261372E+03 0.13691287162E+03 0.10825770179E+03
 0.78168690035E+02 0.52078302063E+02 0.33245526389E+02 0.22332581443E+02 0.17494698243E+02
 0.15200636525E+02 0.13507871720E+02 0.12363150192E+02 0.11638989237E+02 0.11187903400E+02
 0.10899832629E+02 0.10724477749E+02 0.10662890551E+02 0.10724477749E+02 0.10899832629E+02
 0.11187903400E+02 0.11638989237E+02 0.12363150192E+02 0.13507871720E+02 0.15200636525E+02
 0.17494698243E+02 0.22332581443E+02 0.33245526389E+02 0.52078302063E+02 0.78168690035E+02
 0.10825770179E+03 0.13691287162E+03 0.15772261372E+03 0.22745701153E+03 0.21709598985E+03
 0.18882000078E+03 0.14972980072E+03 0.10825770179E+03 0.71503828114E+02 0.43897168494E+02
 0.26833034184E+02 0.18711854483E+02 0.15531073786E+02 0.13494541019E+02 0.12085374307E+02
 0.11187903400E+02 0.10631004592E+02 0.10277799090E+02 0.10063123317E+02 0.99875620121E+01
 0.10063123317E+02 0.10277799090E+02 0.10631004592E+02 0.11187903400E+02 0.12085374307E+02
 0.13494541019E+02 0.15531073786E+02 0.18711854483E+02 0.26833034184E+02 0.43897168494E+02
 0.71503828114E+02 0.10825770179E+03 0.14972980072E+03 0.18882000078E+03 0.21709598985E+03
 0.28576256033E+03 0.27283538113E+03 0.23757501125E+03 0.18882000078E+03 0.13691287162E+03
 0.90421856775E+02 0.54716560863E+02 0.31767689086E+02 0.20213018537E+02 0.15820177112E+02
 0.13527185443E+02 0.11919817138E+02 0.10899832629E+02 0.10277799090E+02 0.98910548920E+01
 0.96578924710E+01 0.95757416177E+01 0.96578924710E+01 0.98910548920E+01 0.10277799090E+02
 0.10899832629E+02 0.11919817138E+02 0.13527185443E+02 0.15820177112E+02 0.20213018537E+02
 0.31767689086E+02 0.54716560863E+02 0.90421856775E+02 0.13691287162E+03 0.18882000078E+03
 0.23757501125E+03 0.27283538113E+03 0.32799059904E+03 0.31318512028E+03 0.27283538113E+03
 0.21709598985E+03 0.15772261372E+03 0.10431480579E+03 0.62847832943E+02 0.35641903725E+02
 0.21490972498E+02 0.16038878088E+02 0.13556922059E+02 0.11822405381E+02 0.10724477749E+02
 0.10063123317E+02 0.96578924710E+01 0.94150888226E+01 0.93294858607E+01 0.94150888226E+01
 0.96578924710E+01 0.10063123317E+02 0.10724477749E+02 0.11822405381E+02 0.13556922059E+02
 0.16038878088E+02 0.21490972498E+02 0.35641903725E+02 0.62847832943E+02 0.10431480579E+03
 0.15772261372E+03 0.21709598985E+03 0.27283538113E+03 0.31318512028E+03 0.32799059904E+03
 0.31318512028E+03 0.27283538113E+03 0.21709598985E+03 0.15772261372E+03 0.10431480579E+03
 0.62847832943E+02 0.35641903725E+02 0.21490972498E+02 0.16038878088E+02 0.13556922059E+02
 0.11822405381E+02 0.10724477749E+02 0.10063123317E+02 0.96578924710E+01 0.94150888226E+01
 0.93294858607E+01 0.94150888226E+01 0.96578924710E+01 0.10063123317E+02 0.10724477749E+02
 0.11822405381E+02 0.13556922059E+02 0.16038878088E+02 0.21490972498E+02 0.35641903725E+02
 0.62847832943E+02 0.10431480579E+03 0.15772261372E+03 0.21709598985E+03 0.27283538113E+03
 0.31318512028E+03 0.31318512028E+03 0.29904113643E+03 0.26048151793E+03 0.20719286434E+03
 0.15043105866E+03 0.99435829942E+02 0.59976877666E+02 0.34258979098E+02 0.21024288182E+02
 0.15957540814E+02 0.13545278572E+02 0.11855009602E+02 0.10784493191E+02 0.10137161826E+02
 0.97386622168E+01 0.94994176182E+01 0.94150888226E+01 0.94994176182E+01 0.97386622168E+01
 0.10137161826E+02 0.10784493191E+02 0.11855009602E+02 0.13545278572E+02 0.15957540814E+02
 0.21024288182E+02 0.34258979098E+02 0.59976877666E+02 0.99435829942E+02 0.15043105866E+03
 0.20719286434E+03 0.26048151793E+03 0.29904113643E+03 0.27283538113E+03 0.26048151793E+03
 0.22677749637E+03 0.18016556818E+03 0.13055809482E+03 0.86202053980E+02 0.52271323976E+02
 0.30621764837E+02 0.19843132844E+02 0.15748060774E+02 0.13512552021E+02 0.11948525331E+02
 0.10955407761E+02 0.10347532983E+02 0.99679406177E+01 0.97386622168E+01 0.96578924710E+01
 0.97386622168E+01 0.99679406177E+01 0.10347532983E+02 0.10955407761E+02 0.11948525331E+02
 0.13512552021E+02 0.15748060774E+02 0.19843132844E+02 0.30621764837E+02 0.52271323976E+02
 0.86202053980E+02 0.13055809482E+03 0.18016556818E+03 0.22677749637E+03 0.26048151793E+03
 0.21709598985E+03 0.20719286434E+03 0.18016556818E+03 0.14280860974E+03 0.10321227613E+03
 0.68206359879E+02 0.42041426459E+02 0.26005097859E+02 0.18459911523E+02 0.15458170435E+02
 0.13475633677E+02 0.12107675159E+02 0.11235863496E+02 0.10693093580E+02 0.10347532983E+02
 0.10137161826E+02 0.10063123317E+02 0.10137161826E+02 0.10347532983E+02 0.10693093580E+02
 0.11235863496E+02 0.12107675159E+02 0.13475633677E+02 0.15458170435E+02 0.18459911523E+02
 0.26005097859E+02 0.42041426459E+02 0.68206359879E+02 0.10321227613E+03 0.14280860974E+03
 0.18016556818E+03 0.20719286434E+03 0.15772261372E+03 0.15043105866E+03 0.13055809482E+03
 0.10321227613E+03 0.74547286042E+02 0.49778346373E+02 0.32011613386E+02 0.21819087431E+02
 0.17335475697E+02 0.15124856054E+02 0.13482680274E+02 0.12374836028E+02 0.11673724109E+02
 0.11235863496E+02 0.10955407761E+02 0.10784493191E+02 0.10724477749E+02 0.10784493191E+02
 0.10955407761E+02 0.11235863496E+02 0.11673724109E+02 0.12374836028E+02 0.13482680274E+02
 0.15124856054E+02 0.17335475697E+02 0.21819087431E+02 0.32011613386E+02 0.49778346373E+02
 0.74547286042E+02 0.10321227613E+03 0.13055809482E+03 0.15043105866E+03 0.10431480579E+03
 0.99435829942E+02 0.86202053980E+02 0.68206359879E+02 0.49778346373E+02 0.34505479136E+02
 0.24278797580E+02 0.18948306245E+02 0.16535416806E+02 0.14835561379E+02 0.13616384646E+02
 0.12837413058E+02 0.12374836028E+02 0.12107675159E+02 0.11948525331E+02 0.11855009602E+02
 0.11822405381E+02 0.11855009602E+02 0.11948525331E+02 0.12107675159E+02 0.12374836028E+02
 0.12837413058E+02 0.13616384646E+02 0.14835561379E+02 0.16535416806E+02 0.18948306245E+02
 0.24278797580E+02 0.34505479136E+02 0.49778346373E+02 0.68206359879E+02 0.86202053980E+02
 0.99435829942E+02 0.62847832943E+02 0.59976877666E+02 0.52271323976E+02 0.42041426459E+02
 0.32011613386E+02 0.24278797580E+02 0.19628158658E+02 0.17350375008E+02 0.15843066444E+02
 0.14703357079E+02 0.13985042420E+02 0.13616384646E+02 0.13482680274E+02 0.13475633677E+02
 0.13512552021E+02 0.13545278572E+02 0.13556922059E+02 0.13545278572E+02 0.13512552021E+02
 0.13475633677E+02 0.13482680274E+02 0.13616384646E+02 0.13985042420E+02 0.14703357079E+02
 0.15843066444E+02 0.17350375008E+02 0.19628158658E+02 0.24278797580E+02 0.32011613386E+02
 0.42041426459E+02 0.52271323976E+02 0.59976877666E+02 0.35641903725E+02 0.34258979098E+02
 0.30621764837E+02 0.26005097859E+02 0.21819087431E+02 0.18948306245E+02 0.17350375008E+02
 0.16217879348E+02 0.15347588982E+02 0.14845241331E+02 0.14703357079E+02 0.14835561379E+02
 0.15124856054E+02 0.15458170435E+02 0.15748060774E+02 0.15957540814E+02 0.16038878088E+02
 0.15957540814E+02 0.15748060774E+02 0.15458170435E+02 0.15124856054E+02 0.14835561379E+02
 0.14703357079E+02 0.14845241331E+02 0.15347588982E+02 0.16217879348E+02 0.17350375008E+02
 0.18948306245E+02 0.21819087431E+02 0.26005097859E+02 0.30621764837E+02 0.34258979098E+02
 0.21490972498E+02 0.21024288182E+02 0.19843132844E+02 0.18459911523E+02 0.17335475697E+02
 0.16535416806E+02 0.15843066444E+02 0.15347588982E+02 0.15167431140E+02 0.15347588982E+02
 0.15843066444E+02 0.16535416806E+02 0.17335475697E+02 0.18459911523E+02 0.19843132844E+02
 0.21024288182E+02 0.21490972498E+02 0.21024288182E+02 0.19843132844E+02 0.18459911523E+02
 0.17335475697E+02 0.16535416806E+02 0.15843066444E+02 0.15347588982E+02 0.15167431140E+02
 0.15347588982E+02 0.15843066444E+02 0.16535416806E+02 0.17335475697E+02 0.18459911523E+02
 0.19843132844E+02 0.21024288182E+02 0.16038878088E+02 0.15957540814E+02 0.15748060774E+02
 0.15458170435E+02 0.15124856054E+02 0.14835561379E+02 0.14703357079E+02 0.14845241331E+02
 0.15347588982E+02 0.16217879348E+02 0.17350375008E+02 0.18948306245E+02 0.21819087431E+02
 0.26005097859E+02 0.30621764837E+02 0.34258979098E+02 0.35641903725E+02 0.34258979098E+02
 0.30621764837E+02 0.26005097859E+02 0.21819087431E+02 0.18948306245E+02 0.17350375008E+02
 0.16217879348E+02 0.15347588982E+02 0.14845241331E+02 0.14703357079E+02 0.14835561379E+02
 0.15124856054E+02 0.15458170435E+02 0.15748060774E+02 0.15957540814E+02 0.13556922059E+02
 0.13545278572E+02 0.13512552021E+02 0.13475633677E+02 0.13482680274E+02 0.13616384646E+02
 0.13985042420E+02 0.14703357079E+02 0.15843066444E+02 0.17350375008E+02 0.19628158658E+02
 0.24278797580E+02 0.32011613386E+02 0.42041426459E+02 0.52271323976E+02 0.59976877666E+02
 0.62847832943E+02 0.59976877666E+02 0.52271323976E+02 0.42041426459E+02 0.32011613386E+02
 0.24278797580E+02 0.19628158658E+02 0.17350375008E+02 0.15843066444E+02 0.14703357079E+02
 0.13985042420E+02 0.13616384646E+02 0.13482680274E+02 0.13475633677E+02 0.13512552021E+02
 0.13545278572E+02 0.11822405381E+02 0.11855009602E+02 0.11948525331E+02 0.12107675159E+02
 0.12374836028E+02 0.12837413058E+02 0.13616384646E+02 0.14835561379E+02 0.16535416806E+02
 0.18948306245E+02 0.24278797580E+02 0.34505479136E+02 0.49778346373E+02 0.68206359879E+02
 0.86202053980E+02 0.99435829942E+02 0.10431480579E+03 0.99435829942E+02 0.86202053980E+02
 0.68206359879E+02 0.49778346373E+02 0.34505479136E+02 0.24278797580E+02 0.18948306245E+02
 0.16535416806E+02 0.14835561379E+02 0.13616384646E+02 0.12837413058E+02 0.12374836028E+02
 0.12107675159E+02 0.11948525331E+02 0.11855009602E+02 0.10724477749E+02 0.10784493191E+02
 0.10955407761E+02 0.11235863496E+02 0.11673724109E+02 0.12374836028E+02 0.13482680274E+02
 0.15124856054E+02 0.17335475697E+02 0.21819087431E+02 0.32011613386E+02 0.49778346373E+02
 0.74547286042E+02 0.10321227613E+03 0.13055809482E+03 0.15043105866E+03 0.15772261372E+03
 0.15043105866E+03 0.13055809482E+03 0.10321227613E+03 0.74547286042E+02 0.49778346373E+02
 0.32011613386E+02 0.21819087431E+02 0.17335475697E+02 0.15124856054E+02 0.13482680274E+02
 0.12374836028E+02 0.11673724109E+02 0.11235863496E+02 0.10955407761E+02 0.10784493191E+02
 0.10063123317E+02 0.10137161826E+02 0.10347532983E+02 0.10693093580E+02 0.11235863496E+02
 0.12107675159E+02 0.13475633677E+02 0.15458170435E+02 0.18459911523E+02 0.26005097859E+02
 0.42041426459E+02 0.68206359879E+02 0.10321227613E+03 0.14280860974E+03 0.18016556818E+03
 0.20719286434E+03 0.21709598985E+03 0.20719286434E+03 0.18016556818E+03 0.14280860974E+03
 0.10321227613E+03 0.68206359879E+02 0.42041426459E+02 0.26005097859E+02 0.18459911523E+02
 0.15458170435E+02 0.13475633677E+02 0.12107675159E+02 0.11235863496E+02 0.10693093580E+02
 0.10347532983E+02 0.10137161826E+02 0.96578924710E+01 0.97386622168E+01 0.99679406177E+01
 0.10347532983E+02 0.10955407761E+02 0.11948525331E+02 0.13512552021E+02 0.15748060774E+02
 0.19843132844E+02 0.30621764837E+02 0.52271323976E+02 0.86202053980E+02 0.13055809482E+03
 0.18016556818E+03 0.22677749637E+03 0.26048151793E+03 0.27283538113E+03 0.26048151793E+03
 0.22677749637E+03 0.18016556818E+03 0.13055809482E+03 0.86202053980E+02 0.52271323976E+02
 0.30621764837E+02 0.19843132844E+02 0.15748060774E+02 0.13512552021E+02 0.11948525331E+02
 0.10955407761E+02 0.10347532983E+02 0.99679406177E+01 0.97386622168E+01 0.94150888226E+01
 0.94994176182E+01 0.97386622168E+01 0.10137161826E+02 0.10784493191E+02 0.11855009602E+02
 0.13545278572E+02 0.15957540814E+02 0.21024288182E+02 0.34258979098E+02 0.59976877666E+02
 0.99435829942E+02 0.15043105866E+03 0.20719286434E+03 0.26048151793E+03 0.29904113643E+03
 0.31318512028E+03 0.29904113643E+03 0.26048151793E+03 0.20719286434E+03 0.15043105866E+03
 0.99435829942E+02 0.59976877666E+02 0.34258979098E+02 0.21024288182E+02 0.15957540814E+02
 0.13545278572E+02 0.11855009602E+02 0.10784493191E+02 0.10137161826E+02 0.97386622168E+01
 0.94994176182E+01 0.93294858607E+01 0.94150888226E+01 0.96578924710E+01 0.10063123317E+02
 0.10724477749E+02 0.11822405381E+02 0.13556922059E+02 0.16038878088E+02 0.21490972498E+02
 0.35641903725E+02 0.62847832943E+02 0.10431480579E+03 0.15772261372E+03 0.21709598985E+03
 0.27283538113E+03 0.31318512028E+03 0.32799059904E+03 0.31318512028E+03 0.27283538113E+03
 0.21709598985E+03 0.15772261372E+03 0.10431480579E+03 0.62847832943E+02 0.35641903725E+02
 0.21490972498E+02 0.16038878088E+02 0.13556922059E+02 0.11822405381E+02 0.10724477749E+02
 0.10063123317E+02 0.96578924710E+01 0.94150888226E+01 0.94150888226E+01 0.94994176182E+01
 0.97386622168E+01 0.10137161826E+02 0.10784493191E+02 0.11855009602E+02 0.13545278572E+02
 0.15957540814E+02 0.21024288182E+02 0.34258979098E+02 0.59976877666E+02 0.99435829942E+02
 0.15043105866E+03 0.20719286434E+03 0.26048151793E+03 0.29904113643E+03 0.31318512028E+03
 0.29904113643E+03 0.26048151793E+03 0.20719286434E+03 0.15043105866E+03 0.99435829942E+02
 0.59976877666E+02 0.34258979098E+02 0.21024288182E+02 0.15957540814E+02 0.13545278572E+02
 0.11855009602E+02 0.10784493191E+02 0.10137161826E+02 0.97386622168E+01 0.94994176182E+01
 0.96578924710E+01 0.97386622168E+01 0.99679406177E+01 0.10347532983E+02 0.10955407761E+02
 0.11948525331E+02 0.13512552021E+02 0.15748060774E+02 0.19843132844E+02 0.30621764837E+02
 0.52271323976E+02 0.86202053980E+02 0.13055809482E+03 0.18016556818E+03 0.22677749637E+03
 0.26048151793E+03 0.27283538113E+03 0.26048151793E+03 0.22677749637E+03 0.18016556818E+03
 0.13055809482E+03 0.86202053980E+02 0.52271323976E+02 0.30621764837E+02 0.19843132844E+02