    4    4    1    1
  0.1022208E+02  0.3445083E-09  0.3445083E-09  0.3445083E-09  0.5000000E-15
  1.000000000000000E-004
  CAR 
 unknown system                          
     32     56     40
 
  0.0000000E+00  0.0000000E+00  0.0000000E+00  0.7513148E-03
    1       -2.027583   1.000000
    2        1.868300   1.000000
    3        1.868300   1.000000
    4        1.868300   1.000000
    5        2.612433   1.000000
    6        2.612433   1.000000
    7        2.612433   1.000000
    8        5.182983   1.000000
    9        5.182983   1.000000
   10        5.182983   1.000000
   11        6.743288   0.754290
   12        6.743288   0.754290
   13        7.781077  -0.000000
   14        7.781077  -0.000000
   15        7.781077  -0.000000
   16        8.082587  -0.000000
   17        8.082587  -0.000000
   18        8.082587  -0.000000
   19        8.082587  -0.000000
   20        8.082587  -0.000000
   21        8.082587  -0.000000
   22       10.079093  -0.000000
   23       10.079093  -0.000000
   24       10.079093  -0.000000
   25       18.578018   0.000000
   26       18.578018   0.000000
   27       18.578018   0.000000
   28       23.085600   0.000000
   29       23.085600   0.000000
   30       23.085600   0.000000
   31       23.085600   0.000000
   32       23.085600   0.000000
   33       23.085600   0.000000
   34       28.517059   0.000000
   35       28.517059   0.000000
   36       28.517059   0.000000
   37       30.152851   0.000000
   38       33.431510   0.000000
   39       33.431510   0.000000
   40       33.431510   0.000000
 
  0.9090909E-01  0.0000000E+00  0.0000000E+00  0.4507889E-02
    1       -1.909818   1.000000
    2        1.896242   1.000000
    3        1.941200   1.000000
    4        1.941200   1.000000
    5        2.658059   1.000000
    6        2.665695   1.000000
    7        2.665695   1.000000
    8        5.122674   1.000000
    9        5.225797   1.000000
   10        5.225797   1.000000
   11        6.687250   0.918991
   12        6.763077   0.680178
   13        7.620736  -0.000000
   14        7.620736  -0.000000
   15        7.708168  -0.000000
   16        7.708168  -0.000000
   17        7.759145  -0.000000
   18        7.998946  -0.000000
   19        7.998946  -0.000000
   20        8.082725  -0.000000
   21        8.082725  -0.000000
   22        9.598164  -0.000000
   23       10.622129  -0.000000
   24       10.622129  -0.000000
   25       18.576626   0.000000
   26       18.576626   0.000000
   27       19.206006   0.000000
   28       22.555832   0.000000
   29       22.555832   0.000000
   30       22.808563   0.000000
   31       22.808563   0.000000
   32       23.283305   0.000000
   33       23.283305   0.000000
   34       28.529890   0.000000
   35       29.146814   0.000000
   36       29.146814   0.000000
   37       30.069002   0.000000
   38       33.476298   0.000000
   39       33.990354   0.000000
   40       33.990354   0.000000
 
  0.1818182E+00  0.0000000E+00  0.0000000E+00  0.4507889E-02
    1       -1.562002   1.000000
    2        1.957552   1.000000
    3        2.148274   1.000000
    4        2.148274   1.000000
    5        2.792498   1.000000
    6        2.825476   1.000000
    7        2.825476   1.000000
    8        4.949868   1.000000
    9        5.354164   1.000000
   10        5.354164   1.000000
   11        6.528201   1.032026
   12        6.795622   0.547196
   13        6.795622   0.547196
   14        6.821896   0.436302
   15        7.499284  -0.000006
   16        7.499284  -0.000006
   17        7.695330  -0.000000
   18        7.764440  -0.000000
   19        7.764440  -0.000000
   20        8.083141  -0.000000
   21        8.083141  -0.000000
   22        8.494957  -0.000000
   23       11.689394  -0.000000
   24       11.689394  -0.000000
   25       18.574027   0.000000
   26       18.574027   0.000000
   27       20.754133   0.000000
   28       21.370444   0.000000
   29       21.370444   0.000000
   30       22.158589   0.000000
   31       22.158589   0.000000
   32       23.858022   0.000000
   33       23.858022   0.000000
   34       28.569490   0.000000
   35       29.852996   0.000000
   36       30.635112   0.000000
   37       30.635112   0.000000
   38       33.473806   0.000000
   39       33.632907   0.000000
   40       33.670373   0.000000
 
  0.2727273E+00  0.0000000E+00  0.0000000E+00  0.4507889E-02
    1       -1.004006   1.000000
    2        1.974647   1.000000
    3        2.451241   1.000000
    4        2.451241   1.000000
    5        3.008362   1.000000
    6        3.091698   1.000000
    7        3.091698   1.000000
    8        4.684168   1.000000
    9        5.564409   1.000000
   10        5.564409   1.000000
   11        5.963591   1.000000
   12        5.963591   1.000000
   13        6.292087   1.000828
   14        6.915303   0.107438
   15        7.190063  -0.010377
   16        7.190063  -0.010377
   17        7.286829  -0.001788
   18        7.420002  -0.000064
   19        7.420002  -0.000064
   20        7.594925  -0.000000
   21        8.083959  -0.000000
   22        8.083959  -0.000000
   23       12.923632   0.000000
   24       12.923632   0.000000
   25       18.573835   0.000000
   26       18.573835   0.000000
   27       19.971059   0.000000
   28       19.971059   0.000000
   29       21.446731   0.000000
   30       21.446731   0.000000
   31       22.739122   0.000000
   32       24.761468   0.000000
   33       24.761468   0.000000
   34       28.639034   0.000000
   35       29.579721   0.000000
   36       31.920287   0.000000
   37       32.085170   0.000000
   38       32.085170   0.000000
   39       32.559926   0.000000
   40       32.559926   0.000000
 
  0.3636364E+00  0.0000000E+00  0.0000000E+00  0.4507889E-02
    1       -0.276517   1.000000
    2        1.800708   1.000000
    3        2.774744   1.000000
    4        2.774744   1.000000
    5        3.293053   1.000000
    6        3.463842   1.000000
    7        3.463842   1.000000
    8        4.354057   1.000000
    9        5.197846   1.000000
   10        5.197846   1.000000
   11        5.849952   1.000000
   12        5.849952   1.000000
   13        6.029866   1.000000
   14        6.339683   1.002339
   15        6.857371   0.293396
   16        6.857371   0.293396
   17        7.015147  -0.028936
   18        7.015147  -0.028936
   19        7.036461  -0.034462
   20        7.467416  -0.000016
   21        8.084334  -0.000000
   22        8.084334  -0.000000
   23       14.246876   0.000000
   24       14.246876   0.000000
   25       18.515063   0.000000
   26       18.515063   0.000000
   27       18.579636   0.000000
   28       18.579636   0.000000
   29       20.884350   0.000000
   30       20.884350   0.000000
   31       24.846888   0.000000
   32       25.929907   0.000000
   33       25.929907   0.000000
   34       28.739047   0.000000
   35       29.310413   0.000000
   36       30.357904   0.000000
   37       30.442056   0.000000
   38       30.442056   0.000000
   39       34.600244   0.000000
   40       34.754635   0.000000
 
  0.4545455E+00  0.0000000E+00  0.0000000E+00  0.4507889E-02
    1        0.541289   1.000000
    2        1.300491   1.000000
    3        2.997536   1.000000
    4        2.997536   1.000000
    5        3.628636   1.000000
    6        3.940886   1.000000
    7        3.940886   1.000000
    8        3.991664   1.000000
    9        4.520423   1.000000
   10        4.520423   1.000000
   11        5.835782   1.000000
   12        5.871021   1.000000
   13        6.199954   1.000077
   14        6.199954   1.000077
   15        6.596910   1.029525
   16        6.596910   1.029525
   17        6.627064   1.011164
   18        6.627064   1.011164
   19        7.176294  -0.012674
   20        7.323917  -0.000783
   21        8.084444  -0.000000
   22        8.084444  -0.000000
   23       15.629318   0.000000
   24       15.629318   0.000000
   25       17.058046   0.000000
   26       17.058046   0.000000
   27       18.582761   0.000000
   28       18.582761   0.000000
   29       20.579112   0.000000
   30       20.579112   0.000000
   31       26.883084   0.000000
   32       27.306765   0.000000
   33       27.306765   0.000000
   34       28.721563   0.000000
   35       28.830928   0.000000
   36       28.830928   0.000000
   37       28.890403   0.000000
   38       29.077123   0.000000
   39       35.669649   0.000000
   40       37.175753   0.000000
 
  0.9090909E-01  0.9090909E-01  0.0000000E+00  0.9015778E-02
    1       -1.793010   1.000000
    2        1.970263   1.000000
    3        1.970263   1.000000
    4        2.012105   1.000000
    5        2.710237   1.000000
    6        2.710237   1.000000
    7        2.717255   1.000000
    8        5.087544   1.000000
    9        5.246088   1.000000
   10        5.263587   1.000000
   11        6.671221   0.951908
   12        6.749392   0.732156
   13        7.331525  -0.000655
   14        7.472675  -0.000013
   15        7.472675  -0.000013
   16        7.639526  -0.000000
   17        7.720212  -0.000000
   18        7.720212  -0.000000
   19        7.998871  -0.000000
   20        7.998871  -0.000000
   21        8.030798  -0.000000
   22       10.160416  -0.000000
   23       10.160416  -0.000000
   24       11.045029  -0.000000
   25       18.562083   0.000000
   26       19.216300   0.000000
   27       19.216300   0.000000
   28       21.435765   0.000000
   29       22.739307   0.000000
   30       22.739307   0.000000
   31       22.999803   0.000000
   32       22.999803   0.000000
   33       23.473388   0.000000
   34       29.175116   0.000000
   35       29.175116   0.000000
   36       29.350221   0.000000
   37       29.914722   0.000000
   38       33.445973   0.000000
   39       34.037947   0.000000
   40       34.037947   0.000000
 
  0.1818182E+00  0.9090909E-01  0.0000000E+00  0.1803156E-01
    1       -1.448480   1.000000
    2        2.034875   1.000000
    3        2.180844   1.000000
    4        2.213896   1.000000
    5        2.841430   1.000000
    6        2.866684   1.000000
    7        2.871243   1.000000
    8        4.932696   1.000000
    9        5.361906   1.000000
   10        5.374230   1.000000
   11        6.534941   1.033151
   12        6.653820   0.980507
   13        6.655215   0.978480
   14        6.804383   0.510207
   15        7.116742  -0.025391
   16        7.442082  -0.000034
   17        7.505517  -0.000005
   18        7.662247  -0.000000
   19        7.763892  -0.000000
   20        7.998626  -0.000000
   21        8.002029  -0.000000
   22        9.159485  -0.000000
   23       11.189811  -0.000000
   24       11.995645  -0.000000
   25       18.479325   0.000000
   26       19.247751   0.000000
   27       20.168764   0.000000
   28       20.771438   0.000000
   29       21.537308   0.000000
   30       22.340041   0.000000
   31       23.268020   0.000000
   32       23.421923   0.000000
   33       23.563521   0.000000
   34       29.264222   0.000000
   35       29.509273   0.000000
   36       30.279538   0.000000
   37       30.683820   0.000000
   38       31.860342   0.000000
   39       33.928009   0.000000
   40       34.199949   0.000000
 
  0.2727273E+00  0.9090909E-01  0.0000000E+00  0.1803156E-01
    1       -0.895923   1.000000
    2        2.056790   1.000000
    3        2.490199   1.000000
    4        2.511559   1.000000
    5        3.051951   1.000000
    6        3.124202   1.000000
    7        3.127107   1.000000
    8        4.678685   1.000000
    9        5.543162   1.000000
   10        5.568218   1.000000
   11        5.840365   1.000000
   12        5.894135   1.000000
   13        6.326671   1.001784
   14        6.564876   1.035422
   15        6.912126   0.115617
   16        7.148157  -0.018252
   17        7.200363  -0.008858
   18        7.419211  -0.000066
   19        7.507587  -0.000004
   20        7.995083  -0.000000
   21        7.998240  -0.000000
   22        8.211639  -0.000000
   23       12.333218   0.000000
   24       13.166325   0.000000
   25       18.054339   0.000000
   26       19.295464   0.000000
   27       19.301262   0.000000
   28       20.129207   0.000000
   29       21.637632   0.000000
   30       22.704902   0.000000
   31       22.782155   0.000000
   32       24.082802   0.000000
   33       24.497721   0.000000
   34       28.932443   0.000000
   35       29.432535   0.000000
   36       30.330263   0.000000
   37       31.940351   0.000000
   38       32.615597   0.000000
   39       32.796366   0.000000
   40       33.680100   0.000000
 
  0.3636364E+00  0.9090909E-01  0.0000000E+00  0.1803156E-01
    1       -0.175500   1.000000
    2        1.886798   1.000000
    3        2.823591   1.000000
    4        2.835984   1.000000
    5        3.329296   1.000000
    6        3.468972   1.000000
    7        3.490678   1.000000
    8        4.359828   1.000000
    9        5.097327   1.000000
   10        5.169220   1.000000
   11        5.689532   1.000000
   12        5.851776   1.000000
   13        5.971097   1.000000
   14        6.182100   1.000046
   15        6.831708   0.395487
   16        6.869095   0.250031
   17        7.014321  -0.028605
   18        7.054885  -0.035421
   19        7.172922  -0.013282
   20        7.668460  -0.000000
   21        7.994241  -0.000000
   22        7.997309  -0.000000
   23       13.518630   0.000000
   24       14.453232   0.000000
   25       17.059480   0.000000
   26       18.676838   0.000000
   27       19.114740   0.000000
   28       19.327547   0.000000
   29       21.150363   0.000000
   30       22.012980   0.000000
   31       24.561169   0.000000
   32       25.096436   0.000000
   33       25.908524   0.000000
   34       28.198401   0.000000
   35       28.874416   0.000000
   36       29.694323   0.000000
   37       31.667201   0.000000
   38       31.821350   0.000000
   39       34.057288   0.000000
   40       34.823765   0.000000
 
  0.4545455E+00  0.9090909E-01  0.0000000E+00  0.1803156E-01
    1        0.634890   1.000000
    2        1.389015   1.000000
    3        3.058208   1.000000
    4        3.063509   1.000000
    5        3.655801   1.000000
    6        3.905565   1.000000
    7        3.955442   1.000000
    8        4.008574   1.000000
    9        4.448147   1.000000
   10        4.517530   1.000000
   11        5.642267   1.000000
   12        5.648045   1.000000
   13        6.200417   1.000078
   14        6.353534   1.003084
   15        6.596309   1.029747
   16        6.617655   1.018536
   17        6.632056   1.006573
   18        6.728927   0.803433
   19        7.223487  -0.006049
   20        7.414819  -0.000074
   21        7.994851  -0.000000
   22        7.996069  -0.000000
   23       14.714333   0.000000
   24       15.813060   0.000000
   25       15.901938   0.000000
   26       17.227631   0.000000
   27       19.173083   0.000000
   28       19.282261   0.000000
   29       21.055540   0.000000
   30       21.382190   0.000000
   31       26.080167   0.000000
   32       26.204996   0.000000
   33       27.281229   0.000000
   34       27.470756   0.000000
   35       27.820113   0.000000
   36       29.861675   0.000000
   37       30.109202   0.000000
   38       30.750610   0.000000
   39       36.195770   0.000000
   40       36.431146   0.000000
 
  0.1818182E+00  0.1818182E+00  0.0000000E+00  0.9015778E-02
    1       -1.113954   1.000000
    2        2.255834   1.000000
    3        2.255834   1.000000
    4        2.401270   1.000000
    5        2.987937   1.000000
    6        2.987937   1.000000
    7        3.006695   1.000000
    8        4.840276   1.000000
    9        5.430167   1.000000
   10        5.431308   1.000000
   11        6.247998   1.000282
   12        6.296830   1.000924
   13        6.296830   1.000924
   14        6.485676   1.022807
   15        6.828094   0.410440
   16        7.275396  -0.002269
   17        7.471084  -0.000014
   18        7.471084  -0.000014
   19        7.762398  -0.000000
   20        7.762398  -0.000000
   21        7.876876  -0.000000
   22       10.128412  -0.000000
   23       10.128412  -0.000000
   24       12.773776   0.000000
   25       17.842158   0.000000
   26       19.295118   0.000000
   27       20.800056   0.000000
   28       20.800056   0.000000
   29       22.016582   0.000000
   30       22.016582   0.000000
   31       22.911460   0.000000
   32       22.911460   0.000000
   33       24.573203   0.000000
   34       28.723984   0.000000
   35       29.992325   0.000000
   36       30.241307   0.000000
   37       30.838040   0.000000
   38       30.838040   0.000000
   39       34.251245   0.000000
   40       35.676953   0.000000
 
  0.2727273E+00  0.1818182E+00  0.0000000E+00  0.1803156E-01
    1       -0.577835   1.000000
    2        2.292729   1.000000
    3        2.584262   1.000000
    4        2.682667   1.000000
    5        3.181993   1.000000
    6        3.221709   1.000000
    7        3.231064   1.000000
    8        4.641940   1.000000
    9        5.503939   1.000000
   10        5.530850   1.000000
   11        5.603483   1.000000
   12        5.682962   1.000000
   13        5.829800   1.000000
   14        6.345485   1.002630
   15        6.966757   0.010001
   16        7.022731  -0.031542
   17        7.184122  -0.011331
   18        7.335520  -0.000595
   19        7.416290  -0.000071
   20        7.759956  -0.000000
   21        7.803914  -0.000000
   22        9.071602  -0.000000
   23       11.136873  -0.000000
   24       13.821799   0.000000
   25       16.622199   0.000000
   26       19.188713   0.000000
   27       20.588445   0.000000
   28       20.733096   0.000000
   29       22.360227   0.000000
   30       22.477818   0.000000
   31       22.748354   0.000000
   32       24.066928   0.000000
   33       24.709948   0.000000
   34       27.779377   0.000000
   35       28.745587   0.000000
   36       30.835927   0.000000
   37       31.096828   0.000000
   38       32.800824   0.000000
   39       34.051649   0.000000
   40       35.223967   0.000000
 
  0.3636364E+00  0.1818182E+00  0.0000000E+00  0.1803156E-01
    1        0.120604   1.000000
    2        2.134443   1.000000
    3        2.948302   1.000000
    4        3.008008   1.000000
    5        3.436726   1.000000
    6        3.489472   1.000000
    7        3.568701   1.000000
    8        4.367351   1.000000
    9        4.847041   1.000000
   10        5.078888   1.000000
   11        5.426242   1.000000
   12        5.506710   1.000000
   13        5.869476   1.000000
   14        6.275384   1.000558
   15        6.748094   0.736923
   16        6.863525   0.270328
   17        7.012831  -0.027982
   18        7.075497  -0.033618
   19        7.178585  -0.012270
   20        7.757521  -0.000000
   21        7.771880  -0.000000
   22        8.284934  -0.000000
   23       12.156708  -0.000000
   24       15.025828   0.000000
   25       15.391510   0.000000
   26       19.137948   0.000000
   27       19.317517   0.000000
   28       20.405749   0.000000
   29       22.301878   0.000000
   30       23.657887   0.000000
   31       23.770797   0.000000
   32       24.098264   0.000000
   33       26.008034   0.000000
   34       26.770238   0.000000
   35       27.372533   0.000000
   36       31.483190   0.000000
   37       32.684264   0.000000
   38       32.999007   0.000000
   39       33.411524   0.000000
   40       35.028218   0.000000
 
  0.4545455E+00  0.1818182E+00  0.0000000E+00  0.1803156E-01
    1        0.907195   1.000000
    2        1.644293   1.000000
    3        3.224255   1.000000
    4        3.253248   1.000000
    5        3.734911   1.000000
    6        3.809568   1.000000
    7        3.996351   1.000000
    8        4.054206   1.000000
    9        4.262876   1.000000
   10        4.505394   1.000000
   11        5.282001   1.000000
   12        5.376722   1.000000
   13        6.208122   1.000097
   14        6.425569   1.010698
   15        6.573675   1.034874
   16        6.598078   1.029079
   17        6.618050   1.018258
   18        6.732830   0.790507
   19        7.444229  -0.000032
   20        7.756461  -0.000000
   21        7.759727  -0.000000
   22        7.784521  -0.000000
   23       13.188517   0.000000
   24       14.254684   0.000000
   25       16.332804   0.000000
   26       17.711052   0.000000
   27       19.580031   0.000000
   28       19.958171   0.000000
   29       22.689157   0.000000
   30       23.335286   0.000000
   31       24.672059   0.000000
   32       24.920773   0.000000
   33       25.724271   0.000000
   34       26.103905   0.000000
   35       28.313334   0.000000
   36       30.680538   0.000000
   37       32.009944   0.000000
   38       32.673147   0.000000
   39       34.991204   0.000000
   40       37.406420   0.000000
 
  0.2727273E+00  0.2727273E+00  0.0000000E+00  0.9015778E-02
    1       -0.069688   1.000000
    2        2.648489   1.000000
    3        2.648489   1.000000
    4        2.938425   1.000000
    5        3.375592   1.000000
    6        3.396406   1.000000
    7        3.396406   1.000000
    8        4.535569   1.000000
    9        5.163972   1.000000
   10        5.163972   1.000000
   11        5.341938   1.000000
   12        5.463726   1.000000
   13        5.718311   1.000000
   14        6.260760   1.000390
   15        6.823533   0.429451
   16        7.072431  -0.034031
   17        7.072431  -0.034031
   18        7.164756  -0.014827
   19        7.414048  -0.000076
   20        7.414048  -0.000076
   21        7.628499  -0.000000
   22        9.947968  -0.000000
   23        9.947968  -0.000000
   24       14.757531   0.000000
   25       15.164162   0.000000
   26       19.316482   0.000000
   27       21.293648   0.000000
   28       21.293648   0.000000
   29       21.873101   0.000000
   30       21.873101   0.000000
   31       24.025347   0.000000
   32       24.025347   0.000000
   33       26.241438   0.000000
   34       26.580320   0.000000
   35       27.288410   0.000000
   36       30.258906   0.000000
   37       33.116306   0.000000
   38       33.116306   0.000000
   39       35.034975   0.000000
   40       35.959875   0.000000
 
  0.3636364E+00  0.2727273E+00  0.0000000E+00  0.1803156E-01
    1        0.589771   1.000000
    2        2.508850   1.000000
    3        3.057495   1.000000
    4        3.249927   1.000000
    5        3.541175   1.000000
    6        3.611039   1.000000
    7        3.690466   1.000000
    8        4.350830   1.000000
    9        4.576698   1.000000
   10        4.918774   1.000000
   11        4.924040   1.000000
   12        5.367917   1.000000
   13        5.935413   1.000000
   14        6.196257   1.000069
   15        6.599949   1.028324
   16        6.771910   0.645149
   17        6.844132   0.345027
   18        7.015560  -0.029098
   19        7.415093  -0.000074
   20        7.469783  -0.000014
   21        7.514564  -0.000003
   22        9.003214  -0.000000
   23       10.837525  -0.000000
   24       13.871865   0.000000
   25       15.874022   0.000000
   26       19.563675   0.000000
   27       19.846019   0.000000
   28       21.125394   0.000000
   29       22.179323   0.000000
   30       22.784801   0.000000
   31       24.364835   0.000000
   32       25.402663   0.000000
   33       25.976258   0.000000
   34       26.303041   0.000000
   35       26.383613   0.000000
   36       31.322169   0.000000
   37       33.558089   0.000000
   38       33.841441   0.000000
   39       35.185578   0.000000
   40       35.370644   0.000000
 
  0.4545455E+00  0.2727273E+00  0.0000000E+00  0.1803156E-01
    1        1.331196   1.000000
    2        2.032606   1.000000
    3        3.407856   1.000000
    4        3.538331   1.000000
    5        3.675452   1.000000
    6        3.857750   1.000000
    7        4.055266   1.000000
    8        4.072104   1.000000
    9        4.113869   1.000000
   10        4.474318   1.000000
   11        4.953649   1.000000
   12        5.162689   1.000000
   13        6.241687   1.000240
   14        6.299828   1.000990
   15        6.464886   1.018133
   16        6.530200   1.032376
   17        6.550360   1.034988
   18        6.611801   1.022331
   19        7.425094  -0.000055
   20        7.453491  -0.000024
   21        7.849648  -0.000000
   22        8.332837  -0.000000
   23       11.757801  -0.000000
   24       12.751130   0.000000
   25       17.116307   0.000000
   26       18.448580   0.000000
   27       19.940974   0.000000
   28       20.460544   0.000000
   29       23.184027   0.000000
   30       23.740817   0.000000
   31       24.268107   0.000000
   32       24.798764   0.000000
   33       24.949346   0.000000
   34       25.690742   0.000000
   35       28.782923   0.000000
   36       31.328163   0.000000
   37       33.512099   0.000000
   38       34.113686   0.000000
   39       34.722416   0.000000
   40       35.970981   0.000000
 
  0.3636364E+00  0.3636364E+00  0.0000000E+00  0.9015778E-02
    1        1.190919   1.000000
    2        2.940838   1.000000
    3        2.940838   1.000000
    4        3.457193   1.000000
    5        3.666668   1.000000
    6        3.843394   1.000000
    7        3.843394   1.000000
    8        4.284901   1.000000
    9        4.497944   1.000000
   10        4.497944   1.000000
   11        4.689564   1.000000
   12        5.225081   1.000000
   13        6.083273   1.000002
   14        6.084088   1.000002
   15        6.414570   1.009046
   16        6.569762   1.035203
   17        6.569762   1.035203
   18        7.030192  -0.033395
   19        7.030192  -0.033395
   20        7.298932  -0.001378
   21        7.870578  -0.000000
   22        9.760648  -0.000000
   23        9.760648  -0.000000
   24       12.571440   0.000000
   25       16.914178   0.000000
   26       19.912555   0.000000
   27       20.742919   0.000000
   28       20.742919   0.000000
   29       21.842097   0.000000
   30       21.842097   0.000000
   31       24.114846   0.000000
   32       24.725038   0.000000
   33       26.784821   0.000000
   34       26.784821   0.000000
   35       28.325721   0.000000
   36       30.578631   0.000000
   37       33.976624   0.000000
   38       35.710195   0.000000
   39       35.841298   0.000000
   40       35.841298   0.000000
 
  0.4545455E+00  0.3636364E+00  0.0000000E+00  0.1803156E-01
    1        1.857759   1.000000
    2        2.490566   1.000000
    3        3.314004   1.000000
    4        3.494923   1.000000
    5        3.887965   1.000000
    6        4.009398   1.000000
    7        4.118377   1.000000
    8        4.156483   1.000000
    9        4.165108   1.000000
   10        4.411494   1.000000
   11        4.694228   1.000000
   12        4.990096   1.000000
   13        6.112960   1.000005
   14        6.291614   1.000819
   15        6.310701   1.001263
   16        6.328438   1.001852
   17        6.348284   1.002781
   18        6.654221   0.979930
   19        7.070127  -0.034312
   20        7.153162  -0.017182
   21        8.354156  -0.000000
   22        8.956208  -0.000000
   23       10.572746  -0.000000
   24       11.487582  -0.000000
   25       18.093951   0.000000
   26       19.376488   0.000000
   27       20.397272   0.000000
   28       21.038516   0.000000
   29       21.773011   0.000000
   30       22.667340   0.000000
   31       22.904532   0.000000
   32       23.623935   0.000000
   33       27.450840   0.000000
   34       28.225649   0.000000
   35       29.348190   0.000000
   36       31.941365   0.000000
   37       32.178252   0.000000
   38       34.712952   0.000000
   39       35.712000   0.000000
   40       36.355021   0.000000
 
  0.4545455E+00  0.4545455E+00  0.0000000E+00  0.9015778E-02
    1        2.415940   1.000000
    2        2.926756   1.000000
    3        2.926756   1.000000
    4        3.262894   1.000000
    5        4.167842   1.000000
    6        4.167842   1.000000
    7        4.186079   1.000000
    8        4.215639   1.000000
    9        4.308057   1.000000
   10        4.474292   1.000000
   11        4.474292   1.000000
   12        4.780260   1.000000
   13        6.027813   1.000000
   14        6.134886   1.000011
   15        6.134886   1.000011
   16        6.136329   1.000011
   17        6.493988   1.024730
   18        6.746774   0.741733
   19        6.746774   0.741733
   20        6.910788   0.119134
   21        8.939555  -0.000000
   22        9.652422  -0.000000
   23        9.652422  -0.000000
   24       10.472292  -0.000000
   25       19.217185   0.000000
   26       20.449569   0.000000
   27       20.449569   0.000000
   28       20.993764   0.000000
   29       21.629874   0.000000
   30       21.747730   0.000000
   31       21.747730   0.000000
   32       22.607896   0.000000
   33       30.071766   0.000000
   34       30.071766   0.000000
   35       30.706721   0.000000
   36       31.222161   0.000000
   37       32.343991   0.000000
   38       33.260372   0.000000
   39       33.668179   0.000000
   40       33.668179   0.000000
 
  0.9090909E-01  0.9090909E-01  0.9090909E-01  0.6010518E-02
    1       -1.677416   1.000000
    2        2.041957   1.000000
    3        2.041957   1.000000
    4        2.041957   1.000000
    5        2.760782   1.000000
    6        2.760782   1.000000
    7        2.760782   1.000000
    8        5.055177   1.000000
    9        5.280658   1.000000
   10        5.280658   1.000000
   11        6.698332   0.892448
   12        6.698332   0.892448
   13        7.208092  -0.007828
   14        7.208092  -0.007828
   15        7.208092  -0.007828
   16        7.574154  -0.000000
   17        7.574154  -0.000000
   18        7.574154  -0.000000
   19        7.998791  -0.000000
   20        7.998791  -0.000000
   21        7.998791  -0.000000