       N       E                     dE             d eps       ncg     rms          rms(c)
DAV:   1     0.160867756172E+03    0.16087E+03   -0.83583E+03  4920   0.687E+02
DAV:   2    -0.258605287546E+02   -0.18673E+03   -0.16461E+03  4576   0.186E+02
DAV:   3    -0.383973064332E+02   -0.12537E+02   -0.11335E+02  5176   0.576E+01
DAV:   4    -0.385620741793E+02   -0.16477E+00   -0.16443E+00  4816   0.800E+00
DAV:   5    -0.385634783231E+02   -0.14041E-02   -0.14041E-02  5120   0.562E-01    0.239E+01
DAV:   6    -0.327590830320E+02    0.58044E+01   -0.12460E+01  5112   0.523E+01    0.374E+00
DAV:   7    -0.324141350830E+02    0.34495E+00   -0.11546E+00  5400   0.133E+01    0.147E+00
DAV:   8    -0.323587957710E+02    0.55339E-01   -0.12402E-02  6136   0.998E-01    0.631E-01
DAV:   9    -0.323376903059E+02    0.21105E-01   -0.44996E-03  5608   0.404E-01    0.924E-02
DAV:  10    -0.323376942035E+02   -0.38976E-05   -0.58249E-04  5056   0.139E-01    0.322E-02
DAV:  11    -0.323377011954E+02   -0.69919E-05   -0.50633E-06  5864   0.225E-02    0.196E-02
DAV:  12    -0.323377020691E+02   -0.87373E-06   -0.58404E-06  5224   0.223E-02
   1 F= -.32337702E+02 E0= -.32340256E+02  d E =0.766180E-02
