unknown system                          
   1.00000000000000     
     3.509554    0.000000    0.000000
     0.000000    3.509554    0.000000
     0.000000    0.000000    3.509554
   Cu
     4
Direct
  0.000000  0.000000  0.000000
  0.500000  0.500000  0.000000
  0.500000  0.000000  0.500000
  0.000000  0.500000  0.500000
 
   32   32   32
  758.40      717.65      607.55      458.54      305.85      177.48      88.457      40.036      21.639      15.897    
  12.280      10.015      8.7126      8.0184      7.5984      7.2812      7.1454      7.2812      7.5984      8.0184    
  8.7126      10.015      12.280      15.897      21.639      40.036      88.457      177.48      305.85      458.54    
  607.55      717.65      717.65      678.93      574.34      432.81      287.96      166.56      82.902      37.939    
  21.152      15.715      12.211      10.029      8.7779      8.1121      7.7109      7.4097      7.2812      7.4097    
  7.7109      8.1121      8.7779      10.029      12.211      15.715      21.152      37.939      82.902      166.56    
  287.96      432.81      574.34      678.93      607.55      574.34      484.63      363.42      239.91      137.50    
  68.401      32.655      19.956      15.207      12.023      10.065      8.9440      8.3423      7.9784      7.7109    
  7.5984      7.7109      7.9784      8.3423      8.9440      10.065      12.023      15.207      19.956      32.655    
  68.401      137.50      239.91      363.42      484.63      574.34      458.54      432.81      363.42      270.08    
  175.99      99.689      50.319      26.555      18.532      14.482      11.777      10.135      9.1895      8.6657    
  8.3423      8.1121      8.0184      8.1121      8.3423      8.6657      9.1895      10.135      11.777      14.482    
  18.532      26.555      50.319      99.689      175.99      270.08      363.42      432.81      305.85      287.96    
  239.91      175.99      112.97      63.957      34.495      21.811      16.987      13.696      11.577      10.315    
  9.5924      9.1895      8.9440      8.7779      8.7126      8.7779      8.9440      9.1895      9.5924      10.315    
  11.577      13.696      16.987      21.811      34.495      63.957      112.97      175.99      239.91      287.96    
  177.48      166.56      137.50      99.689      63.957      38.151      24.403      18.867      15.437      13.023    
  11.549      10.730      10.315      10.135      10.065      10.029      10.015      10.029      10.065      10.135    
  10.315      10.730      11.549      13.023      15.437      18.867      24.403      38.151      63.957      99.689    
  137.50      166.56      88.457      82.902      68.401      50.319      34.495      24.403      19.561      16.489    
  14.135      12.629      11.839      11.549      11.577      11.777      12.023      12.211      12.280      12.211    
  12.023      11.777      11.577      11.549      11.839      12.629      14.135      16.489      19.561      24.403    
  34.495      50.319      68.401      82.902      40.036      37.939      32.655      26.555      21.811      18.867    
  16.489      14.559      13.278      12.667      12.629      13.023      13.696      14.482      15.207      15.715    
  15.897      15.715      15.207      14.482      13.696      13.023      12.629      12.667      13.278      14.559    
  16.489      18.867      21.811      26.555      32.655      37.939      21.639      21.152      19.956      18.532    
  16.987      15.437      14.135      13.278      12.980      13.278      14.135      15.437      16.987      18.532    
  19.956      21.152      21.639      21.152      19.956      18.532      16.987      15.437      14.135      13.278    
  12.980      13.278      14.135      15.437      16.987      18.532      19.956      21.152      15.897      15.715    
  15.207      14.482      13.696      13.023      12.629      12.667      13.278      14.559      16.489      18.867    
  21.811      26.555      32.655      37.939      40.036      37.939      32.655      26.555      21.811      18.867    
  16.489      14.559      13.278      12.667      12.629      13.023      13.696      14.482      15.207      15.715    
  12.280      12.211      12.023      11.777      11.577      11.549      11.839      12.629      14.135      16.489    
  19.561      24.403      34.495      50.319      68.401      82.902      88.457      82.902      68.401      50.319    
  34.495      24.403      19.561      16.489      14.135      12.629      11.839      11.549      11.577      11.777    
  12.023      12.211      10.015      10.029      10.065      10.135      10.315      10.730      11.549      13.023    
  15.437      18.867      24.403      38.151      63.957      99.689      137.50      166.56      177.48      166.56    
  137.50      99.689      63.957      38.151      24.403      18.867      15.437      13.023      11.549      10.730    
  10.315      10.135      10.065      10.029      8.7126      8.7779      8.9440      9.1895      9.5924      10.315    
  11.577      13.696      16.987      21.811      34.495      63.957      112.97      175.99      239.91      287.96    
  305.85      287.96      239.91      175.99      112.97      63.957      34.495      21.811      16.987      13.696    
  11.577      10.315      9.5924      9.1895      8.9440      8.7779      8.0184      8.1121      8.3423      8.6657    
  9.1895      10.135      11.777      14.482      18.532      26.555      50.319      99.689      175.99      270.08    
  363.42      432.81      458.54      432.81      363.42      270.08      175.99      99.689      50.319      26.555    
  18.532      14.482      11.777      10.135      9.1895      8.6657      8.3423      8.1121      7.5984      7.7109    
  7.9784      8.3423      8.9440      10.065      12.023      15.207      19.956      32.655      68.401      137.50    
  239.91      363.42      484.63      574.34      607.55      574.34      484.63      363.42      239.91      137.50    
  68.401      32.655      19.956      15.207      12.023      10.065      8.9440      8.3423      7.9784      7.7109    
  7.2812      7.4097      7.7109      8.1121      8.7779      10.029      12.211      15.715      21.152      37.939    
  82.902      166.56      287.96      432.81      574.34      678.93      717.65      678.93      574.34      432.81    
  287.96      166.56      82.902      37.939      21.152      15.715      12.211      10.029      8.7779      8.1121    
  7.7109      7.4097      7.1454      7.2812      7.5984      8.0184      8.7126      10.015      12.280      15.897    
  21.639      40.036      88.457      177.48      305.85      458.54      607.55      717.65      758.40      717.65    
  607.55      458.54      305.85      177.48      88.457      40.036      21.639      15.897      12.280      10.015    
  8.7126      8.0184      7.5984      7.2812      7.2812      7.4097      7.7109      8.1121      8.7779      10.029    
  12.211      15.715      21.152      37.939      82.902      166.56      287.96      432.81      574.34      678.93    
  717.65      678.93      574.34      432.81      287.96      166.56      82.902      37.939      21.152      15.715    
  12.211      10.029      8.7779      8.1121      7.7109      7.4097      7.5984      7.7109      7.9784      8.3423    
  8.9440      10.065      12.023      15.207      19.956      32.655      68.401      137.50      239.91      363.42    
  484.63      574.34      607.55      574.34      484.63      363.42      239.91      137.50      68.401      32.655    
  19.956      15.207      12.023      10.065      8.9440      8.3423      7.9784      7.7109      8.0184      8.1121    
  8.3423      8.6657      9.1895      10.135      11.777      14.482      18.532      26.555      50.319      99.689    
  175.99      270.08      363.42      432.81      458.54      432.81      363.42      270.08      175.99      99.689    
  50.319      26.555      18.532      14.482      11.777      10.135      9.1895      8.6657      8.3423      8.1121    
  8.7126      8.7779      8.9440      9.1895      9.5924      10.315      11.577      13.696      16.987      21.811    
  34.495      63.957      112.97      175.99      239.91      287.96      305.85      287.96      239.91      175.99    
  112.97      63.957      34.495      21.811      16.987      13.696      11.577      10.315      9.5924      9.1895    
  8.9440      8.7779      10.015      10.029      10.065      10.135      10.315      10.730      11.549      13.023    
  15.437      18.867      24.403      38.151      63.957      99.689      137.50      166.56      177.48      166.56    
  137.50      99.689      63.957      38.151      24.403      18.867      15.437      13.023      11.549      10.730    
  10.315      10.135      10.065      10.029      12.280      12.211      12.023      11.777      11.577      11.549    
  11.839      12.629      14.135      16.489      19.561      24.403      34.495      50.319      68.401      82.902    
  88.457      82.902      68.401      50.319      34.495      24.403      19.561      16.489      14.135      12.629    
  11.839      11.549      11.577      11.777      12.023      12.211      15.897      15.715      15.207      14.482    
  13.696      13.023      12.629      12.667      13.278      14.559      16.489      18.867      21.811      26.555    
  32.655      37.939      40.036      37.939      32.655      26.555      21.811      18.867      16.489      14.559    
  13.278      12.667      12.629      13.023      13.696      14.482      15.207      15.715      21.639      21.152    
  19.956      18.532      16.987      15.437      14.135      13.278      12.980      13.278      14.135      15.437    
  16.987      18.532      19.956      21.152      21.639      21.152      19.956      18.532      16.987      15.437    
  14.135      13.278      12.980      13.278      14.135      15.437      16.987      18.532      19.956      21.152    
  40.036      37.939      32.655      26.555      21.811      18.867      16.489      14.559      13.278      12.667    
  12.629      13.023      13.696      14.482      15.207      15.715      15.897      15.715      15.207      14.482    
  13.696      13.023      12.629      12.667      13.278      14.559      16.489      18.867      21.811      26.555    
  32.655      37.939      88.457      82.902      68.401      50.319      34.495      24.403      19.561      16.489    
  14.135      12.629      11.839      11.549      11.577      11.777      12.023      12.211      12.280      12.211    
  12.023      11.777      11.577      11.549      11.839      12.629      14.135      16.489      19.561      24.403    
  34.495      50.319      68.401      82.902      177.48      166.56      137.50      99.689      63.957      38.151    
  24.403      18.867      15.437      13.023      11.549      10.730      10.315      10.135      10.065      10.029    
  10.015      10.029      10.065      10.135      10.315      10.730      11.549      13.023      15.437      18.867    
  24.403      38.151      63.957      99.689      137.50      166.56      305.85      287.96      239.91      175.99    
  112.97      63.957      34.495      21.811      16.987      13.696      11.577      10.315      9.5924      9.1895    
  8.9440      8.7779      8.7126      8.7779      8.9440      9.1895      9.5924      10.315      11.577      13.696    
  16.987      21.811      34.495      63.957      112.97      175.99      239.91      287.96      458.54      432.81    
  363.42      270.08      175.99      99.689      50.319      26.555      18.532      14.482      11.777      10.135    
  9.1895      8.6657      8.3423      8.1121      8.0184      8.1121      8.3423      8.6657      9.1895      10.135    
  11.777      14.482      18.532      26.555      50.319      99.689      175.99      270.08      363.42      432.81    
  607.55      574.34      484.63      363.42      239.91      137.50      68.401      32.655      19.956      15.207    
  12.023      10.065      8.9440      8.3423      7.9784      7.7109      7.5984      7.7109      7.9784      8.3423    
  8.9440      10.065      12.023      15.207      19.956      32.655      68.401      137.50      239.91      363.42    
  484.63      574.34      717.65      678.93      574.34      432.81      287.96      166.56      82.902      37.939    
  21.152      15.715      12.211      10.029      8.7779      8.1121      7.7109      7.4097      7.2812      7.4097    
  7.7109      8.1121      8.7779      10.029      12.211      15.715      21.152      37.939      82.902      166.56    
  287.96      432.81      574.34      678.93      717.65      678.93      574.34      432.81      287.96      166.56    
  82.902      37.939      21.152      15.715      12.211      10.029      8.7779      8.1121      7.7109      7.4097    
  7.2812      7.4097      7.7109      8.1121      8.7779      10.029      12.211      15.715      21.152      37.939    
  82.902      166.56      287.96      432.81      574.34      678.93      678.93      642.16      542.79      408.40    
  271.02      156.26      77.717      36.014      20.710      15.536      12.143      10.041      8.8394      8.2008    
  7.8173      7.5314      7.4097      7.5314      7.8173      8.2008      8.8394      10.041      12.143      15.536    
  20.710      36.014      77.717      156.26      271.02      408.40      542.79      642.16      574.34      542.79    
  457.60      342.57      225.57      128.92      64.209      31.179      19.615      15.039      11.959      10.073    
  8.9966      8.4193      8.0714      7.8173      7.7109      7.8173      8.0714      8.4193      8.9966      10.073    
  11.959      15.039      19.615      31.179      64.209      128.92      225.57      342.57      457.60      542.79    
  432.81      408.40      342.57      254.13      165.20      93.444      47.439      25.631      18.268      14.331    
  11.719      10.139      9.2307      8.7284      8.4193      8.2008      8.1121      8.2008      8.4193      8.7284    
  9.2307      10.139      11.719      14.331      18.268      25.631      47.439      93.444      165.20      254.13    
  342.57      408.40      287.96      271.02      225.57      165.20      105.91      60.096      32.879      21.333    
  16.754      13.565      11.523      10.310      9.6168      9.2307      8.9966      8.8394      8.7779      8.8394    
  8.9966      9.2307      9.6168      10.310      11.523      13.565      16.754      21.333      32.879      60.096    
  105.91      165.20      225.57      271.02      166.56      156.26      128.92      93.444      60.096      36.235    
  23.697      18.577      15.244      12.912      11.494      10.707      10.310      10.139      10.073      10.041    
  10.029      10.041      10.073      10.139      10.310      10.707      11.494      12.912      15.244      18.577    
  23.697      36.235      60.096      93.444      128.92      156.26      82.902      77.717      64.209      47.439    
  32.879      23.697      19.248      16.258      13.981      12.529      11.770      11.494      11.523      11.719    
  11.959      12.143      12.211      12.143      11.959      11.719      11.523      11.494      11.770      12.529    
  13.981      16.258      19.248      23.697      32.879      47.439      64.209      77.717      37.939      36.014    
  31.179      25.631      21.333      18.577      16.258      14.388      13.152      12.564      12.529      12.912    
  13.565      14.331      15.039      15.536      15.715      15.536      15.039      14.331      13.565      12.912    
  12.529      12.564      13.152      14.388      16.258      18.577      21.333      25.631      31.179      36.014    
  21.152      20.710      19.615      18.268      16.754      15.244      13.981      13.152      12.865      13.152    
  13.981      15.244      16.754      18.268      19.615      20.710      21.152      20.710      19.615      18.268    
  16.754      15.244      13.981      13.152      12.865      13.152      13.981      15.244      16.754      18.268    
  19.615      20.710      15.715      15.536      15.039      14.331      13.565      12.912      12.529      12.564    
  13.152      14.388      16.258      18.577      21.333      25.631      31.179      36.014      37.939      36.014    
  31.179      25.631      21.333      18.577      16.258      14.388      13.152      12.564      12.529      12.912    
  13.565      14.331      15.039      15.536      12.211      12.143      11.959      11.719      11.523      11.494    
  11.770      12.529      13.981      16.258      19.248      23.697      32.879      47.439      64.209      77.717    
  82.902      77.717      64.209      47.439      32.879      23.697      19.248      16.258      13.981      12.529    
  11.770      11.494      11.523      11.719      11.959      12.143      10.029      10.041      10.073      10.139    
  10.310      10.707      11.494      12.912      15.244      18.577      23.697      36.235      60.096      93.444    
  128.92      156.26      166.56      156.26      128.92      93.444      60.096      36.235      23.697      18.577    
  15.244      12.912      11.494      10.707      10.310      10.139      10.073      10.041      8.7779      8.8394    
  8.9966      9.2307      9.6168      10.310      11.523      13.565      16.754      21.333      32.879      60.096    
  105.91      165.20      225.57      271.02      287.96      271.02      225.57      165.20      105.91      60.096    
  32.879      21.333      16.754      13.565      11.523      10.310      9.6168      9.2307      8.9966      8.8394    
  8.1121      8.2008      8.4193      8.7284      9.2307      10.139      11.719      14.331      18.268      25.631    
  47.439      93.444      165.20      254.13      342.57      408.40      432.81      408.40      342.57      254.13    
  165.20      93.444      47.439      25.631      18.268      14.331      11.719      10.139      9.2307      8.7284    
  8.4193      8.2008      7.7109      7.8173      8.0714      8.4193      8.9966      10.073      11.959      15.039    
  19.615      31.179      64.209      128.92      225.57      342.57      457.60      542.79      574.34      542.79    
  457.60      342.57      225.57      128.92      64.209      31.179      19.615      15.039      11.959      10.073    
  8.9966      8.4193      8.0714      7.8173      7.4097      7.5314      7.8173      8.2008      8.8394      10.041    
  12.143      15.536      20.710      36.014      77.717      156.26      271.02      408.40      542.79      642.16    
  678.93      642.16      542.79      408.40      271.02      156.26      77.717      36.014      20.710      15.536    
  12.143      10.041      8.8394      8.2008      7.8173      7.5314      7.2812      7.4097      7.7109      8.1121    
  8.7779      10.029      12.211      15.715      21.152      37.939      82.902      166.56      287.96      432.81    
  574.34      678.93      717.65      678.93      574.34      432.81      287.96      166.56      82.902      37.939    
  21.152      15.715      12.211      10.029      8.7779      8.1121      7.7109      7.4097      7.4097      7.5314    
  7.8173      8.2008      8.8394      10.041      12.143      15.536      20.710      36.014      77.717      156.26    
  271.02      408.40      542.79      642.16      678.93      642.16      542.79      408.40      271.02      156.26    
  77.717      36.014      20.710      15.536      12.143      10.041      8.8394      8.2008      7.8173      7.5314    
  7.7109      7.8173      8.0714      8.4193      8.9966      10.073      11.959      15.039      19.615      31.179    
  64.209      128.92      225.57      342.57      457.60      542.79      574.34      542.79      457.60      342.57    
  225.57      128.92      64.209      31.179      19.615      15.039      11.959      10.073      8.9966      8.4193    
  8.0714      7.8173      8.1121      8.2008      8.4193      8.7284      9.2307      10.139      11.719      14.331    
  18.268      25.631      47.439      93.444      165.20      254.13      342.57      408.40      432.81      408.40    
  342.57      254.13      165.20      93.444      47.439      25.631      18.268      14.331      11.719      10.139    
  9.2307      8.7284      8.4193      8.2008      8.7779      8.8394      8.9966      9.2307      9.6168      10.310    
  11.523      13.565      16.754      21.333      32.879      60.096      105.91      165.20      225.57      271.02    
  287.96      271.02      225.57      165.20      105.91      60.096      32.879      21.333      16.754      13.565    
  11.523      10.310      9.6168      9.2307      8.9966      8.8394      10.029      10.041      10.073      10.139    
  10.310      10.707      11.494      12.912      15.244      18.577      23.697      36.235      60.096      93.444    
  128.92      156.26      166.56      156.26      128.92      93.444      60.096      36.235      23.697      18.577    
  15.244      12.912      11.494      10.707      10.310      10.139      10.073      10.041      12.211      12.143    
  11.959      11.719      11.523      11.494      11.770      12.529      13.981      16.258      19.248      23.697    
  32.879      47.439      64.209      77.717      82.902      77.717      64.209      47.439      32.879      23.697    
  19.248      16.258      13.981      12.529      11.770      11.494      11.523      11.719      11.959      12.143    
  15.715      15.536      15.039      14.331      13.565      12.912      12.529      12.564      13.152      14.388    
  16.258      18.577      21.333      25.631      31.179      36.014      37.939      36.014      31.179      25.631    
  21.333      18.577      16.258      14.388      13.152      12.564      12.529      12.912      13.565      14.331    
  15.039      15.536      21.152      20.710      19.615      18.268      16.754      15.244      13.981      13.152    
  12.865      13.152      13.981      15.244      16.754      18.268      19.615      20.710      21.152      20.710    
  19.615      18.268      16.754      15.244      13.981      13.152      12.865      13.152      13.981      15.244    
  16.754      18.268      19.615      20.710      37.939      36.014      31.179      25.631      21.333      18.577    
  16.258      14.388      13.152      12.564      12.529      12.912      13.565      14.331      15.039      15.536    
  15.715      15.536      15.039      14.331      13.565      12.912      12.529      12.564      13.152      14.388    
  16.258      18.577      21.333      25.631      31.179      36.014      82.902      77.717      64.209      47.439    
  32.879      23.697      19.248      16.258      13.981      12.529      11.770      11.494      11.523      11.719    
  11.959      12.143      12.211      12.143      11.959      11.719      11.523      11.494      11.770      12.529    
  13.981      16.258      19.248      23.697      32.879      47.439      64.209      77.717      166.56      156.26    
  128.92      93.444      60.096      36.235      23.697      18.577      15.244      12.912      11.494      10.707    
  10.310      10.139      10.073      10.041      10.029      10.041      10.073      10.139      10.310      10.707    
  11.494      12.912      15.244      18.577      23.697      36.235      60.096      93.444      128.92      156.26    
  287.96      271.02      225.57      165.20      105.91      60.096      32.879      21.333      16.754      13.565    
  11.523      10.310      9.6168      9.2307      8.9966      8.8394      8.7779      8.8394      8.9966      9.2307    
  9.6168      10.310      11.523      13.565      16.754      21.333      32.879      60.096      105.91      165.20    
  225.57      271.02      432.81      408.40      342.57      254.13      165.20      93.444      47.439      25.631    
  18.268      14.331      11.719      10.139      9.2307      8.7284      8.4193      8.2008      8.1121      8.2008    
  8.4193      8.7284      9.2307      10.139      11.719      14.331      18.268      25.631      47.439      93.444    
  165.20      254.13      342.57      408.40      574.34      542.79      457.60      342.57      225.57      128.92    
  64.209      31.179      19.615      15.039      11.959      10.073      8.9966      8.4193      8.0714      7.8173    
  7.7109      7.8173      8.0714      8.4193      8.9966      10.073      11.959      15.039      19.615      31.179    
  64.209      128.92      225.57      342.57      457.60      542.79      678.93      642.16      542.79      408.40    
  271.02      156.26      77.717      36.014      20.710      15.536      12.143      10.041      8.8394      8.2008    
  7.8173      7.5314      7.4097      7.5314      7.8173      8.2008      8.8394      10.041      12.143      15.536    
  20.710      36.014      77.717      156.26      271.02      408.40      542.79      642.16      607.55      574.34    
  484.63      363.42      239.91      137.50      68.401      32.655      19.956      15.207      12.023      10.065    
  8.9440      8.3423      7.9784      7.7109      7.5984      7.7109      7.9784      8.3423      8.9440      10.065    
  12.023      15.207      19.956      32.655      68.401      137.50      239.91      363.42      484.63      574.34    
  574.34      542.79      457.60      342.57      225.57      128.92      64.209      31.179      19.615      15.039    
  11.959      10.073      8.9966      8.4193      8.0714      7.8173      7.7109      7.8173      8.0714      8.4193    
  8.9966      10.073      11.959      15.039      19.615      31.179      64.209      128.92      225.57      342.57    
  457.60      542.79      484.63      457.60      384.68      286.45      187.17      106.23      53.355      27.506    
  18.736      14.573      11.785      10.096      9.1331      8.6119      8.2969      8.0714      7.9784      8.0714    
  8.2969      8.6119      9.1331      10.096      11.785      14.573      18.736      27.506      53.355      106.23    
  187.17      286.45      384.68      457.60      363.42      342.57      286.45      211.35      136.48      77.056    
  40.075      23.354      17.521      13.914      11.562      10.151      9.3412      8.8898      8.6119      8.4193    
  8.3423      8.4193      8.6119      8.8898      9.3412      10.151      11.562      13.914      17.521      23.354    
  40.075      77.056      136.48      211.35      286.45      342.57      239.91      225.57      187.17      136.48    
  87.293      50.111      28.829      20.132      16.102      13.208      11.380      10.302      9.6858      9.3412    
  9.1331      8.9966      8.9440      8.9966      9.1331      9.3412      9.6858      10.302      11.380      13.208    
  16.102      20.132      28.829      50.111      87.293      136.48      187.17      225.57      137.50      128.92    
  106.23      77.056      50.111      31.400      21.945      17.758      14.706      12.609      11.347      10.652    
  10.302      10.151      10.096      10.073      10.065      10.073      10.096      10.151      10.302      10.652    
  11.347      12.609      14.706      17.758      21.945      31.400      50.111      77.056      106.23      128.92    
  68.401      64.209      53.355      40.075      28.829      21.945      18.370      15.613      13.554      12.259    
  11.588      11.347      11.380      11.562      11.785      11.959      12.023      11.959      11.785      11.562    
  11.380      11.347      11.588      12.259      13.554      15.613      18.370      21.945      28.829      40.075    
  53.355      64.209      32.655      31.179      27.506      23.354      20.132      17.758      15.613      13.913    
  12.805      12.284      12.259      12.609      13.208      13.914      14.573      15.039      15.207      15.039    
  14.573      13.914      13.208      12.609      12.259      12.284      12.805      13.913      15.613      17.758    
  20.132      23.354      27.506      31.179      19.956      19.615      18.736      17.521      16.102      14.706    
  13.554      12.805      12.547      12.805      13.554      14.706      16.102      17.521      18.736      19.615    
  19.956      19.615      18.736      17.521      16.102      14.706      13.554      12.805      12.547      12.805    
  13.554      14.706      16.102      17.521      18.736      19.615      15.207      15.039      14.573      13.914    
  13.208      12.609      12.259      12.284      12.805      13.913      15.613      17.758      20.132      23.354    
  27.506      31.179      32.655      31.179      27.506      23.354      20.132      17.758      15.613      13.913    
  12.805      12.284      12.259      12.609      13.208      13.914      14.573      15.039      12.023      11.959    
  11.785      11.562      11.380      11.347      11.588      12.259      13.554      15.613      18.370      21.945    
  28.829      40.075      53.355      64.209      68.401      64.209      53.355      40.075      28.829      21.945    
  18.370      15.613      13.554      12.259      11.588      11.347      11.380      11.562      11.785      11.959    
  10.065      10.073      10.096      10.151      10.302      10.652      11.347      12.609      14.706      17.758    
  21.945      31.400      50.111      77.056      106.23      128.92      137.50      128.92      106.23      77.056    
  50.111      31.400      21.945      17.758      14.706      12.609      11.347      10.652      10.302      10.151    
  10.096      10.073      8.9440      8.9966      9.1331      9.3412      9.6858      10.302      11.380      13.208    
  16.102      20.132      28.829      50.111      87.293      136.48      187.17      225.57      239.91      225.57    