unknown system                          
   1.00000000000000     
     3.509554    0.000000    0.000000
     0.000000    3.509554    0.000000
     0.000000    0.000000    3.509554
   Cu
     4
Direct
  0.000000  0.000000  0.000000
  0.500000  0.500000  0.000000
  0.500000  0.000000  0.500000
  0.000000  0.500000  0.500000
 
   32   32   32
 0.75840294066E+03 0.71764975329E+03 0.60754900907E+03 0.45853963796E+03 0.30584888969E+03
 0.17748073377E+03 0.88457276370E+02 0.40036207913E+02 0.21639055520E+02 0.15896578509E+02
 0.12279853130E+02 0.10015485226E+02 0.87125580782E+01 0.80183590986E+01 0.75983669025E+01
 0.72812235311E+01 0.71454196282E+01 0.72812235311E+01 0.75983669025E+01 0.80183590986E+01
 0.87125580782E+01 0.10015485226E+02 0.12279853130E+02 0.15896578509E+02 0.21639055520E+02
 0.40036207913E+02 0.88457276370E+02 0.17748073377E+03 0.30584888969E+03 0.45853963796E+03
 0.60754900907E+03 0.71764975329E+03 0.71764975329E+03 0.67893484668E+03 0.57433762350E+03
 0.43281181794E+03 0.28795930807E+03 0.16655655776E+03 0.82902260801E+02 0.37938663515E+02
 0.21152120186E+02 0.15714788869E+02 0.12211009450E+02 0.10029349093E+02 0.87779079215E+01
 0.81121366693E+01 0.77108579056E+01 0.74097495921E+01 0.72812235311E+01 0.74097495921E+01
 0.77108579056E+01 0.81121366693E+01 0.87779079215E+01 0.10029349093E+02 0.12211009450E+02
 0.15714788869E+02 0.21152120186E+02 0.37938663515E+02 0.82902260801E+02 0.16655655776E+03
 0.28795930807E+03 0.43281181794E+03 0.57433762350E+03 0.67893484668E+03 0.60754900907E+03
 0.57433762350E+03 0.48462971228E+03 0.36341857404E+03 0.23991485925E+03 0.13749818387E+03
 0.68401427812E+02 0.32654944653E+02 0.19956248317E+02 0.15207318553E+02 0.12023154727E+02
 0.10064818460E+02 0.89439704243E+01 0.83422721005E+01 0.79784374303E+01 0.77108579056E+01
 0.75983669025E+01 0.77108579056E+01 0.79784374303E+01 0.83422721005E+01 0.89439704243E+01
 0.10064818460E+02 0.12023154727E+02 0.15207318553E+02 0.19956248317E+02 0.32654944653E+02
 0.68401427812E+02 0.13749818387E+03 0.23991485925E+03 0.36341857404E+03 0.48462971228E+03
 0.57433762350E+03 0.45853963796E+03 0.43281181794E+03 0.36341857404E+03 0.27007577644E+03
 0.17598925440E+03 0.99689341655E+02 0.50319309463E+02 0.26555364042E+02 0.18532167941E+02
 0.14481879082E+02 0.11777477178E+02 0.10135451014E+02 0.91894590252E+01 0.86656811157E+01
 0.83422721005E+01 0.81121366693E+01 0.80183590986E+01 0.81121366693E+01 0.83422721005E+01
 0.86656811157E+01 0.91894590252E+01 0.10135451014E+02 0.11777477178E+02 0.14481879082E+02
 0.18532167941E+02 0.26555364042E+02 0.50319309463E+02 0.99689341655E+02 0.17598925440E+03
 0.27007577644E+03 0.36341857404E+03 0.43281181794E+03 0.30584888969E+03 0.28795930807E+03
 0.23991485925E+03 0.17598925440E+03 0.11297398973E+03 0.63957434154E+02 0.34495049009E+02
 0.21810622890E+02 0.16986894944E+02 0.13695531752E+02 0.11577125686E+02 0.10315284680E+02
 0.95924340810E+01 0.91894590252E+01 0.89439704243E+01 0.87779079215E+01 0.87125580782E+01
 0.87779079215E+01 0.89439704243E+01 0.91894590252E+01 0.95924340810E+01 0.10315284680E+02
 0.11577125686E+02 0.13695531752E+02 0.16986894944E+02 0.21810622890E+02 0.34495049009E+02
 0.63957434154E+02 0.11297398973E+03 0.17598925440E+03 0.23991485925E+03 0.28795930807E+03
 0.17748073377E+03 0.16655655776E+03 0.13749818387E+03 0.99689341655E+02 0.63957434154E+02
 0.38151262388E+02 0.24403376891E+02 0.18866633202E+02 0.15436957190E+02 0.13022578226E+02
 0.11549319413E+02 0.10729982440E+02 0.10315284680E+02 0.10135451014E+02 0.10064818460E+02
 0.10029349093E+02 0.10015485226E+02 0.10029349093E+02 0.10064818460E+02 0.10135451014E+02
 0.10315284680E+02 0.10729982440E+02 0.11549319413E+02 0.13022578226E+02 0.15436957190E+02
 0.18866633202E+02 0.24403376891E+02 0.38151262388E+02 0.63957434154E+02 0.99689341655E+02
 0.13749818387E+03 0.16655655776E+03 0.88457276370E+02 0.82902260801E+02 0.68401427812E+02
 0.50319309463E+02 0.34495049009E+02 0.24403376891E+02 0.19560613312E+02 0.16488698954E+02
 0.14134951061E+02 0.12628804580E+02 0.11838628141E+02 0.11549319413E+02 0.11577125686E+02
 0.11777477178E+02 0.12023154727E+02 0.12211009450E+02 0.12279853130E+02 0.12211009450E+02
 0.12023154727E+02 0.11777477178E+02 0.11577125686E+02 0.11549319413E+02 0.11838628141E+02
 0.12628804580E+02 0.14134951061E+02 0.16488698954E+02 0.19560613312E+02 0.24403376891E+02
 0.34495049009E+02 0.50319309463E+02 0.68401427812E+02 0.82902260801E+02 0.40036207913E+02
 0.37938663515E+02 0.32654944653E+02 0.26555364042E+02 0.21810622890E+02 0.18866633202E+02
 0.16488698954E+02 0.14558746738E+02 0.13278033104E+02 0.12667038841E+02 0.12628804580E+02
 0.13022578226E+02 0.13695531752E+02 0.14481879082E+02 0.15207318553E+02 0.15714788869E+02
 0.15896578509E+02 0.15714788869E+02 0.15207318553E+02 0.14481879082E+02 0.13695531752E+02
 0.13022578226E+02 0.12628804580E+02 0.12667038841E+02 0.13278033104E+02 0.14558746738E+02
 0.16488698954E+02 0.18866633202E+02 0.21810622890E+02 0.26555364042E+02 0.32654944653E+02
 0.37938663515E+02 0.21639055520E+02 0.21152120186E+02 0.19956248317E+02 0.18532167941E+02
 0.16986894944E+02 0.15436957190E+02 0.14134951061E+02 0.13278033104E+02 0.12980485043E+02
 0.13278033104E+02 0.14134951061E+02 0.15436957190E+02 0.16986894944E+02 0.18532167941E+02
 0.19956248317E+02 0.21152120186E+02 0.21639055520E+02 0.21152120186E+02 0.19956248317E+02
 0.18532167941E+02 0.16986894944E+02 0.15436957190E+02 0.14134951061E+02 0.13278033104E+02
 0.12980485043E+02 0.13278033104E+02 0.14134951061E+02 0.15436957190E+02 0.16986894944E+02
 0.18532167941E+02 0.19956248317E+02 0.21152120186E+02 0.15896578509E+02 0.15714788869E+02
 0.15207318553E+02 0.14481879082E+02 0.13695531752E+02 0.13022578226E+02 0.12628804580E+02
 0.12667038841E+02 0.13278033104E+02 0.14558746738E+02 0.16488698954E+02 0.18866633202E+02
 0.21810622890E+02 0.26555364042E+02 0.32654944653E+02 0.37938663515E+02 0.40036207913E+02
 0.37938663515E+02 0.32654944653E+02 0.26555364042E+02 0.21810622890E+02 0.18866633202E+02
 0.16488698954E+02 0.14558746738E+02 0.13278033104E+02 0.12667038841E+02 0.12628804580E+02
 0.13022578226E+02 0.13695531752E+02 0.14481879082E+02 0.15207318553E+02 0.15714788869E+02
 0.12279853130E+02 0.12211009450E+02 0.12023154727E+02 0.11777477178E+02 0.11577125686E+02
 0.11549319413E+02 0.11838628141E+02 0.12628804580E+02 0.14134951061E+02 0.16488698954E+02
 0.19560613312E+02 0.24403376891E+02 0.34495049009E+02 0.50319309463E+02 0.68401427812E+02
 0.82902260801E+02 0.88457276370E+02 0.82902260801E+02 0.68401427812E+02 0.50319309463E+02
 0.34495049009E+02 0.24403376891E+02 0.19560613312E+02 0.16488698954E+02 0.14134951061E+02
 0.12628804580E+02 0.11838628141E+02 0.11549319413E+02 0.11577125686E+02 0.11777477178E+02
 0.12023154727E+02 0.12211009450E+02 0.10015485226E+02 0.10029349093E+02 0.10064818460E+02
 0.10135451014E+02 0.10315284680E+02 0.10729982440E+02 0.11549319413E+02 0.13022578226E+02
 0.15436957190E+02 0.18866633202E+02 0.24403376891E+02 0.38151262388E+02 0.63957434154E+02
 0.99689341655E+02 0.13749818387E+03 0.16655655776E+03 0.17748073377E+03 0.16655655776E+03
 0.13749818387E+03 0.99689341655E+02 0.63957434154E+02 0.38151262388E+02 0.24403376891E+02
 0.18866633202E+02 0.15436957190E+02 0.13022578226E+02 0.11549319413E+02 0.10729982440E+02
 0.10315284680E+02 0.10135451014E+02 0.10064818460E+02 0.10029349093E+02 0.87125580782E+01
 0.87779079215E+01 0.89439704243E+01 0.91894590252E+01 0.95924340810E+01 0.10315284680E+02
 0.11577125686E+02 0.13695531752E+02 0.16986894944E+02 0.21810622890E+02 0.34495049009E+02
 0.63957434154E+02 0.11297398973E+03 0.17598925440E+03 0.23991485925E+03 0.28795930807E+03
 0.30584888969E+03 0.28795930807E+03 0.23991485925E+03 0.17598925440E+03 0.11297398973E+03
 0.63957434154E+02 0.34495049009E+02 0.21810622890E+02 0.16986894944E+02 0.13695531752E+02
 0.11577125686E+02 0.10315284680E+02 0.95924340810E+01 0.91894590252E+01 0.89439704243E+01
 0.87779079215E+01 0.80183590986E+01 0.81121366693E+01 0.83422721005E+01 0.86656811157E+01
 0.91894590252E+01 0.10135451014E+02 0.11777477178E+02 0.14481879082E+02 0.18532167941E+02
 0.26555364042E+02 0.50319309463E+02 0.99689341655E+02 0.17598925440E+03 0.27007577644E+03
 0.36341857404E+03 0.43281181794E+03 0.45853963796E+03 0.43281181794E+03 0.36341857404E+03
 0.27007577644E+03 0.17598925440E+03 0.99689341655E+02 0.50319309463E+02 0.26555364042E+02
 0.18532167941E+02 0.14481879082E+02 0.11777477178E+02 0.10135451014E+02 0.91894590252E+01
 0.86656811157E+01 0.83422721005E+01 0.81121366693E+01 0.75983669025E+01 0.77108579056E+01
 0.79784374303E+01 0.83422721005E+01 0.89439704243E+01 0.10064818460E+02 0.12023154727E+02
 0.15207318553E+02 0.19956248317E+02 0.32654944653E+02 0.68401427812E+02 0.13749818387E+03
 0.23991485925E+03 0.36341857404E+03 0.48462971228E+03 0.57433762350E+03 0.60754900907E+03
 0.57433762350E+03 0.48462971228E+03 0.36341857404E+03 0.23991485925E+03 0.13749818387E+03
 0.68401427812E+02 0.32654944653E+02 0.19956248317E+02 0.15207318553E+02 0.12023154727E+02
 0.10064818460E+02 0.89439704243E+01 0.83422721005E+01 0.79784374303E+01 0.77108579056E+01
 0.72812235311E+01 0.74097495921E+01 0.77108579056E+01 0.81121366693E+01 0.87779079215E+01
 0.10029349093E+02 0.12211009450E+02 0.15714788869E+02 0.21152120186E+02 0.37938663515E+02
 0.82902260801E+02 0.16655655776E+03 0.28795930807E+03 0.43281181794E+03 0.57433762350E+03
 0.67893484668E+03 0.71764975329E+03 0.67893484668E+03 0.57433762350E+03 0.43281181794E+03
 0.28795930807E+03 0.16655655776E+03 0.82902260801E+02 0.37938663515E+02 0.21152120186E+02
 0.15714788869E+02 0.12211009450E+02 0.10029349093E+02 0.87779079215E+01 0.81121366693E+01
 0.77108579056E+01 0.74097495921E+01 0.71454196282E+01 0.72812235311E+01 0.75983669025E+01
 0.80183590986E+01 0.87125580782E+01 0.10015485226E+02 0.12279853130E+02 0.15896578509E+02
 0.21639055520E+02 0.40036207913E+02 0.88457276370E+02 0.17748073377E+03 0.30584888969E+03
 0.45853963796E+03 0.60754900907E+03 0.71764975329E+03 0.75840294066E+03 0.71764975329E+03
 0.60754900907E+03 0.45853963796E+03 0.30584888969E+03 0.17748073377E+03 0.88457276370E+02
 0.40036207913E+02 0.21639055520E+02 0.15896578509E+02 0.12279853130E+02 0.10015485226E+02
 0.87125580782E+01 0.80183590986E+01 0.75983669025E+01 0.72812235311E+01 0.72812235311E+01
 0.74097495921E+01 0.77108579056E+01 0.81121366693E+01 0.87779079215E+01 0.10029349093E+02
 0.12211009450E+02 0.15714788869E+02 0.21152120186E+02 0.37938663515E+02 0.82902260801E+02
 0.16655655776E+03 0.28795930807E+03 0.43281181794E+03 0.57433762350E+03 0.67893484668E+03
 0.71764975329E+03 0.67893484668E+03 0.57433762350E+03 0.43281181794E+03 0.28795930807E+03
 0.16655655776E+03 0.82902260801E+02 0.37938663515E+02 0.21152120186E+02 0.15714788869E+02
 0.12211009450E+02 0.10029349093E+02 0.87779079215E+01 0.81121366693E+01 0.77108579056E+01
 0.74097495921E+01 0.75983669025E+01 0.77108579056E+01 0.79784374303E+01 0.83422721005E+01
 0.89439704243E+01 0.10064818460E+02 0.12023154727E+02 0.15207318553E+02 0.19956248317E+02
 0.32654944653E+02 0.68401427812E+02 0.13749818387E+03 0.23991485925E+03 0.36341857404E+03
 0.48462971228E+03 0.57433762350E+03 0.60754900907E+03 0.57433762350E+03 0.48462971228E+03
 0.36341857404E+03 0.23991485925E+03 0.13749818387E+03 0.68401427812E+02 0.32654944653E+02
 0.19956248317E+02 0.15207318553E+02 0.12023154727E+02 0.10064818460E+02 0.89439704243E+01
 0.83422721005E+01 0.79784374303E+01 0.77108579056E+01 0.80183590986E+01 0.81121366693E+01
 0.83422721005E+01 0.86656811157E+01 0.91894590252E+01 0.10135451014E+02 0.11777477178E+02
 0.14481879082E+02 0.18532167941E+02 0.26555364042E+02 0.50319309463E+02 0.99689341655E+02
 0.17598925440E+03 0.27007577644E+03 0.36341857404E+03 0.43281181794E+03 0.45853963796E+03
 0.43281181794E+03 0.36341857404E+03 0.27007577644E+03 0.17598925440E+03 0.99689341655E+02
 0.50319309463E+02 0.26555364042E+02 0.18532167941E+02 0.14481879082E+02 0.11777477178E+02
 0.10135451014E+02 0.91894590252E+01 0.86656811157E+01 0.83422721005E+01 0.81121366693E+01
 0.87125580782E+01 0.87779079215E+01 0.89439704243E+01 0.91894590252E+01 0.95924340810E+01
 0.10315284680E+02 0.11577125686E+02 0.13695531752E+02 0.16986894944E+02 0.21810622890E+02
 0.34495049009E+02 0.63957434154E+02 0.11297398973E+03 0.17598925440E+03 0.23991485925E+03
 0.28795930807E+03 0.30584888969E+03 0.28795930807E+03 0.23991485925E+03 0.17598925440E+03
 0.11297398973E+03 0.63957434154E+02 0.34495049009E+02 0.21810622890E+02 0.16986894944E+02
 0.13695531752E+02 0.11577125686E+02 0.10315284680E+02 0.95924340810E+01 0.91894590252E+01
 0.89439704243E+01 0.87779079215E+01 0.10015485226E+02 0.10029349093E+02 0.10064818460E+02
 0.10135451014E+02 0.10315284680E+02 0.10729982440E+02 0.11549319413E+02 0.13022578226E+02
 0.15436957190E+02 0.18866633202E+02 0.24403376891E+02 0.38151262388E+02 0.63957434154E+02
 0.99689341655E+02 0.13749818387E+03 0.16655655776E+03 0.17748073377E+03 0.16655655776E+03
 0.13749818387E+03 0.99689341655E+02 0.63957434154E+02 0.38151262388E+02 0.24403376891E+02
 0.18866633202E+02 0.15436957190E+02 0.13022578226E+02 0.11549319413E+02 0.10729982440E+02
 0.10315284680E+02 0.10135451014E+02 0.10064818460E+02 0.10029349093E+02 0.12279853130E+02
 0.12211009450E+02 0.12023154727E+02 0.11777477178E+02 0.11577125686E+02 0.11549319413E+02
 0.11838628141E+02 0.12628804580E+02 0.14134951061E+02 0.16488698954E+02 0.19560613312E+02
 0.24403376891E+02 0.34495049009E+02 0.50319309463E+02 0.68401427812E+02 0.82902260801E+02
 0.88457276370E+02 0.82902260801E+02 0.68401427812E+02 0.50319309463E+02 0.34495049009E+02
 0.24403376891E+02 0.19560613312E+02 0.16488698954E+02 0.14134951061E+02 0.12628804580E+02
 0.11838628141E+02 0.11549319413E+02 0.11577125686E+02 0.11777477178E+02 0.12023154727E+02
 0.12211009450E+02 0.15896578509E+02 0.15714788869E+02 0.15207318553E+02 0.14481879082E+02
 0.13695531752E+02 0.13022578226E+02 0.12628804580E+02 0.12667038841E+02 0.13278033104E+02
 0.14558746738E+02 0.16488698954E+02 0.18866633202E+02 0.21810622890E+02 0.26555364042E+02
 0.32654944653E+02 0.37938663515E+02 0.40036207913E+02 0.37938663515E+02 0.32654944653E+02
 0.26555364042E+02 0.21810622890E+02 0.18866633202E+02 0.16488698954E+02 0.14558746738E+02
 0.13278033104E+02 0.12667038841E+02 0.12628804580E+02 0.13022578226E+02 0.13695531752E+02
 0.14481879082E+02 0.15207318553E+02 0.15714788869E+02 0.21639055520E+02 0.21152120186E+02
 0.19956248317E+02 0.18532167941E+02 0.16986894944E+02 0.15436957190E+02 0.14134951061E+02
 0.13278033104E+02 0.12980485043E+02 0.13278033104E+02 0.14134951061E+02 0.15436957190E+02
 0.16986894944E+02 0.18532167941E+02 0.19956248317E+02 0.21152120186E+02 0.21639055520E+02
 0.21152120186E+02 0.19956248317E+02 0.18532167941E+02 0.16986894944E+02 0.15436957190E+02
 0.14134951061E+02 0.13278033104E+02 0.12980485043E+02 0.13278033104E+02 0.14134951061E+02
 0.15436957190E+02 0.16986894944E+02 0.18532167941E+02 0.19956248317E+02 0.21152120186E+02
 0.40036207913E+02 0.37938663515E+02 0.32654944653E+02 0.26555364042E+02 0.21810622890E+02
 0.18866633202E+02 0.16488698954E+02 0.14558746738E+02 0.13278033104E+02 0.12667038841E+02
 0.12628804580E+02 0.13022578226E+02 0.13695531752E+02 0.14481879082E+02 0.15207318553E+02
 0.15714788869E+02 0.15896578509E+02 0.15714788869E+02 0.15207318553E+02 0.14481879082E+02
 0.13695531752E+02 0.13022578226E+02 0.12628804580E+02 0.12667038841E+02 0.13278033104E+02
 0.14558746738E+02 0.16488698954E+02 0.18866633202E+02 0.21810622890E+02 0.26555364042E+02
 0.32654944653E+02 0.37938663515E+02 0.88457276370E+02 0.82902260801E+02 0.68401427812E+02
 0.50319309463E+02 0.34495049009E+02 0.24403376891E+02 0.19560613312E+02 0.16488698954E+02
 0.14134951061E+02 0.12628804580E+02 0.11838628141E+02 0.11549319413E+02 0.11577125686E+02
 0.11777477178E+02 0.12023154727E+02 0.12211009450E+02 0.12279853130E+02 0.12211009450E+02
 0.12023154727E+02 0.11777477178E+02 0.11577125686E+02 0.11549319413E+02 0.11838628141E+02
 0.12628804580E+02 0.14134951061E+02 0.16488698954E+02 0.19560613312E+02 0.24403376891E+02
 0.34495049009E+02 0.50319309463E+02 0.68401427812E+02 0.82902260801E+02 0.17748073377E+03
 0.16655655776E+03 0.13749818387E+03 0.99689341655E+02 0.63957434154E+02 0.38151262388E+02
 0.24403376891E+02 0.18866633202E+02 0.15436957190E+02 0.13022578226E+02 0.11549319413E+02
 0.10729982440E+02 0.10315284680E+02 0.10135451014E+02 0.10064818460E+02 0.10029349093E+02
 0.10015485226E+02 0.10029349093E+02 0.10064818460E+02 0.10135451014E+02 0.10315284680E+02
 0.10729982440E+02 0.11549319413E+02 0.13022578226E+02 0.15436957190E+02 0.18866633202E+02
 0.24403376891E+02 0.38151262388E+02 0.63957434154E+02 0.99689341655E+02 0.13749818387E+03
 0.16655655776E+03 0.30584888969E+03 0.28795930807E+03 0.23991485925E+03 0.17598925440E+03
 0.11297398973E+03 0.63957434154E+02 0.34495049009E+02 0.21810622890E+02 0.16986894944E+02
 0.13695531752E+02 0.11577125686E+02 0.10315284680E+02 0.95924340810E+01 0.91894590252E+01
 0.89439704243E+01 0.87779079215E+01 0.87125580782E+01 0.87779079215E+01 0.89439704243E+01
 0.91894590252E+01 0.95924340810E+01 0.10315284680E+02 0.11577125686E+02 0.13695531752E+02
 0.16986894944E+02 0.21810622890E+02 0.34495049009E+02 0.63957434154E+02 0.11297398973E+03
 0.17598925440E+03 0.23991485925E+03 0.28795930807E+03 0.45853963796E+03 0.43281181794E+03
 0.36341857404E+03 0.27007577644E+03 0.17598925440E+03 0.99689341655E+02 0.50319309463E+02
 0.26555364042E+02 0.18532167941E+02 0.14481879082E+02 0.11777477178E+02 0.10135451014E+02
 0.91894590252E+01 0.86656811157E+01 0.83422721005E+01 0.81121366693E+01 0.80183590986E+01
 0.81121366693E+01 0.83422721005E+01 0.86656811157E+01 0.91894590252E+01 0.10135451014E+02
 0.11777477178E+02 0.14481879082E+02 0.18532167941E+02 0.26555364042E+02 0.50319309463E+02
 0.99689341655E+02 0.17598925440E+03 0.27007577644E+03 0.36341857404E+03 0.43281181794E+03
 0.60754900907E+03 0.57433762350E+03 0.48462971228E+03 0.36341857404E+03 0.23991485925E+03
 0.13749818387E+03 0.68401427812E+02 0.32654944653E+02 0.19956248317E+02 0.15207318553E+02
 0.12023154727E+02 0.10064818460E+02 0.89439704243E+01 0.83422721005E+01 0.79784374303E+01
 0.77108579056E+01 0.75983669025E+01 0.77108579056E+01 0.79784374303E+01 0.83422721005E+01
 0.89439704243E+01 0.10064818460E+02 0.12023154727E+02 0.15207318553E+02 0.19956248317E+02
 0.32654944653E+02 0.68401427812E+02 0.13749818387E+03 0.23991485925E+03 0.36341857404E+03
 0.48462971228E+03 0.57433762350E+03 0.71764975329E+03 0.67893484668E+03 0.57433762350E+03
 0.43281181794E+03 0.28795930807E+03 0.16655655776E+03 0.82902260801E+02 0.37938663515E+02
 0.21152120186E+02 0.15714788869E+02 0.12211009450E+02 0.10029349093E+02 0.87779079215E+01
 0.81121366693E+01 0.77108579056E+01 0.74097495921E+01 0.72812235311E+01 0.74097495921E+01
 0.77108579056E+01 0.81121366693E+01 0.87779079215E+01 0.10029349093E+02 0.12211009450E+02
 0.15714788869E+02 0.21152120186E+02 0.37938663515E+02 0.82902260801E+02 0.16655655776E+03
 0.28795930807E+03 0.43281181794E+03 0.57433762350E+03 0.67893484668E+03 0.71764975329E+03
 0.67893484668E+03 0.57433762350E+03 0.43281181794E+03 0.28795930807E+03 0.16655655776E+03
 0.82902260801E+02 0.37938663515E+02 0.21152120186E+02 0.15714788869E+02 0.12211009450E+02
 0.10029349093E+02 0.87779079215E+01 0.81121366693E+01 0.77108579056E+01 0.74097495921E+01
 0.72812235311E+01 0.74097495921E+01 0.77108579056E+01 0.81121366693E+01 0.87779079215E+01
 0.10029349093E+02 0.12211009450E+02 0.15714788869E+02 0.21152120186E+02 0.37938663515E+02
 0.82902260801E+02 0.16655655776E+03 0.28795930807E+03 0.43281181794E+03 0.57433762350E+03
 0.67893484668E+03 0.67893484668E+03 0.64215673459E+03 0.54279388559E+03 0.40839678833E+03
 0.27102172199E+03 0.15626428595E+03 0.77717083244E+02 0.36013744758E+02 0.20709800150E+02
 0.15536347513E+02 0.12143188785E+02 0.10041471128E+02 0.88394336515E+01 0.82007953815E+01
 0.78172895979E+01 0.75313794132E+01 0.74097495921E+01 0.75313794132E+01 0.78172895979E+01
 0.82007953815E+01 0.88394336515E+01 0.10041471128E+02 0.12143188785E+02 0.15536347513E+02
 0.20709800150E+02 0.36013744758E+02 0.77717083244E+02 0.15626428595E+03 0.27102172199E+03
 0.40839678833E+03 0.54279388559E+03 0.64215673459E+03 0.57433762350E+03 0.54279388559E+03
 0.45760413756E+03 0.34257086639E+03 0.22556796971E+03 0.12892055917E+03 0.64208558014E+02
 0.31179343872E+02 0.19615040469E+02 0.15039169580E+02 0.11958764300E+02 0.10073053855E+02
 0.89965524047E+01 0.84192506431E+01 0.80713951013E+01 0.78172895979E+01 0.77108579056E+01
 0.78172895979E+01 0.80713951013E+01 0.84192506431E+01 0.89965524047E+01 0.10073053855E+02
 0.11958764300E+02 0.15039169580E+02 0.19615040469E+02 0.31179343872E+02 0.64208558014E+02
 0.12892055917E+03 0.22556796971E+03 0.34257086639E+03 0.45760413756E+03 0.54279388559E+03
 0.43281181794E+03 0.40839678833E+03 0.34257086639E+03 0.25412598335E+03 0.16520010551E+03
 0.93444323240E+02 0.47439048060E+02 0.25630817873E+02 0.18267898096E+02 0.14330637733E+02
 0.11718589879E+02 0.10138840207E+02 0.92307197887E+01 0.87283558381E+01 0.84192506431E+01
 0.82007953815E+01 0.81121366693E+01 0.82007953815E+01 0.84192506431E+01 0.87283558381E+01
 0.92307197887E+01 0.10138840207E+02 0.11718589879E+02 0.14330637733E+02 0.18267898096E+02
 0.25630817873E+02 0.47439048060E+02 0.93444323240E+02 0.16520010551E+03 0.25412598335E+03
 0.34257086639E+03 0.40839678833E+03 0.28795930807E+03 0.27102172199E+03 0.22556796971E+03
 0.16520010551E+03 0.10590822918E+03 0.60096146208E+02 0.32879405726E+02 0.21332824804E+02
 0.16754137410E+02 0.13565140754E+02 0.11522899352E+02 0.10310224593E+02 0.96168332085E+01
 0.92307197887E+01 0.89965524047E+01 0.88394336515E+01 0.87779079215E+01 0.88394336515E+01
 0.89965524047E+01 0.92307197887E+01 0.96168332085E+01 0.10310224593E+02 0.11522899352E+02
 0.13565140754E+02 0.16754137410E+02 0.21332824804E+02 0.32879405726E+02 0.60096146208E+02
 0.10590822918E+03 0.16520010551E+03 0.22556796971E+03 0.27102172199E+03 0.16655655776E+03
 0.15626428595E+03 0.12892055917E+03 0.93444323240E+02 0.60096146208E+02 0.36235316617E+02
 0.23696571136E+02 0.18577447034E+02 0.15243637786E+02 0.12911708923E+02 0.11493910689E+02
 0.10707389197E+02 0.10310224593E+02 0.10138840207E+02 0.10073053855E+02 0.10041471128E+02
 0.10029349093E+02 0.10041471128E+02 0.10073053855E+02 0.10138840207E+02 0.10310224593E+02
 0.10707389197E+02 0.11493910689E+02 0.12911708923E+02 0.15243637786E+02 0.18577447034E+02
 0.23696571136E+02 0.36235316617E+02 0.60096146208E+02 0.93444323240E+02 0.12892055917E+03
 0.15626428595E+03 0.82902260801E+02 0.77717083244E+02 0.64208558014E+02 0.47439048060E+02
 0.32879405726E+02 0.23696571136E+02 0.19248157275E+02 0.16258040558E+02 0.13980551328E+02
 0.12529478682E+02 0.11770398530E+02 0.11493910689E+02 0.11522899352E+02 0.11718589879E+02
 0.11958764300E+02 0.12143188785E+02 0.12211009450E+02 0.12143188785E+02 0.11958764300E+02
 0.11718589879E+02 0.11522899352E+02 0.11493910689E+02 0.11770398530E+02 0.12529478682E+02
 0.13980551328E+02 0.16258040558E+02 0.19248157275E+02 0.23696571136E+02 0.32879405726E+02
 0.47439048060E+02 0.64208558014E+02 0.77717083244E+02 0.37938663515E+02 0.36013744758E+02
 0.31179343872E+02 0.25630817873E+02 0.21332824804E+02 0.18577447034E+02 0.16258040558E+02
 0.14387653545E+02 0.13151969039E+02 0.12564491005E+02 0.12529478682E+02 0.12911708923E+02
 0.13565140754E+02 0.14330637733E+02 0.15039169580E+02 0.15536347513E+02 0.15714788869E+02
 0.15536347513E+02 0.15039169580E+02 0.14330637733E+02 0.13565140754E+02 0.12911708923E+02
 0.12529478682E+02 0.12564491005E+02 0.13151969039E+02 0.14387653545E+02 0.16258040558E+02
 0.18577447034E+02 0.21332824804E+02 0.25630817873E+02 0.31179343872E+02 0.36013744758E+02
 0.21152120186E+02 0.20709800150E+02 0.19615040469E+02 0.18267898096E+02 0.16754137410E+02
 0.15243637786E+02 0.13980551328E+02 0.13151969039E+02 0.12864753697E+02 0.13151969039E+02
 0.13980551328E+02 0.15243637786E+02 0.16754137410E+02 0.18267898096E+02 0.19615040469E+02
 0.20709800150E+02 0.21152120186E+02 0.20709800150E+02 0.19615040469E+02 0.18267898096E+02
 0.16754137410E+02 0.15243637786E+02 0.13980551328E+02 0.13151969039E+02 0.12864753697E+02
 0.13151969039E+02 0.13980551328E+02 0.15243637786E+02 0.16754137410E+02 0.18267898096E+02
 0.19615040469E+02 0.20709800150E+02 0.15714788869E+02 0.15536347513E+02 0.15039169580E+02
 0.14330637733E+02 0.13565140754E+02 0.12911708923E+02 0.12529478682E+02 0.12564491005E+02
 0.13151969039E+02 0.14387653545E+02 0.16258040558E+02 0.18577447034E+02 0.21332824804E+02
 0.25630817873E+02 0.31179343872E+02 0.36013744758E+02 0.37938663515E+02 0.36013744758E+02
 0.31179343872E+02 0.25630817873E+02 0.21332824804E+02 0.18577447034E+02 0.16258040558E+02
 0.14387653545E+02 0.13151969039E+02 0.12564491005E+02 0.12529478682E+02 0.12911708923E+02
 0.13565140754E+02 0.14330637733E+02 0.15039169580E+02 0.15536347513E+02 0.12211009450E+02
 0.12143188785E+02 0.11958764300E+02 0.11718589879E+02 0.11522899352E+02 0.11493910689E+02
 0.11770398530E+02 0.12529478682E+02 0.13980551328E+02 0.16258040558E+02 0.19248157275E+02
 0.23696571136E+02 0.32879405726E+02 0.47439048060E+02 0.64208558014E+02 0.77717083244E+02
 0.82902260801E+02 0.77717083244E+02 0.64208558014E+02 0.47439048060E+02 0.32879405726E+02
 0.23696571136E+02 0.19248157275E+02 0.16258040558E+02 0.13980551328E+02 0.12529478682E+02
 0.11770398530E+02 0.11493910689E+02 0.11522899352E+02 0.11718589879E+02 0.11958764300E+02
 0.12143188785E+02 0.10029349093E+02 0.10041471128E+02 0.10073053855E+02 0.10138840207E+02
 0.10310224593E+02 0.10707389197E+02 0.11493910689E+02 0.12911708923E+02 0.15243637786E+02
 0.18577447034E+02 0.23696571136E+02 0.36235316617E+02 0.60096146208E+02 0.93444323240E+02
 0.12892055917E+03 0.15626428595E+03 0.16655655776E+03 0.15626428595E+03 0.12892055917E+03
 0.93444323240E+02 0.60096146208E+02 0.36235316617E+02 0.23696571136E+02 0.18577447034E+02
 0.15243637786E+02 0.12911708923E+02 0.11493910689E+02 0.10707389197E+02 0.10310224593E+02
 0.10138840207E+02 0.10073053855E+02 0.10041471128E+02 0.87779079215E+01 0.88394336515E+01
 0.89965524047E+01 0.92307197887E+01 0.96168332085E+01 0.10310224593E+02 0.11522899352E+02
 0.13565140754E+02 0.16754137410E+02 0.21332824804E+02 0.32879405726E+02 0.60096146208E+02
 0.10590822918E+03 0.16520010551E+03 0.22556796971E+03 0.27102172199E+03 0.28795930807E+03
 0.27102172199E+03 0.22556796971E+03 0.16520010551E+03 0.10590822918E+03 0.60096146208E+02
 0.32879405726E+02 0.21332824804E+02 0.16754137410E+02 0.13565140754E+02 0.11522899352E+02
 0.10310224593E+02 0.96168332085E+01 0.92307197887E+01 0.89965524047E+01 0.88394336515E+01
 0.81121366693E+01 0.82007953815E+01 0.84192506431E+01 0.87283558381E+01 0.92307197887E+01
 0.10138840207E+02 0.11718589879E+02 0.14330637733E+02 0.18267898096E+02 0.25630817873E+02
 0.47439048060E+02 0.93444323240E+02 0.16520010551E+03 0.25412598335E+03 0.34257086639E+03
 0.40839678833E+03 0.43281181794E+03 0.40839678833E+03 0.34257086639E+03 0.25412598335E+03
 0.16520010551E+03 0.93444323240E+02 0.47439048060E+02 0.25630817873E+02 0.18267898096E+02
 0.14330637733E+02 0.11718589879E+02 0.10138840207E+02 0.92307197887E+01 0.87283558381E+01
 0.84192506431E+01 0.82007953815E+01 0.77108579056E+01 0.78172895979E+01 0.80713951013E+01
 0.84192506431E+01 0.89965524047E+01 0.10073053855E+02 0.11958764300E+02 0.15039169580E+02
 0.19615040469E+02 0.31179343872E+02 0.64208558014E+02 0.12892055917E+03 0.22556796971E+03
 0.34257086639E+03 0.45760413756E+03 0.54279388559E+03 0.57433762350E+03 0.54279388559E+03
 0.45760413756E+03 0.34257086639E+03 0.22556796971E+03 0.12892055917E+03 0.64208558014E+02
 0.31179343872E+02 0.19615040469E+02 0.15039169580E+02 0.11958764300E+02 0.10073053855E+02
 0.89965524047E+01 0.84192506431E+01 0.80713951013E+01 0.78172895979E+01 0.74097495921E+01
 0.75313794132E+01 0.78172895979E+01 0.82007953815E+01 0.88394336515E+01 0.10041471128E+02
 0.12143188785E+02 0.15536347513E+02 0.20709800150E+02 0.36013744758E+02 0.77717083244E+02
 0.15626428595E+03 0.27102172199E+03 0.40839678833E+03 0.54279388559E+03 0.64215673459E+03
 0.67893484668E+03 0.64215673459E+03 0.54279388559E+03 0.40839678833E+03 0.27102172199E+03
 0.15626428595E+03 0.77717083244E+02 0.36013744758E+02 0.20709800150E+02 0.15536347513E+02
 0.12143188785E+02 0.10041471128E+02 0.88394336515E+01 0.82007953815E+01 0.78172895979E+01
 0.75313794132E+01 0.72812235311E+01 0.74097495921E+01 0.77108579056E+01 0.81121366693E+01
 0.87779079215E+01 0.10029349093E+02 0.12211009450E+02 0.15714788869E+02 0.21152120186E+02
 0.37938663515E+02 0.82902260801E+02 0.16655655776E+03 0.28795930807E+03 0.43281181794E+03
 0.57433762350E+03 0.67893484668E+03 0.71764975329E+03 0.67893484668E+03 0.57433762350E+03
 0.43281181794E+03 0.28795930807E+03 0.16655655776E+03 0.82902260801E+02 0.37938663515E+02
 0.21152120186E+02 0.15714788869E+02 0.12211009450E+02 0.10029349093E+02 0.87779079215E+01
 0.81121366693E+01 0.77108579056E+01 0.74097495921E+01 0.74097495921E+01 0.75313794132E+01
 0.78172895979E+01 0.82007953815E+01 0.88394336515E+01 0.10041471128E+02 0.12143188785E+02
 0.15536347513E+02 0.20709800150E+02 0.36013744758E+02 0.77717083244E+02 0.15626428595E+03
 0.27102172199E+03 0.40839678833E+03 0.54279388559E+03 0.64215673459E+03 0.67893484668E+03
 0.64215673459E+03 0.54279388559E+03 0.40839678833E+03 0.27102172199E+03 0.15626428595E+03
 0.77717083244E+02 0.36013744758E+02 0.20709800150E+02 0.15536347513E+02 0.12143188785E+02
 0.10041471128E+02 0.88394336515E+01 0.82007953815E+01 0.78172895979E+01 0.75313794132E+01
 0.77108579056E+01 0.78172895979E+01 0.80713951013E+01 0.84192506431E+01 0.89965524047E+01
 0.10073053855E+02 0.11958764300E+02 0.15039169580E+02 0.19615040469E+02 0.31179343872E+02
 0.64208558014E+02 0.12892055917E+03 0.22556796971E+03 0.34257086639E+03 0.45760413756E+03
 0.54279388559E+03 0.57433762350E+03 0.54279388559E+03 0.45760413756E+03 0.34257086639E+03
 0.22556796971E+03 0.12892055917E+03 0.64208558014E+02 0.31179343872E+02 0.19615040469E+02