    4    4    1    1
  0.1080677E+02  0.3509554E-09  0.3509554E-09  0.3509554E-09  0.5000000E-15
  1.000000000000000E-004
  CAR 
 unknown system                          
     44     35     30
 
  0.0000000E+00  0.0000000E+00  0.0000000E+00  0.1371742E-02
    1       -1.312541   1.000000
    2        3.312141   1.000000
    3        3.312141   1.000000
    4        3.312141   1.000000
    5        3.830293   1.000000
    6        3.830293   1.000000
    7        3.830293   1.000000
    8        5.430364   1.000000
    9        5.430364   1.000000
   10        5.430364   1.000000
   11        6.379238   1.000000
   12        6.379238   1.000000
   13        7.008888   1.000000
   14        7.008888   1.000000
   15        7.008888   1.000000
   16        7.187767   1.000000
   17        7.187767   1.000000
   18        7.187767   1.000000
   19        7.187767   1.000000
   20        7.187767   1.000000
   21        7.187767   1.000000
   22       10.170193  -0.000000
   23       10.170193  -0.000000
   24       10.170193  -0.000000
   25       16.498799   0.000000
   26       16.498799   0.000000
   27       16.498799   0.000000
   28       22.525079   0.000000
   29       22.525079   0.000000
   30       22.525079   0.000000
 
  0.1111111E+00  0.0000000E+00  0.0000000E+00  0.8230453E-02
    1       -1.152639   1.000000
    2        3.312695   1.000000
    3        3.390042   1.000000
    4        3.390042   1.000000
    5        3.875522   1.000000
    6        3.878630   1.000000
    7        3.878630   1.000000
    8        5.378965   1.000000
    9        5.470801   1.000000
   10        5.470801   1.000000
   11        6.332406   1.000000
   12        6.397742   1.000000
   13        6.885809   1.000000
   14        6.885809   1.000000
   15        6.948505   1.000000
   16        6.948505   1.000000
   17        6.989364   1.000000
   18        7.116887   1.000000
   19        7.116887   1.000000
   20        7.188042   1.000000
   21        7.188042   1.000000
   22        9.318001  -0.000248
   23       10.612165  -0.000000
   24       10.612165  -0.000000
   25       16.549114   0.000000
   26       16.549114   0.000000
   27       17.653114   0.000000
   28       21.571347   0.000000
   29       21.571347   0.000000
   30       21.927542   0.000000
 
  0.2222222E+00  0.0000000E+00  0.0000000E+00  0.8230453E-02
    1       -0.679878   1.000000
    2        3.255495   1.000000
    3        3.602230   1.000000
    4        3.602230   1.000000
    5        4.006621   1.000000
    6        4.024342   1.000000
    7        4.024342   1.000000
    8        5.231474   1.000000
    9        5.590029   1.000000
   10        5.590029   1.000000
   11        6.202468   1.000000
   12        6.273011   1.000000
   13        6.273011   1.000000
   14        6.451187   1.000000
   15        6.778347   1.000000
   16        6.778347   1.000000
   17        6.921644   1.000000
   18        6.921644   1.000000
   19        6.933402   1.000000
   20        7.188223   1.000000
   21        7.188223   1.000000
   22        7.754181   1.000000
   23       11.643022  -0.000000
   24       11.643022  -0.000000
   25       16.708241   0.000000
   26       16.708241   0.000000
   27       19.792374   0.000000
   28       19.792374   0.000000
   29       20.165850   0.000000
   30       20.693879   0.000000
 
  0.3333333E+00  0.0000000E+00  0.0000000E+00  0.8230453E-02
    1        0.080733   1.000000
    2        2.931645   1.000000
    3        3.883269   1.000000
    4        3.883269   1.000000
    5        4.210429   1.000000
    6        4.271098   1.000000
    7        4.271098   1.000000
    8        5.009557   1.000000
    9        5.640107   1.000000
   10        5.640107   1.000000
   11        5.783206   1.000000
   12        5.783206   1.000000
   13        6.023072   1.000000
   14        6.477800   1.000000
   15        6.533554   1.000000
   16        6.544378   1.000000
   17        6.544378   1.000000
   18        6.644681   1.000000
   19        6.644681   1.000000
   20        6.848073   1.000000
   21        7.188511   1.000000
   22        7.188511   1.000000
   23       12.967148  -0.000000
   24       12.967148  -0.000000
   25       16.995789   0.000000
   26       16.995789   0.000000
   27       17.930516   0.000000
   28       17.930516   0.000000
   29       19.470014   0.000000
   30       19.470014   0.000000
 
  0.4444444E+00  0.0000000E+00  0.0000000E+00  0.8230453E-02
    1        1.068202   1.000000
    2        2.128516   1.000000
    3        4.102742   1.000000
    4        4.102742   1.000000
    5        4.465466   1.000000
    6        4.622447   1.000000
    7        4.622447   1.000000
    8        4.742808   1.000000
    9        5.080610   1.000000
   10        5.080610   1.000000
   11        5.869090   1.000000
   12        5.909358   1.000000
   13        6.038369   1.000000
   14        6.038369   1.000000
   15        6.336061   1.000000
   16        6.336061   1.000000
   17        6.354774   1.000000
   18        6.354774   1.000000
   19        6.635398   1.000000
   20        6.744387   1.000000
   21        7.188676   1.000000
   22        7.188676   1.000000
   23       14.481096   0.000000
   24       14.481096   0.000000
   25       16.144715   0.000000
   26       16.144715   0.000000
   27       17.386889   0.000000
   28       17.386889   0.000000
   29       18.562351   0.000000
   30       18.562351   0.000000
 
  0.1111111E+00  0.1111111E+00  0.0000000E+00  0.1646091E-01
    1       -0.994055   1.000000
    2        3.393458   1.000000
    3        3.393458   1.000000
    4        3.464198   1.000000
    5        3.922210   1.000000
    6        3.922210   1.000000
    7        3.923672   1.000000
    8        5.350385   1.000000
    9        5.489724   1.000000
   10        5.503509   1.000000
   11        6.320246   1.000000
   12        6.389144   1.000000
   13        6.686324   1.000000
   14        6.757157   1.000000
   15        6.757157   1.000000
   16        6.892523   1.000000
   17        6.961902   1.000000
   18        6.961902   1.000000
   19        7.116712   1.000000
   20        7.116712   1.000000
   21        7.142395   1.000000
   22        9.756083  -0.000000
   23        9.756083  -0.000000
   24       10.997638  -0.000000
   25       16.596240   0.000000
   26       17.732594   0.000000
   27       17.732594   0.000000
   28       19.841467   0.000000
   29       21.786984   0.000000
   30       21.786984   0.000000
 
  0.2222222E+00  0.1111111E+00  0.0000000E+00  0.3292181E-01
    1       -0.525384   1.000000
    2        3.345811   1.000000
    3        3.615115   1.000000
    4        3.668593   1.000000
    5        4.048647   1.000000
    6        4.059093   1.000000
    7        4.063038   1.000000
    8        5.220985   1.000000
    9        5.597312   1.000000
   10        5.597554   1.000000
   11        6.144026   1.000000
   12        6.176232   1.000000
   13        6.214233   1.000000
   14        6.444829   1.000000
   15        6.452547   1.000000
   16        6.734471   1.000000
   17        6.788502   1.000000
   18        6.909675   1.000000
   19        6.920874   1.000000
   20        7.116120   1.000000
   21        7.118131   1.000000
   22        8.274388   1.001793
   23       10.702046  -0.000000
   24       11.951665  -0.000000
   25       16.710644   0.000000
   26       17.979308   0.000000
   27       17.992657   0.000000
   28       19.992825   0.000000
   29       20.263754   0.000000
   30       20.888019   0.000000
 
  0.3333333E+00  0.1111111E+00  0.0000000E+00  0.3292181E-01
    1        0.227784   1.000000
    2        3.036522   1.000000
    3        3.912532   1.000000
    4        3.944568   1.000000
    5        4.244993   1.000000
    6        4.280162   1.000000
    7        4.300895   1.000000
    8        5.011199   1.000000
    9        5.529659   1.000000
   10        5.600596   1.000000
   11        5.714355   1.000000
   12        5.786247   1.000000
   13        5.994419   1.000000
   14        6.090894   1.000000
   15        6.516176   1.000000
   16        6.547675   1.000000
   17        6.556235   1.000000
   18        6.643683   1.000000
   19        6.760166   1.000000
   20        7.112958   1.000000
   21        7.115143   1.000000
   22        7.235243   1.000000
   23       11.852894  -0.000000
   24       13.225783  -0.000000
   25       16.024324   0.000000
   26       17.253737   0.000000
   27       18.130820   0.000000
   28       18.390727   0.000000
   29       19.667261   0.000000
   30       21.436336   0.000000
 
  0.4444444E+00  0.1111111E+00  0.0000000E+00  0.3292181E-01
    1        1.203734   1.000000
    2        2.248932   1.000000
    3        4.154138   1.000000
    4        4.167832   1.000000
    5        4.490017   1.000000
    6        4.583089   1.000000
    7        4.638666   1.000000
    8        4.756285   1.000000
    9        4.999647   1.000000
   10        5.075304   1.000000
   11        5.700973   1.000000
   12        5.706738   1.000000
   13        6.039206   1.000000
   14        6.169078   1.000000
   15        6.335364   1.000000
   16        6.343998   1.000000
   17        6.360605   1.000000
   18        6.452960   1.000000
   19        6.680734   1.000000
   20        6.851952   1.000000
   21        7.112786   1.000000
   22        7.114005   1.000000
   23       13.130178  -0.000000
   24       14.525812   0.000000
   25       14.709183   0.000000
   26       16.354422   0.000000
   27       17.699214   0.000000
   28       18.371978   0.000000
   29       19.356857   0.000000
   30       20.250332   0.000000
 
  0.2222222E+00  0.2222222E+00  0.0000000E+00  0.1646091E-01
    1       -0.069762   1.000000
    2        3.596235   1.000000
    3        3.596235   1.000000
    4        3.850207   1.000000
    5        4.163490   1.000000
    6        4.174896   1.000000
    7        4.174896   1.000000
    8        5.152888   1.000000
    9        5.620373   1.000000
   10        5.658935   1.000000
   11        5.831795   1.000000
   12        5.831795   1.000000
   13        5.886408   1.000000
   14        6.178225   1.000000
   15        6.501829   1.000000
   16        6.607646   1.000000
   17        6.757289   1.000000
   18        6.757289   1.000000
   19        6.918802   1.000000
   20        6.918802   1.000000
   21        7.008555   1.000000
   22        9.141156  -0.009826
   23        9.141156  -0.009826
   24       12.774519  -0.000000
   25       15.720111   0.000000
   26       17.152347   0.000000
   27       20.514100   0.000000
   28       20.514100   0.000000
   29       20.572187   0.000000
   30       20.572187   0.000000
 
  0.3333333E+00  0.2222222E+00  0.0000000E+00  0.3292181E-01
    1        0.659453   1.000000
    2        3.329322   1.000000
    3        3.942325   1.000000
    4        4.103714   1.000000
    5        4.318579   1.000000
    6        4.347713   1.000000
    7        4.386601   1.000000
    8        4.999391   1.000000
    9        5.278415   1.000000
   10        5.476453   1.000000
   11        5.506819   1.000000
   12        5.626146   1.000000
   13        5.815197   1.000000
   14        6.107357   1.000000
   15        6.428292   1.000000
   16        6.538340   1.000000
   17        6.624366   1.000000
   18        6.641926   1.000000
   19        6.664877   1.000000
   20        6.916547   1.000000
   21        6.947335   1.000000
   22        7.930678   1.000000
   23       10.121955  -0.000000
   24       13.944925  -0.000000
   25       13.998444  -0.000000
   26       17.467155   0.000000
   27       18.709512   0.000000
   28       19.947242   0.000000
   29       21.298691   0.000000
   30       21.475864   0.000000
 
  0.4444444E+00  0.2222222E+00  0.0000000E+00  0.3292181E-01
    1        1.597346   1.000000
    2        2.591226   1.000000
    3        4.257432   1.000000
    4        4.348658   1.000000
    5        4.475471   1.000000
    6        4.561435   1.000000
    7        4.682568   1.000000
    8        4.789466   1.000000
    9        4.817867   1.000000
   10        5.054658   1.000000
   11        5.418371   1.000000
   12        5.529768   1.000000
   13        6.050659   1.000000
   14        6.177347   1.000000
   15        6.294461   1.000000
   16        6.337575   1.000000
   17        6.339331   1.000000
   18        6.394289   1.000000
   19        6.900929   1.000000
   20        6.916337   1.000000
   21        6.923290   1.000000
   22        7.256089   1.000000
   23       11.224140  -0.000000
   24       12.498006  -0.000000
   25       15.357491   0.000000
   26       16.957178   0.000000
   27       18.040982   0.000000
   28       18.872935   0.000000
   29       22.066596   0.000000
   30       22.640749   0.000000
 
  0.3333333E+00  0.3333333E+00  0.0000000E+00  0.1646091E-01
    1        1.342823   1.000000
    2        3.739779   1.000000
    3        3.739779   1.000000
    4        4.261467   1.000000
    5        4.431335   1.000000
    6        4.516261   1.000000
    7        4.516261   1.000000
    8        4.939647   1.000000
    9        5.108799   1.000000
   10        5.108799   1.000000
   11        5.267360   1.000000
   12        5.550602   1.000000
   13        5.912566   1.000000
   14        6.034518   1.000000
   15        6.290902   1.000000
   16        6.423460   1.000000
   17        6.423460   1.000000
   18        6.643866   1.000000
   19        6.643866   1.000000
   20        6.795312   1.000000
   21        6.918395   1.000000
   22        8.714276   0.665589
   23        8.714276   0.665589
   24       12.225222  -0.000000
   25       15.015279   0.000000
   26       17.908577   0.000000
   27       19.613512   0.000000
   28       19.613512   0.000000
   29       20.743899   0.000000
   30       20.743899   0.000000
 
  0.4444444E+00  0.3333333E+00  0.0000000E+00  0.3292181E-01
    1        2.204038   1.000000
    2        3.091142   1.000000
    3        4.127464   1.000000
    4        4.304145   1.000000
    5        4.605807   1.000000
    6        4.670394   1.000000
    7        4.742465   1.000000
    8        4.811088   1.000000
    9        4.822185   1.000000
   10        5.005559   1.000000
   11        5.201422   1.000000
   12        5.405238   1.000000
   13        6.054371   1.000000
   14        6.098673   1.000000
   15        6.183461   1.000000
   16        6.223367   1.000000
   17        6.235502   1.000000
   18        6.354816   1.000000
   19        6.658914   1.000000
   20        6.702243   1.000000
   21        7.274510   1.000000
   22        7.807738   1.000000
   23        9.635036  -0.000000
   24       10.778919  -0.000000
   25       16.349280   0.000000
   26       17.893280   0.000000
   27       18.584755   0.000000
   28       19.526989   0.000000
   29       20.785617   0.000000
   30       21.769726   0.000000
 
  0.4444444E+00  0.4444444E+00  0.0000000E+00  0.1646091E-01
    1        2.929716   1.000000
    2        3.624166   1.000000
    3        3.624166   1.000000
    4        4.041820   1.000000
    5        4.798411   1.000000
    6        4.798411   1.000000
    7        4.828853   1.000000
    8        4.860236   1.000000
    9        4.918238   1.000000
   10        5.043603   1.000000
   11        5.043603   1.000000
   12        5.269962   1.000000
   13        5.976502   1.000000
   14        6.060656   1.000000
   15        6.068637   1.000000
   16        6.068637   1.000000
   17        6.213633   1.000000
   18        6.407871   1.000000
   19        6.407871   1.000000
   20        6.520641   1.000000
   21        7.774636   1.000000
   22        8.505168   1.035393
   23        8.505168   1.035393
   24        9.456586  -0.000004
   25       17.613668   0.000000
   26       19.102255   0.000000
   27       19.102255   0.000000
   28       19.374190   0.000000
   29       20.433767   0.000000
   30       20.433768   0.000000
 
  0.1111111E+00  0.1111111E+00  0.1111111E+00  0.1097394E-01
    1       -0.836934   1.000000
    2        3.469793   1.000000
    3        3.469793   1.000000
    4        3.469793   1.000000
    5        3.965935   1.000000
    6        3.965935   1.000000
    7        3.965935   1.000000
    8        5.325933   1.000000
    9        5.518145   1.000000
   10        5.518145   1.000000
   11        6.348308   1.000000
   12        6.348308   1.000000
   13        6.577486   1.000000
   14        6.577486   1.000000
   15        6.577486   1.000000
   16        6.826849   1.000000
   17        6.826849   1.000000
   18        6.826849   1.000000
   19        7.126337   1.000000
   20        7.126337   1.000000
   21        7.126337   1.000000
   22       10.115756  -0.000000
   23       10.115756  -0.000000
   24       10.115756  -0.000000
   25       17.807739   0.000000
   26       17.807739   0.000000
   27       17.807739   0.000000
   28       20.047645   0.000000
   29       20.047645   0.000000
   30       20.047645   0.000000
 
  0.2222222E+00  0.1111111E+00  0.1111111E+00  0.3292181E-01
    1       -0.373001   1.000000
    2        3.428863   1.000000
    3        3.680598   1.000000
    4        3.680598   1.000000
    5        4.089041   1.000000
    6        4.097131   1.000000
    7        4.097131   1.000000
    8        5.212592   1.000000
    9        5.597767   1.000000
   10        5.603310   1.000000
   11        6.062133   1.000000
   12        6.062133   1.000000
   13        6.244361   1.000000
   14        6.257912   1.000000
   15        6.427754   1.000000
   16        6.655654   1.000000
   17        6.687597   1.000000
   18        6.687597   1.000000
   19        7.069087   1.000000
   20        7.099789   1.000000
   21        7.099789   1.000000
   22        8.607076   0.971830
   23       10.966236  -0.000000
   24       10.966236  -0.000000
   25       17.848177   0.000000
   26       17.848177   0.000000
   27       18.360044   0.000000
   28       18.360044   0.000000
   29       20.265660   0.000000
   30       20.739734   0.000000
 
  0.3333333E+00  0.1111111E+00  0.1111111E+00  0.3292181E-01
    1        0.371543   1.000000
    2        3.130829   1.000000
    3        3.968338   1.000000
    4        3.968338   1.000000
    5        4.280537   1.000000
    6        4.306941   1.000000
    7        4.306941   1.000000
    8        5.016859   1.000000
    9        5.509111   1.000000
   10        5.509111   1.000000
   11        5.689176   1.000000
   12        5.745759   1.000000
   13        5.825891   1.000000
   14        6.171949   1.000000
   15        6.424136   1.000000
   16        6.495207   1.000000
   17        6.495207   1.000000
   18        6.546957   1.000000
   19        6.968498   1.000000
   20        7.075896   1.000000
   21        7.075896   1.000000
   22        7.439560   1.000000
   23       12.049207  -0.000000
   24       12.049207  -0.000000
   25       16.335248   0.000000
   26       16.335248   0.000000
   27       18.611184   0.000000
   28       18.611184   0.000000
   29       21.487565   0.000000
   30       21.610129   0.000000
 
  0.4444444E+00  0.1111111E+00  0.1111111E+00  0.3292181E-01
    1        1.333793   1.000000
    2        2.360380   1.000000
    3        4.218587   1.000000
    4        4.218587   1.000000
    5        4.518451   1.000000
    6        4.554920   1.000000
    7        4.554920   1.000000
    8        4.774410   1.000000
    9        5.048628   1.000000
   10        5.048628   1.000000
   11        5.602684   1.000000
   12        5.643189   1.000000
   13        5.940275   1.000000
   14        6.174199   1.000000
   15        6.326428   1.000000
   16        6.326428   1.000000
   17        6.337630   1.000000
   18        6.689277   1.000000
   19        6.747297   1.000000
   20        6.836020   1.000000
   21        7.065470   1.000000
   22        7.065470   1.000000
   23       13.220785  -0.000000
   24       13.220785  -0.000000
   25       14.866194   0.000000
   26       14.866194   0.000000
   27       19.291111   0.000000
   28       19.291111   0.000000
   29       20.429318   0.000000
   30       20.429318   0.000000
 
  0.2222222E+00  0.2222222E+00  0.1111111E+00  0.3292181E-01
    1        0.075928   1.000000
    2        3.656728   1.000000
    3        3.656728   1.000000
    4        3.857037   1.000000
    5        4.200516   1.000000
    6        4.210731   1.000000
    7        4.210731   1.000000
    8        5.155712   1.000000
    9        5.617742   1.000000
   10        5.638860   1.000000
   11        5.773620   1.000000
   12        5.773620   1.000000
   13        5.801282   1.000000
   14        6.246734   1.000000
   15        6.471619   1.000000
   16        6.509804   1.000000
   17        6.535722   1.000000
   18        6.535722   1.000000
   19        7.044967   1.000000
   20        7.044967   1.000000
   21        7.046533   1.000000
   22        9.344073  -0.000124
   23        9.344073  -0.000124
   24       11.646850  -0.000000
   25       16.053673   0.000000
   26       18.440483   0.000000
   27       18.649636   0.000000
   28       18.649636   0.000000
   29       20.748251   0.000000
   30       20.748251   0.000000
 
  0.3333333E+00  0.2222222E+00  0.1111111E+00  0.6584362E-01
    1        0.792397   1.000000
    2        3.387645   1.000000
    3        3.965441   1.000000
    4        4.095014   1.000000
    5        4.351332   1.000000
    6        4.390190   1.000000
    7        4.401391   1.000000
    8        5.019749   1.000000
    9        5.303101   1.000000
   10        5.436956   1.000000
   11        5.476560   1.000000
   12        5.619632   1.000000
   13        5.733326   1.000000
   14        6.232974   1.000000
   15        6.310966   1.000000
   16        6.344517   1.000000
   17        6.396289   1.000000
   18        6.637168   1.000000
   19        6.931657   1.000000
   20        6.982021   1.000000
   21        6.983334   1.000000
   22        8.030043   1.000002
   23       10.256826  -0.000000
   24       12.495417  -0.000000
   25       14.426690   0.000000
   26       16.913505   0.000000
   27       18.948987   0.000000
   28       19.533309   0.000000
   29       21.251647   0.000000
   30       22.175064   0.000000
 
  0.4444444E+00  0.2222222E+00  0.1111111E+00  0.6584362E-01
    1        1.708933   1.000000
    2        2.672248   1.000000
    3        4.262137   1.000000
    4        4.350763   1.000000
    5        4.427768   1.000000
    6        4.535118   1.000000
    7        4.606311   1.000000
    8        4.825870   1.000000
    9        5.013844   1.000000
   10        5.120529   1.000000
   11        5.404622   1.000000
   12        5.519077   1.000000
   13        5.877448   1.000000
   14        6.076383   1.000000
   15        6.222799   1.000000
   16        6.249125   1.000000
   17        6.408467   1.000000
   18        6.713233   1.000000
   19        6.865098   1.000000
   20        6.944733   1.000000
   21        6.945386   1.000000
   22        7.239011   1.000000
   23       11.297843  -0.000000
   24       12.401281  -0.000000
   25       14.201430  -0.000000
   26       15.399861   0.000000
   27       19.721968   0.000000
   28       20.672105   0.000000
   29       20.745766   0.000000
   30       22.039325   0.000000
 
  0.3333333E+00  0.3333333E+00  0.1111111E+00  0.3292181E-01
    1        1.454320   1.000000
    2        3.723860   1.000000
    3        3.723860   1.000000
    4        4.172882   1.000000
    5        4.495881   1.000000
    6        4.573570   1.000000
    7        4.573570   1.000000
    8        4.986766   1.000000
    9        5.162510   1.000000
   10        5.162510   1.000000
   11        5.307828   1.000000
   12        5.552713   1.000000
   13        5.753341   1.000000
   14        6.178804   1.000000
   15        6.208127   1.000000
   16        6.208127   1.000000
   17        6.229012   1.000000
   18        6.834598   1.000000
   19        6.834598   1.000000
   20        6.874442   1.000000
   21        6.881403   1.000000
   22        8.771557   0.427212
   23        8.771557   0.427212
   24       12.058077  -0.000000
   25       13.978961  -0.000000
   26       17.769627   0.000000
   27       17.769627   0.000000
   28       19.528219   0.000000
   29       21.814251   0.000000
   30       22.814466   0.000000
 
  0.4444444E+00  0.3333333E+00  0.1111111E+00  0.6584362E-01
    1        2.277955   1.000000
    2        3.110538   1.000000
    3        4.011844   1.000000
    4        4.157669   1.000000
    5        4.661158   1.000000
    6        4.735177   1.000000
    7        4.756982   1.000000
    8        4.897718   1.000000
    9        5.019871   1.000000
   10        5.152048   1.000000
   11        5.230425   1.000000
   12        5.415677   1.000000
   13        5.829668   1.000000
   14        5.994548   1.000000
   15        6.069558   1.000000
   16        6.095038   1.000000
   17        6.356668   1.000000
   18        6.607317   1.000000
   19        6.775163   1.000000
   20        6.791249   1.000000
   21        7.232249   1.000000
   22        7.789140   1.000000
   23        9.663864  -0.000000
   24       10.769566  -0.000000
   25       14.940267   0.000000
   26       16.235793   0.000000
   27       18.884166   0.000000
   28       20.235180   0.000000
   29       20.374595   0.000000
   30       21.490047   0.000000
 
  0.4444444E+00  0.4444444E+00  0.1111111E+00  0.3292181E-01
    1        2.939516   1.000000
    2        3.552250   1.000000
    3        3.552250   1.000000
    4        3.899984   1.000000
    5        4.904134   1.000000
    6        4.943032   1.000000
    7        4.943032   1.000000
    8        4.957289   1.000000
    9        5.102217   1.000000
   10        5.102217   1.000000
   11        5.115136   1.000000
   12        5.295612   1.000000
   13        5.811904   1.000000
   14        5.915606   1.000000
   15        5.915606   1.000000
   16        5.933646   1.000000
   17        6.395260   1.000000
   18        6.567133   1.000000
   19        6.567133   1.000000
   20        6.641519   1.000000
   21        7.731052   1.000000
   22        8.483750   1.033352
   23        8.483750   1.033352
   24        9.442813  -0.000006
   25       16.014053   0.000000
   26       17.331308   0.000000
   27       17.331308   0.000000
   28       18.665759   0.000000
   29       21.296391   0.000000
   30       22.486154   0.000000
 
  0.2222222E+00  0.2222222E+00  0.2222222E+00  0.1097394E-01
    1        0.503160   1.000000
    2        3.807841   1.000000
    3        3.807841   1.000000
    4        3.807841   1.000000
    5        4.324632   1.000000
    6        4.324632   1.000000
    7        4.324632   1.000000
    8        5.143158   1.000000
    9        5.588021   1.000000
   10        5.588021   1.000000
   11        5.588021   1.000000
   12        5.617180   1.000000
   13        5.617180   1.000000
   14        6.305111   1.000000
   15        6.305111   1.000000
   16        6.305111   1.000000
   17        6.409011   1.000000
   18        6.409011   1.000000
   19        7.081373   1.000000
   20        7.081373   1.000000
   21        7.081373   1.000000
   22        9.877052  -0.000000
   23        9.877052  -0.000000
   24        9.877052  -0.000000
   25       16.649572   0.000000
   26       16.649572   0.000000
   27       16.649572   0.000000
   28       21.092441   0.000000
   29       21.092441   0.000000
   30       21.092441   0.000000
 
  0.3333333E+00  0.2222222E+00  0.2222222E+00  0.3292181E-01
    1        1.177665   1.000000
    2        3.527008   1.000000
    3        3.979376   1.000000
    4        3.979376   1.000000
    5        4.497946   1.000000
    6        4.497946   1.000000
    7        4.529206   1.000000
    8        5.075940   1.000000
    9        5.355013   1.000000
   10        5.355013   1.000000
   11        5.388327   1.000000
   12        5.595176   1.000000
   13        5.641357   1.000000
   14        6.080885   1.000000
   15        6.158013   1.000000
   16        6.158013   1.000000
   17        6.426749   1.000000
   18        6.605556   1.000000
   19        7.027590   1.000000
   20        7.027590   1.000000
   21        7.052549   1.000000
   22        8.375914   1.011159
   23       10.596706  -0.000000
   24       10.596706  -0.000000
   25       14.965073   0.000000
   26       14.965073   0.000000
   27       17.512631   0.000000
   28       21.567673   0.000000
   29       21.677917   0.000000
   30       21.677917   0.000000
 
  0.4444444E+00  0.2222222E+00  0.2222222E+00  0.3292181E-01
    1        2.022852   1.000000
    2        2.885087   1.000000
    3        4.104103   1.000000
    4        4.104103   1.000000
    5        4.607827   1.000000
    6        4.607827   1.000000
    7        4.754823   1.000000
    8        4.943656   1.000000
    9        5.240533   1.000000
   10        5.240533   1.000000
   11        5.363578   1.000000
   12        5.484469   1.000000
   13        5.729114   1.000000
   14        5.879921   1.000000
   15        6.055630   1.000000
   16        6.055630   1.000000
   17        6.701299   1.000000
   18        6.796624   1.000000
   19        6.953163   1.000000
   20        6.968797   1.000000
   21        6.968797   1.000000
   22        7.325664   1.000000
   23       11.291991  -0.000000
   24       11.291991  -0.000000
   25       13.788078  -0.000000
   26       13.788078  -0.000000
   27       18.631378   0.000000
   28       19.985572   0.000000
   29       22.480442   0.000000
   30       22.480442   0.000000
 
  0.3333333E+00  0.3333333E+00  0.2222222E+00  0.3292181E-01
    1        1.769036   1.000000
    2        3.672095   1.000000
    3        3.672095   1.000000
    4        3.937533   1.000000
    5        4.682590   1.000000
    6        4.745654   1.000000
    7        4.745654   1.000000