 vasp.6.2.0 18Jan21 (build Mar 17 2021 09:06:54) complex                        
  
 POSCAR found type information on POSCAR Cu
 POSCAR found :  1 types and       4 ions
 LDA part: xc-table for Pade appr. of Perdew
 found WAVECAR, reading the header
 POSCAR, INCAR and KPOINTS ok, starting setup
 FFT: planning ...
 reading WAVECAR
 the WAVECAR file was read successfully
 charge-density read from file: unknown                                 
 entering main loop
       N       E                     dE             d eps       ncg     rms          rms(c)
DAV:   1    -0.146904755556E+02   -0.14690E+02   -0.13945E-04  2328   0.610E-01    0.836E-03
DAV:   2    -0.146884590371E+02    0.20165E-02   -0.14569E-04  2312   0.635E-01    0.826E-03
DAV:   3    -0.146884572605E+02    0.17766E-05   -0.39026E-06  1912   0.351E-02    0.310E-03
DAV:   4    -0.146884571561E+02    0.10436E-06   -0.44922E-07  1140   0.964E-03
   1 F= -.14688457E+02 E0= -.14688532E+02  d E =0.223507E-03
 writing wavefunctions
