unknown system                          
   1.00000000000000     
     3.635000    0.000000    0.000000
     0.000000    3.635000    0.000000
     0.000000    0.000000    3.635000
   Cu
     4
Direct
  0.000000  0.000000  0.000000
  0.500000  0.500000  0.000000
  0.500000  0.000000  0.500000
  0.000000  0.500000  0.500000
 
   32   32   32
 0.84512422380E+03 0.79649916289E+03 0.66603602600E+03 0.49196075763E+03 0.31758424838E+03
 0.17589664980E+03 0.82669948703E+02 0.36194006041E+02 0.20754967650E+02 0.15222373344E+02
 0.11616007129E+02 0.93751578827E+01 0.80783364973E+01 0.74308692432E+01 0.70300259816E+01
 0.66523014216E+01 0.64697615765E+01 0.66523014216E+01 0.70300259816E+01 0.74308692432E+01
 0.80783364973E+01 0.93751578827E+01 0.11616007129E+02 0.15222373344E+02 0.20754967650E+02
 0.36194006041E+02 0.82669948703E+02 0.17589664980E+03 0.31758424838E+03 0.49196075763E+03
 0.66603602600E+03 0.79649916289E+03 0.79649916289E+03 0.75047536522E+03 0.62698914030E+03
 0.46227781949E+03 0.29752289862E+03 0.16416370938E+03 0.77111831194E+02 0.34346569636E+02
 0.20362376421E+02 0.15024757816E+02 0.11541866354E+02 0.93917398536E+01 0.81549499424E+01
 0.75422871863E+01 0.71691654349E+01 0.68206330754E+01 0.66523014216E+01 0.68206330754E+01
 0.71691654349E+01 0.75422871863E+01 0.81549499424E+01 0.93917398536E+01 0.11541866354E+02
 0.15024757816E+02 0.20362376421E+02 0.34346569636E+02 0.77111831194E+02 0.16416370938E+03
 0.29752289862E+03 0.46227781949E+03 0.62698914030E+03 0.75047536522E+03 0.66603602600E+03
 0.62698914030E+03 0.52225702919E+03 0.38280946785E+03 0.24410243304E+03 0.13329062035E+03
 0.62826769345E+02 0.29799687942E+02 0.19344563030E+02 0.14481694348E+02 0.11344159827E+02
 0.94326409942E+01 0.83382976177E+01 0.77913619702E+01 0.74627709635E+01 0.71691654349E+01
 0.70300259816E+01 0.71691654349E+01 0.74627709635E+01 0.77913619702E+01 0.83382976177E+01
 0.94326409942E+01 0.11344159827E+02 0.14481694348E+02 0.19344563030E+02 0.29799687942E+02
 0.62826769345E+02 0.13329062035E+03 0.24410243304E+03 0.38280946785E+03 0.52225702919E+03
 0.62698914030E+03 0.49196075763E+03 0.46227781949E+03 0.38280946785E+03 0.27759240419E+03
 0.17432328986E+03 0.94067969470E+02 0.45617490330E+02 0.24785361768E+02 0.17907893555E+02
 0.13727169540E+02 0.11096777188E+02 0.95095398790E+01 0.85870093682E+01 0.80960696894E+01
 0.77913619702E+01 0.75422871863E+01 0.74308692432E+01 0.75422871863E+01 0.77913619702E+01
 0.80960696894E+01 0.85870093682E+01 0.95095398790E+01 0.11096777188E+02 0.13727169540E+02
 0.17907893555E+02 0.24785361768E+02 0.45617490330E+02 0.94067969470E+02 0.17432328986E+03
 0.27759240419E+03 0.38280946785E+03 0.46227781949E+03 0.31758424838E+03 0.29752289862E+03
 0.24410243304E+03 0.17432328986E+03 0.10769813692E+03 0.58531913576E+02 0.31441936864E+02
 0.21020118423E+02 0.16248390677E+02 0.12938902704E+02 0.10909629664E+02 0.96984168870E+01
 0.89858677374E+01 0.85870093682E+01 0.83382976177E+01 0.81549499424E+01 0.80783364973E+01
 0.81549499424E+01 0.83382976177E+01 0.85870093682E+01 0.89858677374E+01 0.96984168870E+01
 0.10909629664E+02 0.12938902704E+02 0.16248390677E+02 0.21020118423E+02 0.31441936864E+02
 0.58531913576E+02 0.10769813692E+03 0.17432328986E+03 0.24410243304E+03 0.29752289862E+03
 0.17589664980E+03 0.16416370938E+03 0.13329062035E+03 0.94067969470E+02 0.58531913576E+02
 0.34621027580E+02 0.23149045814E+02 0.18216382620E+02 0.14650189749E+02 0.12291060004E+02
 0.10899640429E+02 0.10115044386E+02 0.96984168870E+01 0.95095398790E+01 0.94326409942E+01
 0.93917398536E+01 0.93751578827E+01 0.93917398536E+01 0.94326409942E+01 0.95095398790E+01
 0.96984168870E+01 0.10115044386E+02 0.10899640429E+02 0.12291060004E+02 0.14650189749E+02
 0.18216382620E+02 0.23149045814E+02 0.34621027580E+02 0.58531913576E+02 0.94067969470E+02
 0.13329062035E+03 0.16416370938E+03 0.82669948703E+02 0.77111831194E+02 0.62826769345E+02
 0.45617490330E+02 0.31441936864E+02 0.23149045814E+02 0.18950613346E+02 0.15706928648E+02
 0.13362146348E+02 0.11927205168E+02 0.11184806181E+02 0.10899640429E+02 0.10909629664E+02
 0.11096777188E+02 0.11344159827E+02 0.11541866354E+02 0.11616007129E+02 0.11541866354E+02
 0.11344159827E+02 0.11096777188E+02 0.10909629664E+02 0.10899640429E+02 0.11184806181E+02
 0.11927205168E+02 0.13362146348E+02 0.15706928648E+02 0.18950613346E+02 0.23149045814E+02
 0.31441936864E+02 0.45617490330E+02 0.62826769345E+02 0.77111831194E+02 0.36194006041E+02
 0.34346569636E+02 0.29799687942E+02 0.24785361768E+02 0.21020118423E+02 0.18216382620E+02
 0.15706928648E+02 0.13773792098E+02 0.12543853131E+02 0.11969374484E+02 0.11927205168E+02
 0.12291060004E+02 0.12938902704E+02 0.13727169540E+02 0.14481694348E+02 0.15024757816E+02
 0.15222373344E+02 0.15024757816E+02 0.14481694348E+02 0.13727169540E+02 0.12938902704E+02
 0.12291060004E+02 0.11927205168E+02 0.11969374484E+02 0.12543853131E+02 0.13773792098E+02
 0.15706928648E+02 0.18216382620E+02 0.21020118423E+02 0.24785361768E+02 0.29799687942E+02
 0.34346569636E+02 0.20754967650E+02 0.20362376421E+02 0.19344563030E+02 0.17907893555E+02
 0.16248390677E+02 0.14650189749E+02 0.13362146348E+02 0.12543853131E+02 0.12265591823E+02
 0.12543853131E+02 0.13362146348E+02 0.14650189749E+02 0.16248390677E+02 0.17907893555E+02
 0.19344563030E+02 0.20362376421E+02 0.20754967650E+02 0.20362376421E+02 0.19344563030E+02
 0.17907893555E+02 0.16248390677E+02 0.14650189749E+02 0.13362146348E+02 0.12543853131E+02
 0.12265591823E+02 0.12543853131E+02 0.13362146348E+02 0.14650189749E+02 0.16248390677E+02
 0.17907893555E+02 0.19344563030E+02 0.20362376421E+02 0.15222373344E+02 0.15024757816E+02
 0.14481694348E+02 0.13727169540E+02 0.12938902704E+02 0.12291060004E+02 0.11927205168E+02
 0.11969374484E+02 0.12543853131E+02 0.13773792098E+02 0.15706928648E+02 0.18216382620E+02
 0.21020118423E+02 0.24785361768E+02 0.29799687942E+02 0.34346569636E+02 0.36194006041E+02
 0.34346569636E+02 0.29799687942E+02 0.24785361768E+02 0.21020118423E+02 0.18216382620E+02
 0.15706928648E+02 0.13773792098E+02 0.12543853131E+02 0.11969374484E+02 0.11927205168E+02
 0.12291060004E+02 0.12938902704E+02 0.13727169540E+02 0.14481694348E+02 0.15024757816E+02
 0.11616007129E+02 0.11541866354E+02 0.11344159827E+02 0.11096777188E+02 0.10909629664E+02
 0.10899640429E+02 0.11184806181E+02 0.11927205168E+02 0.13362146348E+02 0.15706928648E+02
 0.18950613346E+02 0.23149045814E+02 0.31441936864E+02 0.45617490330E+02 0.62826769345E+02
 0.77111831194E+02 0.82669948703E+02 0.77111831194E+02 0.62826769345E+02 0.45617490330E+02
 0.31441936864E+02 0.23149045814E+02 0.18950613346E+02 0.15706928648E+02 0.13362146348E+02
 0.11927205168E+02 0.11184806181E+02 0.10899640429E+02 0.10909629664E+02 0.11096777188E+02
 0.11344159827E+02 0.11541866354E+02 0.93751578827E+01 0.93917398536E+01 0.94326409942E+01
 0.95095398790E+01 0.96984168870E+01 0.10115044386E+02 0.10899640429E+02 0.12291060004E+02
 0.14650189749E+02 0.18216382620E+02 0.23149045814E+02 0.34621027580E+02 0.58531913576E+02
 0.94067969470E+02 0.13329062035E+03 0.16416370938E+03 0.17589664980E+03 0.16416370938E+03
 0.13329062035E+03 0.94067969470E+02 0.58531913576E+02 0.34621027580E+02 0.23149045814E+02
 0.18216382620E+02 0.14650189749E+02 0.12291060004E+02 0.10899640429E+02 0.10115044386E+02
 0.96984168870E+01 0.95095398790E+01 0.94326409942E+01 0.93917398536E+01 0.80783364973E+01
 0.81549499424E+01 0.83382976177E+01 0.85870093682E+01 0.89858677374E+01 0.96984168870E+01
 0.10909629664E+02 0.12938902704E+02 0.16248390677E+02 0.21020118423E+02 0.31441936864E+02
 0.58531913576E+02 0.10769813692E+03 0.17432328986E+03 0.24410243304E+03 0.29752289862E+03
 0.31758424838E+03 0.29752289862E+03 0.24410243304E+03 0.17432328986E+03 0.10769813692E+03
 0.58531913576E+02 0.31441936864E+02 0.21020118423E+02 0.16248390677E+02 0.12938902704E+02
 0.10909629664E+02 0.96984168870E+01 0.89858677374E+01 0.85870093682E+01 0.83382976177E+01
 0.81549499424E+01 0.74308692432E+01 0.75422871863E+01 0.77913619702E+01 0.80960696894E+01
 0.85870093682E+01 0.95095398790E+01 0.11096777188E+02 0.13727169540E+02 0.17907893555E+02
 0.24785361768E+02 0.45617490330E+02 0.94067969470E+02 0.17432328986E+03 0.27759240419E+03
 0.38280946785E+03 0.46227781949E+03 0.49196075763E+03 0.46227781949E+03 0.38280946785E+03
 0.27759240419E+03 0.17432328986E+03 0.94067969470E+02 0.45617490330E+02 0.24785361768E+02
 0.17907893555E+02 0.13727169540E+02 0.11096777188E+02 0.95095398790E+01 0.85870093682E+01
 0.80960696894E+01 0.77913619702E+01 0.75422871863E+01 0.70300259816E+01 0.71691654349E+01
 0.74627709635E+01 0.77913619702E+01 0.83382976177E+01 0.94326409942E+01 0.11344159827E+02
 0.14481694348E+02 0.19344563030E+02 0.29799687942E+02 0.62826769345E+02 0.13329062035E+03
 0.24410243304E+03 0.38280946785E+03 0.52225702919E+03 0.62698914030E+03 0.66603602600E+03
 0.62698914030E+03 0.52225702919E+03 0.38280946785E+03 0.24410243304E+03 0.13329062035E+03
 0.62826769345E+02 0.29799687942E+02 0.19344563030E+02 0.14481694348E+02 0.11344159827E+02
 0.94326409942E+01 0.83382976177E+01 0.77913619702E+01 0.74627709635E+01 0.71691654349E+01
 0.66523014216E+01 0.68206330754E+01 0.71691654349E+01 0.75422871863E+01 0.81549499424E+01
 0.93917398536E+01 0.11541866354E+02 0.15024757816E+02 0.20362376421E+02 0.34346569636E+02
 0.77111831194E+02 0.16416370938E+03 0.29752289862E+03 0.46227781949E+03 0.62698914030E+03
 0.75047536522E+03 0.79649916289E+03 0.75047536522E+03 0.62698914030E+03 0.46227781949E+03
 0.29752289862E+03 0.16416370938E+03 0.77111831194E+02 0.34346569636E+02 0.20362376421E+02
 0.15024757816E+02 0.11541866354E+02 0.93917398536E+01 0.81549499424E+01 0.75422871863E+01
 0.71691654349E+01 0.68206330754E+01 0.64697615765E+01 0.66523014216E+01 0.70300259816E+01
 0.74308692432E+01 0.80783364973E+01 0.93751578827E+01 0.11616007129E+02 0.15222373344E+02
 0.20754967650E+02 0.36194006041E+02 0.82669948703E+02 0.17589664980E+03 0.31758424838E+03
 0.49196075763E+03 0.66603602600E+03 0.79649916289E+03 0.84512422380E+03 0.79649916289E+03
 0.66603602600E+03 0.49196075763E+03 0.31758424838E+03 0.17589664980E+03 0.82669948703E+02
 0.36194006041E+02 0.20754967650E+02 0.15222373344E+02 0.11616007129E+02 0.93751578827E+01
 0.80783364973E+01 0.74308692432E+01 0.70300259816E+01 0.66523014216E+01 0.66523014216E+01
 0.68206330754E+01 0.71691654349E+01 0.75422871863E+01 0.81549499424E+01 0.93917398536E+01
 0.11541866354E+02 0.15024757816E+02 0.20362376421E+02 0.34346569636E+02 0.77111831194E+02
 0.16416370938E+03 0.29752289862E+03 0.46227781949E+03 0.62698914030E+03 0.75047536522E+03
 0.79649916289E+03 0.75047536522E+03 0.62698914030E+03 0.46227781949E+03 0.29752289862E+03
 0.16416370938E+03 0.77111831194E+02 0.34346569636E+02 0.20362376421E+02 0.15024757816E+02
 0.11541866354E+02 0.93917398536E+01 0.81549499424E+01 0.75422871863E+01 0.71691654349E+01
 0.68206330754E+01 0.70300259816E+01 0.71691654349E+01 0.74627709635E+01 0.77913619702E+01
 0.83382976177E+01 0.94326409942E+01 0.11344159827E+02 0.14481694348E+02 0.19344563030E+02
 0.29799687942E+02 0.62826769345E+02 0.13329062035E+03 0.24410243304E+03 0.38280946785E+03
 0.52225702919E+03 0.62698914030E+03 0.66603602600E+03 0.62698914030E+03 0.52225702919E+03
 0.38280946785E+03 0.24410243304E+03 0.13329062035E+03 0.62826769345E+02 0.29799687942E+02
 0.19344563030E+02 0.14481694348E+02 0.11344159827E+02 0.94326409942E+01 0.83382976177E+01
 0.77913619702E+01 0.74627709635E+01 0.71691654349E+01 0.74308692432E+01 0.75422871863E+01
 0.77913619702E+01 0.80960696894E+01 0.85870093682E+01 0.95095398790E+01 0.11096777188E+02
 0.13727169540E+02 0.17907893555E+02 0.24785361768E+02 0.45617490330E+02 0.94067969470E+02
 0.17432328986E+03 0.27759240419E+03 0.38280946785E+03 0.46227781949E+03 0.49196075763E+03
 0.46227781949E+03 0.38280946785E+03 0.27759240419E+03 0.17432328986E+03 0.94067969470E+02
 0.45617490330E+02 0.24785361768E+02 0.17907893555E+02 0.13727169540E+02 0.11096777188E+02
 0.95095398790E+01 0.85870093682E+01 0.80960696894E+01 0.77913619702E+01 0.75422871863E+01
 0.80783364973E+01 0.81549499424E+01 0.83382976177E+01 0.85870093682E+01 0.89858677374E+01
 0.96984168870E+01 0.10909629664E+02 0.12938902704E+02 0.16248390677E+02 0.21020118423E+02
 0.31441936864E+02 0.58531913576E+02 0.10769813692E+03 0.17432328986E+03 0.24410243304E+03
 0.29752289862E+03 0.31758424838E+03 0.29752289862E+03 0.24410243304E+03 0.17432328986E+03
 0.10769813692E+03 0.58531913576E+02 0.31441936864E+02 0.21020118423E+02 0.16248390677E+02
 0.12938902704E+02 0.10909629664E+02 0.96984168870E+01 0.89858677374E+01 0.85870093682E+01
 0.83382976177E+01 0.81549499424E+01 0.93751578827E+01 0.93917398536E+01 0.94326409942E+01
 0.95095398790E+01 0.96984168870E+01 0.10115044386E+02 0.10899640429E+02 0.12291060004E+02
 0.14650189749E+02 0.18216382620E+02 0.23149045814E+02 0.34621027580E+02 0.58531913576E+02
 0.94067969470E+02 0.13329062035E+03 0.16416370938E+03 0.17589664980E+03 0.16416370938E+03
 0.13329062035E+03 0.94067969470E+02 0.58531913576E+02 0.34621027580E+02 0.23149045814E+02
 0.18216382620E+02 0.14650189749E+02 0.12291060004E+02 0.10899640429E+02 0.10115044386E+02
 0.96984168870E+01 0.95095398790E+01 0.94326409942E+01 0.93917398536E+01 0.11616007129E+02
 0.11541866354E+02 0.11344159827E+02 0.11096777188E+02 0.10909629664E+02 0.10899640429E+02
 0.11184806181E+02 0.11927205168E+02 0.13362146348E+02 0.15706928648E+02 0.18950613346E+02
 0.23149045814E+02 0.31441936864E+02 0.45617490330E+02 0.62826769345E+02 0.77111831194E+02
 0.82669948703E+02 0.77111831194E+02 0.62826769345E+02 0.45617490330E+02 0.31441936864E+02
 0.23149045814E+02 0.18950613346E+02 0.15706928648E+02 0.13362146348E+02 0.11927205168E+02
 0.11184806181E+02 0.10899640429E+02 0.10909629664E+02 0.11096777188E+02 0.11344159827E+02
 0.11541866354E+02 0.15222373344E+02 0.15024757816E+02 0.14481694348E+02 0.13727169540E+02
 0.12938902704E+02 0.12291060004E+02 0.11927205168E+02 0.11969374484E+02 0.12543853131E+02
 0.13773792098E+02 0.15706928648E+02 0.18216382620E+02 0.21020118423E+02 0.24785361768E+02
 0.29799687942E+02 0.34346569636E+02 0.36194006041E+02 0.34346569636E+02 0.29799687942E+02
 0.24785361768E+02 0.21020118423E+02 0.18216382620E+02 0.15706928648E+02 0.13773792098E+02
 0.12543853131E+02 0.11969374484E+02 0.11927205168E+02 0.12291060004E+02 0.12938902704E+02
 0.13727169540E+02 0.14481694348E+02 0.15024757816E+02 0.20754967650E+02 0.20362376421E+02
 0.19344563030E+02 0.17907893555E+02 0.16248390677E+02 0.14650189749E+02 0.13362146348E+02
 0.12543853131E+02 0.12265591823E+02 0.12543853131E+02 0.13362146348E+02 0.14650189749E+02
 0.16248390677E+02 0.17907893555E+02 0.19344563030E+02 0.20362376421E+02 0.20754967650E+02
 0.20362376421E+02 0.19344563030E+02 0.17907893555E+02 0.16248390677E+02 0.14650189749E+02
 0.13362146348E+02 0.12543853131E+02 0.12265591823E+02 0.12543853131E+02 0.13362146348E+02
 0.14650189749E+02 0.16248390677E+02 0.17907893555E+02 0.19344563030E+02 0.20362376421E+02
 0.36194006041E+02 0.34346569636E+02 0.29799687942E+02 0.24785361768E+02 0.21020118423E+02
 0.18216382620E+02 0.15706928648E+02 0.13773792098E+02 0.12543853131E+02 0.11969374484E+02
 0.11927205168E+02 0.12291060004E+02 0.12938902704E+02 0.13727169540E+02 0.14481694348E+02
 0.15024757816E+02 0.15222373344E+02 0.15024757816E+02 0.14481694348E+02 0.13727169540E+02
 0.12938902704E+02 0.12291060004E+02 0.11927205168E+02 0.11969374484E+02 0.12543853131E+02
 0.13773792098E+02 0.15706928648E+02 0.18216382620E+02 0.21020118423E+02 0.24785361768E+02
 0.29799687942E+02 0.34346569636E+02 0.82669948703E+02 0.77111831194E+02 0.62826769345E+02
 0.45617490330E+02 0.31441936864E+02 0.23149045814E+02 0.18950613346E+02 0.15706928648E+02
 0.13362146348E+02 0.11927205168E+02 0.11184806181E+02 0.10899640429E+02 0.10909629664E+02
 0.11096777188E+02 0.11344159827E+02 0.11541866354E+02 0.11616007129E+02 0.11541866354E+02
 0.11344159827E+02 0.11096777188E+02 0.10909629664E+02 0.10899640429E+02 0.11184806181E+02
 0.11927205168E+02 0.13362146348E+02 0.15706928648E+02 0.18950613346E+02 0.23149045814E+02
 0.31441936864E+02 0.45617490330E+02 0.62826769345E+02 0.77111831194E+02 0.17589664980E+03
 0.16416370938E+03 0.13329062035E+03 0.94067969470E+02 0.58531913576E+02 0.34621027580E+02
 0.23149045814E+02 0.18216382620E+02 0.14650189749E+02 0.12291060004E+02 0.10899640429E+02
 0.10115044386E+02 0.96984168870E+01 0.95095398790E+01 0.94326409942E+01 0.93917398536E+01
 0.93751578827E+01 0.93917398536E+01 0.94326409942E+01 0.95095398790E+01 0.96984168870E+01
 0.10115044386E+02 0.10899640429E+02 0.12291060004E+02 0.14650189749E+02 0.18216382620E+02
 0.23149045814E+02 0.34621027580E+02 0.58531913576E+02 0.94067969470E+02 0.13329062035E+03
 0.16416370938E+03 0.31758424838E+03 0.29752289862E+03 0.24410243304E+03 0.17432328986E+03
 0.10769813692E+03 0.58531913576E+02 0.31441936864E+02 0.21020118423E+02 0.16248390677E+02
 0.12938902704E+02 0.10909629664E+02 0.96984168870E+01 0.89858677374E+01 0.85870093682E+01
 0.83382976177E+01 0.81549499424E+01 0.80783364973E+01 0.81549499424E+01 0.83382976177E+01
 0.85870093682E+01 0.89858677374E+01 0.96984168870E+01 0.10909629664E+02 0.12938902704E+02
 0.16248390677E+02 0.21020118423E+02 0.31441936864E+02 0.58531913576E+02 0.10769813692E+03
 0.17432328986E+03 0.24410243304E+03 0.29752289862E+03 0.49196075763E+03 0.46227781949E+03
 0.38280946785E+03 0.27759240419E+03 0.17432328986E+03 0.94067969470E+02 0.45617490330E+02
 0.24785361768E+02 0.17907893555E+02 0.13727169540E+02 0.11096777188E+02 0.95095398790E+01
 0.85870093682E+01 0.80960696894E+01 0.77913619702E+01 0.75422871863E+01 0.74308692432E+01
 0.75422871863E+01 0.77913619702E+01 0.80960696894E+01 0.85870093682E+01 0.95095398790E+01
 0.11096777188E+02 0.13727169540E+02 0.17907893555E+02 0.24785361768E+02 0.45617490330E+02
 0.94067969470E+02 0.17432328986E+03 0.27759240419E+03 0.38280946785E+03 0.46227781949E+03
 0.66603602600E+03 0.62698914030E+03 0.52225702919E+03 0.38280946785E+03 0.24410243304E+03
 0.13329062035E+03 0.62826769345E+02 0.29799687942E+02 0.19344563030E+02 0.14481694348E+02
 0.11344159827E+02 0.94326409942E+01 0.83382976177E+01 0.77913619702E+01 0.74627709635E+01
 0.71691654349E+01 0.70300259816E+01 0.71691654349E+01 0.74627709635E+01 0.77913619702E+01
 0.83382976177E+01 0.94326409942E+01 0.11344159827E+02 0.14481694348E+02 0.19344563030E+02
 0.29799687942E+02 0.62826769345E+02 0.13329062035E+03 0.24410243304E+03 0.38280946785E+03
 0.52225702919E+03 0.62698914030E+03 0.79649916289E+03 0.75047536522E+03 0.62698914030E+03
 0.46227781949E+03 0.29752289862E+03 0.16416370938E+03 0.77111831194E+02 0.34346569636E+02
 0.20362376421E+02 0.15024757816E+02 0.11541866354E+02 0.93917398536E+01 0.81549499424E+01
 0.75422871863E+01 0.71691654349E+01 0.68206330754E+01 0.66523014216E+01 0.68206330754E+01
 0.71691654349E+01 0.75422871863E+01 0.81549499424E+01 0.93917398536E+01 0.11541866354E+02
 0.15024757816E+02 0.20362376421E+02 0.34346569636E+02 0.77111831194E+02 0.16416370938E+03
 0.29752289862E+03 0.46227781949E+03 0.62698914030E+03 0.75047536522E+03 0.79649916289E+03
 0.75047536522E+03 0.62698914030E+03 0.46227781949E+03 0.29752289862E+03 0.16416370938E+03
 0.77111831194E+02 0.34346569636E+02 0.20362376421E+02 0.15024757816E+02 0.11541866354E+02
 0.93917398536E+01 0.81549499424E+01 0.75422871863E+01 0.71691654349E+01 0.68206330754E+01
 0.66523014216E+01 0.68206330754E+01 0.71691654349E+01 0.75422871863E+01 0.81549499424E+01
 0.93917398536E+01 0.11541866354E+02 0.15024757816E+02 0.20362376421E+02 0.34346569636E+02
 0.77111831194E+02 0.16416370938E+03 0.29752289862E+03 0.46227781949E+03 0.62698914030E+03
 0.75047536522E+03 0.75047536522E+03 0.70691425753E+03 0.59004028958E+03 0.43421910814E+03
 0.27861303597E+03 0.15317110969E+03 0.71964812747E+02 0.32670986312E+02 0.19996793568E+02
 0.14831835905E+02 0.11468796808E+02 0.94053316835E+01 0.82251556589E+01 0.76448440139E+01
 0.72972679697E+01 0.69757654502E+01 0.68206330754E+01 0.69757654502E+01 0.72972679697E+01
 0.76448440139E+01 0.82251556589E+01 0.94053316835E+01 0.11468796808E+02 0.14831835905E+02
 0.19996793568E+02 0.32670986312E+02 0.71964812747E+02 0.15317110969E+03 0.27861303597E+03
 0.43421910814E+03 0.59004028958E+03 0.70691425753E+03 0.62698914030E+03 0.59004028958E+03
 0.49095713055E+03 0.35913806941E+03 0.22830649969E+03 0.12429124827E+03 0.58769693294E+02
 0.28560047157E+02 0.19025939220E+02 0.14302578937E+02 0.11274778917E+02 0.94397279961E+01
 0.83943096532E+01 0.78750902267E+01 0.75681761284E+01 0.72972679697E+01 0.71691654349E+01
 0.72972679697E+01 0.75681761284E+01 0.78750902267E+01 0.83943096532E+01 0.94397279961E+01
 0.11274778917E+02 0.14302578937E+02 0.19025939220E+02 0.28560047157E+02 0.58769693294E+02
 0.12429124827E+03 0.22830649969E+03 0.35913806941E+03 0.49095713055E+03 0.59004028958E+03
 0.46227781949E+03 0.43421910814E+03 0.35913806941E+03 0.25987077106E+03 0.16274603428E+03
 0.87733163359E+02 0.42962826072E+02 0.24045811989E+02 0.17620399421E+02 0.13569390357E+02
 0.11033474418E+02 0.95096209552E+01 0.86275950338E+01 0.81607185219E+01 0.78750902267E+01
 0.76448440139E+01 0.75422871863E+01 0.76448440139E+01 0.78750902267E+01 0.81607185219E+01
 0.86275950338E+01 0.95096209552E+01 0.11033474418E+02 0.13569390357E+02 0.17620399421E+02
 0.24045811989E+02 0.42962826072E+02 0.87733163359E+02 0.16274603428E+03 0.25987077106E+03
 0.35913806941E+03 0.43421910814E+03 0.29752289862E+03 0.27861303597E+03 0.22830649969E+03
 0.16274603428E+03 0.10043351507E+03 0.54834213334E+02 0.30065980003E+02 0.20619338492E+02
 0.16004138758E+02 0.12806046629E+02 0.10851802026E+02 0.96889187794E+01 0.90071815990E+01
 0.86275950338E+01 0.83943096532E+01 0.82251556589E+01 0.81549499424E+01 0.82251556589E+01
 0.83943096532E+01 0.86275950338E+01 0.90071815990E+01 0.96889187794E+01 0.10851802026E+02
 0.12806046629E+02 0.16004138758E+02 0.20619338492E+02 0.30065980003E+02 0.54834213334E+02
 0.10043351507E+03 0.16274603428E+03 0.22830649969E+03 0.27861303597E+03 0.16416370938E+03
 0.15317110969E+03 0.12429124827E+03 0.87733163359E+02 0.54834213334E+02 0.32951734126E+02
 0.22585042060E+02 0.17908475491E+02 0.14455081891E+02 0.12180820265E+02 0.10841845618E+02
 0.10088041439E+02 0.96889187794E+01 0.95096209552E+01 0.94397279961E+01 0.94053316835E+01
 0.93917398536E+01 0.94053316835E+01 0.94397279961E+01 0.95096209552E+01 0.96889187794E+01
 0.10088041439E+02 0.10841845618E+02 0.12180820265E+02 0.14455081891E+02 0.17908475491E+02
 0.22585042060E+02 0.32951734126E+02 0.54834213334E+02 0.87733163359E+02 0.12429124827E+03
 0.15317110969E+03 0.77111831194E+02 0.71964812747E+02 0.58769693294E+02 0.42962826072E+02
 0.30065980003E+02 0.22585042060E+02 0.18620171635E+02 0.15473641878E+02 0.13211786490E+02
 0.11830846555E+02 0.11116428340E+02 0.10841845618E+02 0.10851802026E+02 0.11033474418E+02
 0.11274778917E+02 0.11468796808E+02 0.11541866354E+02 0.11468796808E+02 0.11274778917E+02
 0.11033474418E+02 0.10851802026E+02 0.10841845618E+02 0.11116428340E+02 0.11830846555E+02
 0.13211786490E+02 0.15473641878E+02 0.18620171635E+02 0.22585042060E+02 0.30065980003E+02
 0.42962826072E+02 0.58769693294E+02 0.71964812747E+02 0.34346569636E+02 0.32670986312E+02
 0.28560047157E+02 0.24045811989E+02 0.20619338492E+02 0.17908475491E+02 0.15473641878E+02
 0.13607791365E+02 0.12424304670E+02 0.11871887170E+02 0.11830846555E+02 0.12180820265E+02
 0.12806046629E+02 0.13569390357E+02 0.14302578937E+02 0.14831835905E+02 0.15024757816E+02
 0.14831835905E+02 0.14302578937E+02 0.13569390357E+02 0.12806046629E+02 0.12180820265E+02
 0.11830846555E+02 0.11871887170E+02 0.12424304670E+02 0.13607791365E+02 0.15473641878E+02
 0.17908475491E+02 0.20619338492E+02 0.24045811989E+02 0.28560047157E+02 0.32670986312E+02
 0.20362376421E+02 0.19996793568E+02 0.19025939220E+02 0.17620399421E+02 0.16004138758E+02
 0.14455081891E+02 0.13211786490E+02 0.12424304670E+02 0.12156951552E+02 0.12424304670E+02
 0.13211786490E+02 0.14455081891E+02 0.16004138758E+02 0.17620399421E+02 0.19025939220E+02
 0.19996793568E+02 0.20362376421E+02 0.19996793568E+02 0.19025939220E+02 0.17620399421E+02
 0.16004138758E+02 0.14455081891E+02 0.13211786490E+02 0.12424304670E+02 0.12156951552E+02
 0.12424304670E+02 0.13211786490E+02 0.14455081891E+02 0.16004138758E+02 0.17620399421E+02
 0.19025939220E+02 0.19996793568E+02 0.15024757816E+02 0.14831835905E+02 0.14302578937E+02
 0.13569390357E+02 0.12806046629E+02 0.12180820265E+02 0.11830846555E+02 0.11871887170E+02
 0.12424304670E+02 0.13607791365E+02 0.15473641878E+02 0.17908475491E+02 0.20619338492E+02
 0.24045811989E+02 0.28560047157E+02 0.32670986312E+02 0.34346569636E+02 0.32670986312E+02
 0.28560047157E+02 0.24045811989E+02 0.20619338492E+02 0.17908475491E+02 0.15473641878E+02
 0.13607791365E+02 0.12424304670E+02 0.11871887170E+02 0.11830846555E+02 0.12180820265E+02
 0.12806046629E+02 0.13569390357E+02 0.14302578937E+02 0.14831835905E+02 0.11541866354E+02
 0.11468796808E+02 0.11274778917E+02 0.11033474418E+02 0.10851802026E+02 0.10841845618E+02
 0.11116428340E+02 0.11830846555E+02 0.13211786490E+02 0.15473641878E+02 0.18620171635E+02
 0.22585042060E+02 0.30065980003E+02 0.42962826072E+02 0.58769693294E+02 0.71964812747E+02
 0.77111831194E+02 0.71964812747E+02 0.58769693294E+02 0.42962826072E+02 0.30065980003E+02
 0.22585042060E+02 0.18620171635E+02 0.15473641878E+02 0.13211786490E+02 0.11830846555E+02
 0.11116428340E+02 0.10841845618E+02 0.10851802026E+02 0.11033474418E+02 0.11274778917E+02
 0.11468796808E+02 0.93917398536E+01 0.94053316835E+01 0.94397279961E+01 0.95096209552E+01
 0.96889187794E+01 0.10088041439E+02 0.10841845618E+02 0.12180820265E+02 0.14455081891E+02
 0.17908475491E+02 0.22585042060E+02 0.32951734126E+02 0.54834213334E+02 0.87733163359E+02
 0.12429124827E+03 0.15317110969E+03 0.16416370938E+03 0.15317110969E+03 0.12429124827E+03
 0.87733163359E+02 0.54834213334E+02 0.32951734126E+02 0.22585042060E+02 0.17908475491E+02
 0.14455081891E+02 0.12180820265E+02 0.10841845618E+02 0.10088041439E+02 0.96889187794E+01
 0.95096209552E+01 0.94397279961E+01 0.94053316835E+01 0.81549499424E+01 0.82251556589E+01
 0.83943096532E+01 0.86275950338E+01 0.90071815990E+01 0.96889187794E+01 0.10851802026E+02
 0.12806046629E+02 0.16004138758E+02 0.20619338492E+02 0.30065980003E+02 0.54834213334E+02
 0.10043351507E+03 0.16274603428E+03 0.22830649969E+03 0.27861303597E+03 0.29752289862E+03
 0.27861303597E+03 0.22830649969E+03 0.16274603428E+03 0.10043351507E+03 0.54834213334E+02
 0.30065980003E+02 0.20619338492E+02 0.16004138758E+02 0.12806046629E+02 0.10851802026E+02
 0.96889187794E+01 0.90071815990E+01 0.86275950338E+01 0.83943096532E+01 0.82251556589E+01
 0.75422871863E+01 0.76448440139E+01 0.78750902267E+01 0.81607185219E+01 0.86275950338E+01
 0.95096209552E+01 0.11033474418E+02 0.13569390357E+02 0.17620399421E+02 0.24045811989E+02
 0.42962826072E+02 0.87733163359E+02 0.16274603428E+03 0.25987077106E+03 0.35913806941E+03
 0.43421910814E+03 0.46227781949E+03 0.43421910814E+03 0.35913806941E+03 0.25987077106E+03
 0.16274603428E+03 0.87733163359E+02 0.42962826072E+02 0.24045811989E+02 0.17620399421E+02
 0.13569390357E+02 0.11033474418E+02 0.95096209552E+01 0.86275950338E+01 0.81607185219E+01
 0.78750902267E+01 0.76448440139E+01 0.71691654349E+01 0.72972679697E+01 0.75681761284E+01
 0.78750902267E+01 0.83943096532E+01 0.94397279961E+01 0.11274778917E+02 0.14302578937E+02
 0.19025939220E+02 0.28560047157E+02 0.58769693294E+02 0.12429124827E+03 0.22830649969E+03
 0.35913806941E+03 0.49095713055E+03 0.59004028958E+03 0.62698914030E+03 0.59004028958E+03
 0.49095713055E+03 0.35913806941E+03 0.22830649969E+03 0.12429124827E+03 0.58769693294E+02
 0.28560047157E+02 0.19025939220E+02 0.14302578937E+02 0.11274778917E+02 0.94397279961E+01
 0.83943096532E+01 0.78750902267E+01 0.75681761284E+01 0.72972679697E+01 0.68206330754E+01
 0.69757654502E+01 0.72972679697E+01 0.76448440139E+01 0.82251556589E+01 0.94053316835E+01
 0.11468796808E+02 0.14831835905E+02 0.19996793568E+02 0.32670986312E+02 0.71964812747E+02
 0.15317110969E+03 0.27861303597E+03 0.43421910814E+03 0.59004028958E+03 0.70691425753E+03
 0.75047536522E+03 0.70691425753E+03 0.59004028958E+03 0.43421910814E+03 0.27861303597E+03
 0.15317110969E+03 0.71964812747E+02 0.32670986312E+02 0.19996793568E+02 0.14831835905E+02
 0.11468796808E+02 0.94053316835E+01 0.82251556589E+01 0.76448440139E+01 0.72972679697E+01
 0.69757654502E+01 0.66523014216E+01 0.68206330754E+01 0.71691654349E+01 0.75422871863E+01
 0.81549499424E+01 0.93917398536E+01 0.11541866354E+02 0.15024757816E+02 0.20362376421E+02
 0.34346569636E+02 0.77111831194E+02 0.16416370938E+03 0.29752289862E+03 0.46227781949E+03
 0.62698914030E+03 0.75047536522E+03 0.79649916289E+03 0.75047536522E+03 0.62698914030E+03
 0.46227781949E+03 0.29752289862E+03 0.16416370938E+03 0.77111831194E+02 0.34346569636E+02
 0.20362376421E+02 0.15024757816E+02 0.11541866354E+02 0.93917398536E+01 0.81549499424E+01
 0.75422871863E+01 0.71691654349E+01 0.68206330754E+01 0.68206330754E+01 0.69757654502E+01
 0.72972679697E+01 0.76448440139E+01 0.82251556589E+01 0.94053316835E+01 0.11468796808E+02
 0.14831835905E+02 0.19996793568E+02 0.32670986312E+02 0.71964812747E+02 0.15317110969E+03
 0.27861303597E+03 0.43421910814E+03 0.59004028958E+03 0.70691425753E+03 0.75047536522E+03
 0.70691425753E+03 0.59004028958E+03 0.43421910814E+03 0.27861303597E+03 0.15317110969E+03
 0.71964812747E+02 0.32670986312E+02 0.19996793568E+02 0.14831835905E+02 0.11468796808E+02
 0.94053316835E+01 0.82251556589E+01 0.76448440139E+01 0.72972679697E+01 0.69757654502E+01
 0.71691654349E+01 0.72972679697E+01 0.75681761284E+01 0.78750902267E+01 0.83943096532E+01
 0.94397279961E+01 0.11274778917E+02 0.14302578937E+02 0.19025939220E+02 0.28560047157E+02
 0.58769693294E+02 0.12429124827E+03 0.22830649969E+03 0.35913806941E+03 0.49095713055E+03
 0.59004028958E+03 0.62698914030E+03 0.59004028958E+03 0.49095713055E+03 0.35913806941E+03
 0.22830649969E+03 0.12429124827E+03 0.58769693294E+02 0.28560047157E+02 0.19025939220E+02