unknown system                          
   1.00000000000000     
     3.573378    0.000000    0.000000
     0.000000    3.573378    0.000000
     0.000000    0.000000    3.573378
   Cu
     4
Direct
  0.000000  0.000000  0.000000
  0.500000  0.500000  0.000000
  0.500000  0.000000  0.500000
  0.000000  0.500000  0.500000
 
   32   32   32
  801.74      757.12      636.99      475.57      312.03      176.88      85.569      38.005      21.132      15.557    
  11.934      9.6829      8.3864      7.7145      7.3031      6.9583      6.8012      6.9583      7.3031      7.7145    
  8.3864      9.6829      11.934      15.557      21.132      38.005      85.569      176.88      312.03      475.57    
  636.99      757.12      757.12      714.81      600.89      447.87      293.05      165.53      79.998      36.029    
  20.701      15.366      11.862      9.6982      8.4571      7.8166      7.4280      7.1050      6.9583      7.1050    
  7.4280      7.8166      8.4571      9.6982      11.862      15.366      20.701      36.029      79.998      165.53    
  293.05      447.87      600.89      714.81      636.99      600.89      503.74      373.44      242.28      135.51    
  65.567      31.110      19.623      14.839      11.670      9.7366      8.6314      8.0558      7.7079      7.4280    
  7.3031      7.4280      7.7079      8.0558      8.6314      9.7366      11.670      14.839      19.623      31.110    
  65.567      135.51      242.28      373.44      503.74      600.89      475.57      447.87      373.44      274.13    
  175.34      96.912      47.877      25.565      18.226      14.096      11.424      9.8107      8.8784      8.3706    
  8.0558      7.8166      7.7145      7.8166      8.0558      8.3706      8.8784      9.8107      11.424      14.096    
  18.226      25.565      47.877      96.912      175.34      274.13      373.44      447.87      312.03      293.05    
  242.28      175.34      110.40      61.188      32.852      21.358      16.617      13.307      11.230      9.9954    
  9.2790      8.8784      8.6314      8.4571      8.3864      8.4571      8.6314      8.8784      9.2790      9.9954    
  11.230      13.307      16.617      21.358      32.852      61.188      110.40      175.34      242.28      293.05    
  176.88      165.53      135.51      96.912      61.188      36.273      23.689      18.547      15.037      12.645    
  11.212      10.411      9.9954      9.8107      9.7366      9.6982      9.6829      9.6982      9.7366      9.8107    
  9.9954      10.411      11.212      12.645      15.037      18.547      23.689      36.273      61.188      96.912    
  135.51      165.53      85.569      79.998      65.567      47.877      32.852      23.689      19.262      16.094    
  13.738      12.265      11.499      11.212      11.230      11.424      11.670      11.862      11.934      11.862    
  11.670      11.424      11.230      11.212      11.499      12.265      13.738      16.094      19.262      23.689    
  32.852      47.877      65.567      79.998      38.005      36.029      31.110      25.565      21.358      18.547    
  16.094      14.157      12.899      12.305      12.265      12.645      13.307      14.096      14.839      15.366    
  15.557      15.366      14.839      14.096      13.307      12.645      12.265      12.305      12.899      14.157    
  16.094      18.547      21.358      25.565      31.110      36.029      21.132      20.701      19.623      18.226    
  16.617      15.037      13.738      12.899      12.610      12.899      13.738      15.037      16.617      18.226    
  19.623      20.701      21.132      20.701      19.623      18.226      16.617      15.037      13.738      12.899    
  12.610      12.899      13.738      15.037      16.617      18.226      19.623      20.701      15.557      15.366    
  14.839      14.096      13.307      12.645      12.265      12.305      12.899      14.157      16.094      18.547    
  21.358      25.565      31.110      36.029      38.005      36.029      31.110      25.565      21.358      18.547    
  16.094      14.157      12.899      12.305      12.265      12.645      13.307      14.096      14.839      15.366    
  11.934      11.862      11.670      11.424      11.230      11.212      11.499      12.265      13.738      16.094    
  19.262      23.689      32.852      47.877      65.567      79.998      85.569      79.998      65.567      47.877    
  32.852      23.689      19.262      16.094      13.738      12.265      11.499      11.212      11.230      11.424    
  11.670      11.862      9.6829      9.6982      9.7366      9.8107      9.9954      10.411      11.212      12.645    
  15.037      18.547      23.689      36.273      61.188      96.912      135.51      165.53      176.88      165.53    
  135.51      96.912      61.188      36.273      23.689      18.547      15.037      12.645      11.212      10.411    
  9.9954      9.8107      9.7366      9.6982      8.3864      8.4571      8.6314      8.8784      9.2790      9.9954    
  11.230      13.307      16.617      21.358      32.852      61.188      110.40      175.34      242.28      293.05    
  312.03      293.05      242.28      175.34      110.40      61.188      32.852      21.358      16.617      13.307    
  11.230      9.9954      9.2790      8.8784      8.6314      8.4571      7.7145      7.8166      8.0558      8.3706    
  8.8784      9.8107      11.424      14.096      18.226      25.565      47.877      96.912      175.34      274.13    
  373.44      447.87      475.57      447.87      373.44      274.13      175.34      96.912      47.877      25.565    
  18.226      14.096      11.424      9.8107      8.8784      8.3706      8.0558      7.8166      7.3031      7.4280    
  7.7079      8.0558      8.6314      9.7366      11.670      14.839      19.623      31.110      65.567      135.51    
  242.28      373.44      503.74      600.89      636.99      600.89      503.74      373.44      242.28      135.51    
  65.567      31.110      19.623      14.839      11.670      9.7366      8.6314      8.0558      7.7079      7.4280    
  6.9583      7.1050      7.4280      7.8166      8.4571      9.6982      11.862      15.366      20.701      36.029    
  79.998      165.53      293.05      447.87      600.89      714.81      757.12      714.81      600.89      447.87    
  293.05      165.53      79.998      36.029      20.701      15.366      11.862      9.6982      8.4571      7.8166    
  7.4280      7.1050      6.8012      6.9583      7.3031      7.7145      8.3864      9.6829      11.934      15.557    
  21.132      38.005      85.569      176.88      312.03      475.57      636.99      757.12      801.74      757.12    
  636.99      475.57      312.03      176.88      85.569      38.005      21.132      15.557      11.934      9.6829    
  8.3864      7.7145      7.3031      6.9583      6.9583      7.1050      7.4280      7.8166      8.4571      9.6982    
  11.862      15.366      20.701      36.029      79.998      165.53      293.05      447.87      600.89      714.81    
  757.12      714.81      600.89      447.87      293.05      165.53      79.998      36.029      20.701      15.366    
  11.862      9.6982      8.4571      7.8166      7.4280      7.1050      7.3031      7.4280      7.7079      8.0558    
  8.6314      9.7366      11.670      14.839      19.623      31.110      65.567      135.51      242.28      373.44    
  503.74      600.89      636.99      600.89      503.74      373.44      242.28      135.51      65.567      31.110    
  19.623      14.839      11.670      9.7366      8.6314      8.0558      7.7079      7.4280      7.7145      7.8166    
  8.0558      8.3706      8.8784      9.8107      11.424      14.096      18.226      25.565      47.877      96.912    
  175.34      274.13      373.44      447.87      475.57      447.87      373.44      274.13      175.34      96.912    
  47.877      25.565      18.226      14.096      11.424      9.8107      8.8784      8.3706      8.0558      7.8166    
  8.3864      8.4571      8.6314      8.8784      9.2790      9.9954      11.230      13.307      16.617      21.358    
  32.852      61.188      110.40      175.34      242.28      293.05      312.03      293.05      242.28      175.34    
  110.40      61.188      32.852      21.358      16.617      13.307      11.230      9.9954      9.2790      8.8784    
  8.6314      8.4571      9.6829      9.6982      9.7366      9.8107      9.9954      10.411      11.212      12.645    
  15.037      18.547      23.689      36.273      61.188      96.912      135.51      165.53      176.88      165.53    
  135.51      96.912      61.188      36.273      23.689      18.547      15.037      12.645      11.212      10.411    
  9.9954      9.8107      9.7366      9.6982      11.934      11.862      11.670      11.424      11.230      11.212    
  11.499      12.265      13.738      16.094      19.262      23.689      32.852      47.877      65.567      79.998    
  85.569      79.998      65.567      47.877      32.852      23.689      19.262      16.094      13.738      12.265    
  11.499      11.212      11.230      11.424      11.670      11.862      15.557      15.366      14.839      14.096    
  13.307      12.645      12.265      12.305      12.899      14.157      16.094      18.547      21.358      25.565    
  31.110      36.029      38.005      36.029      31.110      25.565      21.358      18.547      16.094      14.157    
  12.899      12.305      12.265      12.645      13.307      14.096      14.839      15.366      21.132      20.701    
  19.623      18.226      16.617      15.037      13.738      12.899      12.610      12.899      13.738      15.037    
  16.617      18.226      19.623      20.701      21.132      20.701      19.623      18.226      16.617      15.037    
  13.738      12.899      12.610      12.899      13.738      15.037      16.617      18.226      19.623      20.701    
  38.005      36.029      31.110      25.565      21.358      18.547      16.094      14.157      12.899      12.305    
  12.265      12.645      13.307      14.096      14.839      15.366      15.557      15.366      14.839      14.096    
  13.307      12.645      12.265      12.305      12.899      14.157      16.094      18.547      21.358      25.565    
  31.110      36.029      85.569      79.998      65.567      47.877      32.852      23.689      19.262      16.094    
  13.738      12.265      11.499      11.212      11.230      11.424      11.670      11.862      11.934      11.862    
  11.670      11.424      11.230      11.212      11.499      12.265      13.738      16.094      19.262      23.689    
  32.852      47.877      65.567      79.998      176.88      165.53      135.51      96.912      61.188      36.273    
  23.689      18.547      15.037      12.645      11.212      10.411      9.9954      9.8107      9.7366      9.6982    
  9.6829      9.6982      9.7366      9.8107      9.9954      10.411      11.212      12.645      15.037      18.547    
  23.689      36.273      61.188      96.912      135.51      165.53      312.03      293.05      242.28      175.34    
  110.40      61.188      32.852      21.358      16.617      13.307      11.230      9.9954      9.2790      8.8784    
  8.6314      8.4571      8.3864      8.4571      8.6314      8.8784      9.2790      9.9954      11.230      13.307    
  16.617      21.358      32.852      61.188      110.40      175.34      242.28      293.05      475.57      447.87    
  373.44      274.13      175.34      96.912      47.877      25.565      18.226      14.096      11.424      9.8107    
  8.8784      8.3706      8.0558      7.8166      7.7145      7.8166      8.0558      8.3706      8.8784      9.8107    
  11.424      14.096      18.226      25.565      47.877      96.912      175.34      274.13      373.44      447.87    
  636.99      600.89      503.74      373.44      242.28      135.51      65.567      31.110      19.623      14.839    
  11.670      9.7366      8.6314      8.0558      7.7079      7.4280      7.3031      7.4280      7.7079      8.0558    
  8.6314      9.7366      11.670      14.839      19.623      31.110      65.567      135.51      242.28      373.44    
  503.74      600.89      757.12      714.81      600.89      447.87      293.05      165.53      79.998      36.029    
  20.701      15.366      11.862      9.6982      8.4571      7.8166      7.4280      7.1050      6.9583      7.1050    
  7.4280      7.8166      8.4571      9.6982      11.862      15.366      20.701      36.029      79.998      165.53    
  293.05      447.87      600.89      714.81      757.12      714.81      600.89      447.87      293.05      165.53    
  79.998      36.029      20.701      15.366      11.862      9.6982      8.4571      7.8166      7.4280      7.1050    
  6.9583      7.1050      7.4280      7.8166      8.4571      9.6982      11.862      15.366      20.701      36.029    
  79.998      165.53      293.05      447.87      600.89      714.81      714.81      674.69      566.68      421.64    
  275.11      154.87      74.818      34.227      20.306      15.180      11.792      9.7112      8.5228      7.9119    
  7.5446      7.2421      7.1050      7.2421      7.5446      7.9119      8.5228      9.7112      11.792      15.180    
  20.306      34.227      74.818      154.87      275.11      421.64      566.68      674.69      600.89      566.68    
  474.59      351.18      227.19      126.71      61.432      29.754      19.303      14.664      11.603      9.7444    
  8.6857      8.1361      7.8068      7.5446      7.4280      7.5446      7.8068      8.1361      8.6857      9.7444    
  11.603      14.664      19.303      29.754      61.432      126.71      227.19      351.18      474.59      566.68    
  447.87      421.64      351.18      257.28      164.14      90.607      45.103      24.738      17.949      13.941    
  11.363      9.8126      8.9194      8.4344      8.1361      7.9119      7.8166      7.9119      8.1361      8.4344    
  8.9194      9.8126      11.363      13.941      17.949      24.738      45.103      90.607      164.14      257.28    
  351.18      421.64      293.05      275.11      227.19      164.14      103.22      57.399      31.356      20.928    
  16.378      13.174      11.174      9.9882      9.3020      8.9194      8.6857      8.5228      8.4571      8.5228    
  8.6857      8.9194      9.3020      9.9882      11.174      13.174      16.378      20.928      31.356      57.399    
  103.22      164.14      227.19      275.11      165.53      154.87      126.71      90.607      57.399      34.479    
  23.060      18.247      14.842      12.534      11.155      10.386      9.9882      9.8126      9.7444      9.7112    
  9.6982      9.7112      9.7444      9.8126      9.9882      10.386      11.155      12.534      14.842      18.247    
  23.060      34.479      57.399      90.607      126.71      154.87      79.998      74.818      61.432      45.103    
  31.356      23.060      18.941      15.862      13.585      12.167      11.431      11.155      11.174      11.363    
  11.603      11.792      11.862      11.792      11.603      11.363      11.174      11.155      11.431      12.167    
  13.585      15.862      18.941      23.060      31.356      45.103      61.432      74.818      36.029      34.227    
  29.754      24.738      20.928      18.247      15.862      13.988      12.776      12.205      12.167      12.534    
  13.174      13.941      14.664      15.180      15.366      15.180      14.664      13.941      13.174      12.534    
  12.167      12.205      12.776      13.988      15.862      18.247      20.928      24.738      29.754      34.227    
  20.701      20.306      19.303      17.949      16.378      14.842      13.585      12.776      12.498      12.776    
  13.585      14.842      16.378      17.949      19.303      20.306      20.701      20.306      19.303      17.949    
  16.378      14.842      13.585      12.776      12.498      12.776      13.585      14.842      16.378      17.949    
  19.303      20.306      15.366      15.180      14.664      13.941      13.174      12.534      12.167      12.205    
  12.776      13.988      15.862      18.247      20.928      24.738      29.754      34.227      36.029      34.227    
  29.754      24.738      20.928      18.247      15.862      13.988      12.776      12.205      12.167      12.534    
  13.174      13.941      14.664      15.180      11.862      11.792      11.603      11.363      11.174      11.155    
  11.431      12.167      13.585      15.862      18.941      23.060      31.356      45.103      61.432      74.818    
  79.998      74.818      61.432      45.103      31.356      23.060      18.941      15.862      13.585      12.167    
  11.431      11.155      11.174      11.363      11.603      11.792      9.6982      9.7112      9.7444      9.8126    
  9.9882      10.386      11.155      12.534      14.842      18.247      23.060      34.479      57.399      90.607    
  126.71      154.87      165.53      154.87      126.71      90.607      57.399      34.479      23.060      18.247    
  14.842      12.534      11.155      10.386      9.9882      9.8126      9.7444      9.7112      8.4571      8.5228    
  8.6857      8.9194      9.3020      9.9882      11.174      13.174      16.378      20.928      31.356      57.399    
  103.22      164.14      227.19      275.11      293.05      275.11      227.19      164.14      103.22      57.399    
  31.356      20.928      16.378      13.174      11.174      9.9882      9.3020      8.9194      8.6857      8.5228    
  7.8166      7.9119      8.1361      8.4344      8.9194      9.8126      11.363      13.941      17.949      24.738    
  45.103      90.607      164.14      257.28      351.18      421.64      447.87      421.64      351.18      257.28    
  164.14      90.607      45.103      24.738      17.949      13.941      11.363      9.8126      8.9194      8.4344    
  8.1361      7.9119      7.4280      7.5446      7.8068      8.1361      8.6857      9.7444      11.603      14.664    
  19.303      29.754      61.432      126.71      227.19      351.18      474.59      566.68      600.89      566.68    
  474.59      351.18      227.19      126.71      61.432      29.754      19.303      14.664      11.603      9.7444    
  8.6857      8.1361      7.8068      7.5446      7.1050      7.2421      7.5446      7.9119      8.5228      9.7112    
  11.792      15.180      20.306      34.227      74.818      154.87      275.11      421.64      566.68      674.69    
  714.81      674.69      566.68      421.64      275.11      154.87      74.818      34.227      20.306      15.180    
  11.792      9.7112      8.5228      7.9119      7.5446      7.2421      6.9583      7.1050      7.4280      7.8166    
  8.4571      9.6982      11.862      15.366      20.701      36.029      79.998      165.53      293.05      447.87    
  600.89      714.81      757.12      714.81      600.89      447.87      293.05      165.53      79.998      36.029    
  20.701      15.366      11.862      9.6982      8.4571      7.8166      7.4280      7.1050      7.1050      7.2421    
  7.5446      7.9119      8.5228      9.7112      11.792      15.180      20.306      34.227      74.818      154.87    
  275.11      421.64      566.68      674.69      714.81      674.69      566.68      421.64      275.11      154.87    
  74.818      34.227      20.306      15.180      11.792      9.7112      8.5228      7.9119      7.5446      7.2421    
  7.4280      7.5446      7.8068      8.1361      8.6857      9.7444      11.603      14.664      19.303      29.754    
  61.432      126.71      227.19      351.18      474.59      566.68      600.89      566.68      474.59      351.18    
  227.19      126.71      61.432      29.754      19.303      14.664      11.603      9.7444      8.6857      8.1361    
  7.8068      7.5446      7.8166      7.9119      8.1361      8.4344      8.9194      9.8126      11.363      13.941    
  17.949      24.738      45.103      90.607      164.14      257.28      351.18      421.64      447.87      421.64    
  351.18      257.28      164.14      90.607      45.103      24.738      17.949      13.941      11.363      9.8126    
  8.9194      8.4344      8.1361      7.9119      8.4571      8.5228      8.6857      8.9194      9.3020      9.9882    
  11.174      13.174      16.378      20.928      31.356      57.399      103.22      164.14      227.19      275.11    
  293.05      275.11      227.19      164.14      103.22      57.399      31.356      20.928      16.378      13.174    
  11.174      9.9882      9.3020      8.9194      8.6857      8.5228      9.6982      9.7112      9.7444      9.8126    
  9.9882      10.386      11.155      12.534      14.842      18.247      23.060      34.479      57.399      90.607    
  126.71      154.87      165.53      154.87      126.71      90.607      57.399      34.479      23.060      18.247    
  14.842      12.534      11.155      10.386      9.9882      9.8126      9.7444      9.7112      11.862      11.792    
  11.603      11.363      11.174      11.155      11.431      12.167      13.585      15.862      18.941      23.060    
  31.356      45.103      61.432      74.818      79.998      74.818      61.432      45.103      31.356      23.060    
  18.941      15.862      13.585      12.167      11.431      11.155      11.174      11.363      11.603      11.792    
  15.366      15.180      14.664      13.941      13.174      12.534      12.167      12.205      12.776      13.988    
  15.862      18.247      20.928      24.738      29.754      34.227      36.029      34.227      29.754      24.738    
  20.928      18.247      15.862      13.988      12.776      12.205      12.167      12.534      13.174      13.941    
  14.664      15.180      20.701      20.306      19.303      17.949      16.378      14.842      13.585      12.776    
  12.498      12.776      13.585      14.842      16.378      17.949      19.303      20.306      20.701      20.306    
  19.303      17.949      16.378      14.842      13.585      12.776      12.498      12.776      13.585      14.842    
  16.378      17.949      19.303      20.306      36.029      34.227      29.754      24.738      20.928      18.247    
  15.862      13.988      12.776      12.205      12.167      12.534      13.174      13.941      14.664      15.180    
  15.366      15.180      14.664      13.941      13.174      12.534      12.167      12.205      12.776      13.988    
  15.862      18.247      20.928      24.738      29.754      34.227      79.998      74.818      61.432      45.103    
  31.356      23.060      18.941      15.862      13.585      12.167      11.431      11.155      11.174      11.363    
  11.603      11.792      11.862      11.792      11.603      11.363      11.174      11.155      11.431      12.167    
  13.585      15.862      18.941      23.060      31.356      45.103      61.432      74.818      165.53      154.87    
  126.71      90.607      57.399      34.479      23.060      18.247      14.842      12.534      11.155      10.386    
  9.9882      9.8126      9.7444      9.7112      9.6982      9.7112      9.7444      9.8126      9.9882      10.386    
  11.155      12.534      14.842      18.247      23.060      34.479      57.399      90.607      126.71      154.87    
  293.05      275.11      227.19      164.14      103.22      57.399      31.356      20.928      16.378      13.174    
  11.174      9.9882      9.3020      8.9194      8.6857      8.5228      8.4571      8.5228      8.6857      8.9194    
  9.3020      9.9882      11.174      13.174      16.378      20.928      31.356      57.399      103.22      164.14    
  227.19      275.11      447.87      421.64      351.18      257.28      164.14      90.607      45.103      24.738    
  17.949      13.941      11.363      9.8126      8.9194      8.4344      8.1361      7.9119      7.8166      7.9119    
  8.1361      8.4344      8.9194      9.8126      11.363      13.941      17.949      24.738      45.103      90.607    
  164.14      257.28      351.18      421.64      600.89      566.68      474.59      351.18      227.19      126.71    
  61.432      29.754      19.303      14.664      11.603      9.7444      8.6857      8.1361      7.8068      7.5446    
  7.4280      7.5446      7.8068      8.1361      8.6857      9.7444      11.603      14.664      19.303      29.754    
  61.432      126.71      227.19      351.18      474.59      566.68      714.81      674.69      566.68      421.64    
  275.11      154.87      74.818      34.227      20.306      15.180      11.792      9.7112      8.5228      7.9119    
  7.5446      7.2421      7.1050      7.2421      7.5446      7.9119      8.5228      9.7112      11.792      15.180    
  20.306      34.227      74.818      154.87      275.11      421.64      566.68      674.69      636.99      600.89    
  503.74      373.44      242.28      135.51      65.567      31.110      19.623      14.839      11.670      9.7366    
  8.6314      8.0558      7.7079      7.4280      7.3031      7.4280      7.7079      8.0558      8.6314      9.7366    
  11.670      14.839      19.623      31.110      65.567      135.51      242.28      373.44      503.74      600.89    
  600.89      566.68      474.59      351.18      227.19      126.71      61.432      29.754      19.303      14.664    
  11.603      9.7444      8.6857      8.1361      7.8068      7.5446      7.4280      7.5446      7.8068      8.1361    
  8.6857      9.7444      11.603      14.664      19.303      29.754      61.432      126.71      227.19      351.18    
  474.59      566.68      503.74      474.59      396.22      291.49      187.00      103.55      50.820      26.415    
  18.438      14.185      11.425      9.7667      8.8234      8.3290      8.0340      7.8068      7.7079      7.8068    
  8.0340      8.3290      8.8234      9.7667      11.425      14.185      18.438      26.415      50.820      103.55    
  187.00      291.49      396.22      474.59      373.44      351.18      291.49      212.29      134.48      74.179    
  38.084      22.715      17.170      13.517      11.202      9.8220      9.0280      8.5939      8.3290      8.1361    
  8.0558      8.1361      8.3290      8.5939      9.0280      9.8220      11.202      13.517      17.170      22.715    
  38.084      74.179      134.48      212.29      291.49      351.18      242.28      227.19      187.00      134.48    
  84.426      47.688      27.648      19.819      15.709      12.815      11.028      9.9753      9.3676      9.0280    
  8.8234      8.6857      8.6314      8.6857      8.8234      9.0280      9.3676      9.9753      11.028      12.815    
  15.709      19.819      27.648      47.688      84.426      134.48      187.00      227.19      135.51      126.71    
  103.55      74.179      47.688      30.000      21.498      17.401      14.302      12.233      11.007      10.326    
  9.9753      9.8220      9.7667      9.7444      9.7366      9.7444      9.7667      9.8220      9.9753      10.326    
  11.007      12.233      14.302      17.401      21.498      30.000      47.688      74.179      103.55      126.71    
  65.567      61.432      50.820      38.084      27.648      21.498      18.032      15.211      13.164      11.901    
  11.248      11.007      11.028      11.202      11.425      11.603      11.670      11.603      11.425      11.202    
  11.028      11.007      11.248      11.901      13.164      15.211      18.032      21.498      27.648      38.084    
  50.820      61.432      31.110      29.754      26.415      22.715      19.819      17.401      15.211      13.519    
  12.437      11.931      11.901      12.233      12.815      13.517      14.185      14.664      14.839      14.664    
  14.185      13.517      12.815      12.233      11.901      11.931      12.437      13.519      15.211      17.401    
  19.819      22.715      26.415      29.754      19.623      19.303      18.438      17.170      15.709      14.302    
  13.164      12.437      12.189      12.437      13.164      14.302      15.709      17.170      18.438      19.303    
  19.623      19.303      18.438      17.170      15.709      14.302      13.164      12.437      12.189      12.437    
  13.164      14.302      15.709      17.170      18.438      19.303      14.839      14.664      14.185      13.517    
  12.815      12.233      11.901      11.931      12.437      13.519      15.211      17.401      19.819      22.715    
  26.415      29.754      31.110      29.754      26.415      22.715      19.819      17.401      15.211      13.519    
  12.437      11.931      11.901      12.233      12.815      13.517      14.185      14.664      11.670      11.603    
  11.425      11.202      11.028      11.007      11.248      11.901      13.164      15.211      18.032      21.498    
  27.648      38.084      50.820      61.432      65.567      61.432      50.820      38.084      27.648      21.498    
  18.032      15.211      13.164      11.901      11.248      11.007      11.028      11.202      11.425      11.603    
  9.7366      9.7444      9.7667      9.8220      9.9753      10.326      11.007      12.233      14.302      17.401    
  21.498      30.000      47.688      74.179      103.55      126.71      135.51      126.71      103.55      74.179    
  47.688      30.000      21.498      17.401      14.302      12.233      11.007      10.326      9.9753      9.8220    
  9.7667      9.7444      8.6314      8.6857      8.8234      9.0280      9.3676      9.9753      11.028      12.815    
  15.709      19.819      27.648      47.688      84.426      134.48      187.00      227.19      242.28      227.19    