   4   4   0   0
  0.1140714E+02  0.3573378E-09  0.3573378E-09  0.3573378E-09  0.5000000E-15
  1.000000000000000E-004
  CAR 
 unknown system                          
     30.50860484     -3.59770172  301      8.01489572      1.00000000
     -3.598  0.0000E+00  0.0000E+00
     -3.484  0.0000E+00  0.0000E+00
     -3.370  0.0000E+00  0.0000E+00
     -3.257 -0.7440E-31 -0.8458E-32
     -3.143 -0.6248E-27 -0.7104E-28
     -3.029 -0.2735E-23 -0.3110E-24
     -2.916 -0.6233E-20 -0.7090E-21
     -2.802 -0.7389E-17 -0.8407E-18
     -2.688 -0.4398E-14 -0.5008E-15
     -2.575 -0.1391E-11 -0.1587E-12
     -2.461 -0.2268E-09 -0.2595E-10
     -2.347 -0.1897E-07 -0.2182E-08
     -2.233 -0.8079E-06 -0.9403E-07
     -2.120 -0.1740E-04 -0.2073E-05
     -2.006 -0.1881E-03 -0.2345E-04
     -1.892 -0.1005E-02 -0.1377E-03
     -1.779 -0.2383E-02 -0.4087E-03
     -1.665  0.8509E-03 -0.3119E-03
     -1.551  0.2399E-01  0.2416E-02
     -1.438  0.8143E-01  0.1167E-01
     -1.324  0.1542E+00  0.2920E-01
     -1.210  0.1834E+00  0.5005E-01
     -1.097  0.1495E+00  0.6705E-01
     -0.983  0.1461E+00  0.8366E-01
     -0.869  0.2705E+00  0.1144E+00
     -0.756  0.4139E+00  0.1615E+00
     -0.642  0.3645E+00  0.2029E+00
     -0.528  0.1729E+00  0.2226E+00
     -0.414  0.1399E+00  0.2385E+00
     -0.301  0.3281E+00  0.2758E+00
     -0.187  0.4944E+00  0.3320E+00
     -0.073  0.5130E+00  0.3903E+00
      0.040  0.4378E+00  0.4401E+00
      0.154  0.3173E+00  0.4762E+00
      0.268  0.3453E+00  0.5154E+00
      0.381  0.5928E+00  0.5828E+00
      0.495  0.6241E+00  0.6538E+00
      0.609  0.3038E+00  0.6883E+00
      0.722  0.2441E+00  0.7161E+00
      0.836  0.5911E+00  0.7832E+00
      0.950  0.7999E+00  0.8742E+00
      1.063  0.6943E+00  0.9531E+00
      1.177  0.6137E+00  0.1023E+01
      1.291  0.8071E+00  0.1115E+01
      1.405  0.8566E+00  0.1212E+01
      1.518  0.4747E+00  0.1266E+01
      1.632  0.2654E+00  0.1296E+01
      1.746  0.6007E+00  0.1364E+01
      1.859  0.1188E+01  0.1500E+01
      1.973  0.1351E+01  0.1653E+01
      2.087  0.1097E+01  0.1778E+01
      2.200  0.1003E+01  0.1892E+01
      2.314  0.9831E+00  0.2004E+01
      2.428  0.9271E+00  0.2109E+01
      2.541  0.1344E+01  0.2262E+01
      2.655  0.2193E+01  0.2511E+01
      2.769  0.2687E+01  0.2817E+01
      2.882  0.2838E+01  0.3139E+01
      2.996  0.3405E+01  0.3526E+01
      3.110  0.4252E+01  0.4010E+01
      3.224  0.5009E+01  0.4579E+01
      3.337  0.5105E+01  0.5160E+01
      3.451  0.5255E+01  0.5757E+01
      3.565  0.6768E+01  0.6527E+01
      3.678  0.8292E+01  0.7469E+01
      3.792  0.8898E+01  0.8481E+01
      3.906  0.8791E+01  0.9480E+01
      4.019  0.8200E+01  0.1041E+02
      4.133  0.7913E+01  0.1131E+02
      4.247  0.7974E+01  0.1222E+02
      4.360  0.8355E+01  0.1317E+02
      4.474  0.9777E+01  0.1428E+02
      4.588  0.1161E+02  0.1560E+02
      4.701  0.1207E+02  0.1697E+02
      4.815  0.1282E+02  0.1843E+02
      4.929  0.1520E+02  0.2016E+02
      5.043  0.1657E+02  0.2204E+02
      5.156  0.1502E+02  0.2375E+02
      5.270  0.1181E+02  0.2509E+02
      5.384  0.1001E+02  0.2623E+02
      5.497  0.1091E+02  0.2747E+02
      5.611  0.1267E+02  0.2891E+02
      5.725  0.1362E+02  0.3046E+02
      5.838  0.1321E+02  0.3196E+02
      5.952  0.1220E+02  0.3335E+02
      6.066  0.1231E+02  0.3475E+02
      6.179  0.1439E+02  0.3638E+02
      6.293  0.1787E+02  0.3841E+02
      6.407  0.1757E+02  0.4041E+02
      6.521  0.1131E+02  0.4170E+02
      6.634  0.4690E+01  0.4223E+02
      6.748  0.1306E+01  0.4238E+02
      6.862  0.3594E+00  0.4242E+02
      6.975  0.8538E+00  0.4252E+02
      7.089  0.1876E+01  0.4273E+02
      7.203  0.2000E+01  0.4296E+02
      7.316  0.1332E+01  0.4311E+02
      7.430  0.8743E+00  0.4321E+02
      7.544  0.1022E+01  0.4332E+02
      7.657  0.1663E+01  0.4351E+02
      7.771  0.1832E+01  0.4372E+02
      7.885  0.1311E+01  0.4387E+02
      7.998  0.9921E+00  0.4398E+02
      8.112  0.9866E+00  0.4410E+02
      8.226  0.9515E+00  0.4420E+02
      8.340  0.7379E+00  0.4429E+02
      8.453  0.6667E+00  0.4436E+02
      8.567  0.1101E+01  0.4449E+02
      8.681  0.1503E+01  0.4466E+02
      8.794  0.1636E+01  0.4485E+02
      8.908  0.1747E+01  0.4504E+02
      9.022  0.1444E+01  0.4521E+02
      9.135  0.7705E+00  0.4530E+02
      9.249  0.4024E+00  0.4534E+02
      9.363  0.6427E+00  0.4542E+02
      9.476  0.8817E+00  0.4552E+02
      9.590  0.6291E+00  0.4559E+02
      9.704  0.6375E+00  0.4566E+02
      9.817  0.1211E+01  0.4580E+02
      9.931  0.1610E+01  0.4598E+02
     10.045  0.1461E+01  0.4615E+02
     10.159  0.1063E+01  0.4627E+02
     10.272  0.7950E+00  0.4636E+02
     10.386  0.8992E+00  0.4646E+02
     10.500  0.1219E+01  0.4660E+02
     10.613  0.8911E+00  0.4670E+02
     10.727  0.3011E+00  0.4673E+02
     10.841  0.2722E+00  0.4676E+02
     10.954  0.4139E+00  0.4681E+02
     11.068  0.5777E+00  0.4688E+02
     11.182  0.9758E+00  0.4699E+02
     11.295  0.1024E+01  0.4710E+02
     11.409  0.5814E+00  0.4717E+02
     11.523  0.6644E+00  0.4725E+02
     11.636  0.1164E+01  0.4738E+02
     11.750  0.9319E+00  0.4748E+02
     11.864  0.2745E+00  0.4752E+02
     11.978  0.1284E+00  0.4753E+02
     12.091  0.4997E+00  0.4759E+02
     12.205  0.1148E+01  0.4772E+02
     12.319  0.1670E+01  0.4791E+02
     12.432  0.1520E+01  0.4808E+02
     12.546  0.9899E+00  0.4819E+02
     12.660  0.6960E+00  0.4827E+02
     12.773  0.7957E+00  0.4836E+02
     12.887  0.1075E+01  0.4848E+02
     13.001  0.1168E+01  0.4862E+02
     13.114  0.1206E+01  0.4875E+02
     13.228  0.1339E+01  0.4891E+02
     13.342  0.1368E+01  0.4906E+02
     13.455  0.1304E+01  0.4921E+02
     13.569  0.1034E+01  0.4933E+02
     13.683  0.5504E+00  0.4939E+02
     13.797  0.6102E+00  0.4946E+02
     13.910  0.1495E+01  0.4963E+02
     14.024  0.1917E+01  0.4985E+02
     14.138  0.1158E+01  0.4998E+02
     14.251  0.5973E+00  0.5005E+02
     14.365  0.1010E+01  0.5016E+02
     14.479  0.1199E+01  0.5030E+02
     14.592  0.5872E+00  0.5037E+02
     14.706  0.3678E+00  0.5041E+02
     14.820  0.5865E+00  0.5047E+02
     14.933  0.5929E+00  0.5054E+02
     15.047  0.7395E+00  0.5063E+02
     15.161  0.1061E+01  0.5075E+02
     15.274  0.1429E+01  0.5091E+02
     15.388  0.1722E+01  0.5110E+02
     15.502  0.1487E+01  0.5127E+02
     15.616  0.1141E+01  0.5140E+02
     15.729  0.1086E+01  0.5153E+02
     15.843  0.1256E+01  0.5167E+02
     15.957  0.1317E+01  0.5182E+02
     16.070  0.9052E+00  0.5192E+02
     16.184  0.6421E+00  0.5200E+02
     16.298  0.8532E+00  0.5209E+02
     16.411  0.9407E+00  0.5220E+02
     16.525  0.8945E+00  0.5230E+02
     16.639  0.1248E+01  0.5244E+02
     16.752  0.1834E+01  0.5265E+02
     16.866  0.2158E+01  0.5290E+02
     16.980  0.1820E+01  0.5310E+02
     17.093  0.1326E+01  0.5325E+02
     17.207  0.1348E+01  0.5341E+02
     17.321  0.1516E+01  0.5358E+02
     17.435  0.1648E+01  0.5377E+02
     17.548  0.1861E+01  0.5398E+02
     17.662  0.1858E+01  0.5419E+02
     17.776  0.1660E+01  0.5438E+02
     17.889  0.1217E+01  0.5452E+02
     18.003  0.6342E+00  0.5459E+02
     18.117  0.6652E+00  0.5466E+02
     18.230  0.1053E+01  0.5478E+02
     18.344  0.1344E+01  0.5494E+02
     18.458  0.1693E+01  0.5513E+02
     18.571  0.1731E+01  0.5533E+02
     18.685  0.1283E+01  0.5547E+02
     18.799  0.9726E+00  0.5558E+02
     18.912  0.1063E+01  0.5570E+02
     19.026  0.1357E+01  0.5586E+02
     19.140  0.1940E+01  0.5608E+02
     19.254  0.2121E+01  0.5632E+02
     19.367  0.1552E+01  0.5650E+02
     19.481  0.1679E+01  0.5669E+02
     19.595  0.2504E+01  0.5697E+02
     19.708  0.2086E+01  0.5721E+02
     19.822  0.7952E+00  0.5730E+02
     19.936  0.3200E+00  0.5734E+02
     20.049  0.7282E+00  0.5742E+02
     20.163  0.1224E+01  0.5756E+02
     20.277  0.1603E+01  0.5774E+02
     20.390  0.1988E+01  0.5797E+02
     20.504  0.1889E+01  0.5818E+02
     20.618  0.1360E+01  0.5834E+02
     20.731  0.9791E+00  0.5845E+02
     20.845  0.1112E+01  0.5857E+02
     20.959  0.1224E+01  0.5871E+02
     21.073  0.7964E+00  0.5880E+02
     21.186  0.5562E+00  0.5887E+02
     21.300  0.8212E+00  0.5896E+02
     21.414  0.8802E+00  0.5906E+02
     21.527  0.5707E+00  0.5912E+02
     21.641  0.3318E+00  0.5916E+02
     21.755  0.1830E+00  0.5918E+02
     21.868  0.2283E+00  0.5921E+02
     21.982  0.4835E+00  0.5926E+02
     22.096  0.4249E+00  0.5931E+02
     22.209  0.1091E+00  0.5932E+02
     22.323 -0.2393E-01  0.5932E+02
     22.437 -0.1731E-01  0.5932E+02
     22.550 -0.1467E-01  0.5932E+02
     22.664 -0.1553E-01  0.5932E+02
     22.778  0.7550E-01  0.5932E+02
     22.892  0.3262E+00  0.5936E+02
     23.005  0.5961E+00  0.5943E+02
     23.119  0.5644E+00  0.5949E+02
     23.233  0.2188E+00  0.5952E+02
     23.346  0.5507E-01  0.5952E+02
     23.460  0.1943E+00  0.5955E+02
     23.574  0.2397E+00  0.5957E+02
     23.687  0.8080E-01  0.5958E+02
     23.801 -0.1891E-01  0.5958E+02
     23.915  0.8016E-01  0.5959E+02
     24.028  0.3179E+00  0.5963E+02
     24.142  0.3917E+00  0.5967E+02
     24.256  0.1950E+00  0.5969E+02
     24.369  0.1772E-01  0.5970E+02
     24.483 -0.2200E-01  0.5969E+02
     24.597 -0.2901E-01  0.5969E+02
     24.711  0.2736E-02  0.5969E+02
     24.824  0.2394E+00  0.5972E+02
     24.938  0.5203E+00  0.5978E+02
     25.052  0.3892E+00  0.5982E+02
     25.165  0.7575E-01  0.5983E+02
     25.279 -0.2662E-01  0.5983E+02
     25.393 -0.1555E-01  0.5982E+02
     25.506 -0.1407E-01  0.5982E+02
     25.620  0.6859E-02  0.5982E+02
     25.734  0.1348E+00  0.5984E+02
     25.847  0.2642E+00  0.5987E+02
     25.961  0.1801E+00  0.5989E+02
     26.075  0.2854E-01  0.5989E+02
     26.188 -0.1340E-01  0.5989E+02
     26.302 -0.5660E-02  0.5989E+02
     26.416 -0.4075E-02  0.5989E+02
     26.530 -0.1244E-01  0.5989E+02
     26.643  0.7094E-02  0.5989E+02
     26.757  0.1352E+00  0.5990E+02
     26.871  0.2643E+00  0.5993E+02
     26.984  0.1798E+00  0.5996E+02
     27.098  0.2834E-01  0.5996E+02
     27.212 -0.1339E-01  0.5996E+02
     27.325 -0.5295E-02  0.5996E+02
     27.439 -0.6781E-03  0.5996E+02
     27.553 -0.3898E-04  0.5996E+02
     27.666 -0.1097E-05  0.5996E+02
     27.780 -0.6429E-06  0.5996E+02
     27.894 -0.2306E-04  0.5996E+02
     28.007 -0.4124E-03  0.5996E+02
     28.121 -0.3326E-02  0.5996E+02
     28.235 -0.8923E-02  0.5995E+02
     28.349  0.1650E-01  0.5996E+02
     28.462  0.1157E+00  0.5997E+02
     28.576  0.1769E+00  0.5999E+02
     28.690  0.9440E-01  0.6000E+02
     28.803  0.6392E-02  0.6000E+02
     28.917 -0.8437E-02  0.6000E+02
     29.031 -0.2420E-02  0.6000E+02
     29.144 -0.2564E-03  0.6000E+02
     29.258 -0.1251E-04  0.6000E+02
     29.372 -0.2994E-06  0.6000E+02
     29.485 -0.3609E-08  0.6000E+02
     29.599 -0.2220E-10  0.6000E+02
     29.713 -0.7026E-13  0.6000E+02
     29.826 -0.8573E-16  0.6000E+02
     29.940  0.0000E+00  0.6000E+02
     30.054  0.0000E+00  0.6000E+02
     30.168  0.0000E+00  0.6000E+02
     30.281  0.0000E+00  0.6000E+02
     30.395  0.0000E+00  0.6000E+02
     30.509  0.0000E+00  0.6000E+02
