       N       E                     dE             d eps       ncg     rms          rms(c)
DAV:   1     0.286221899817E+03    0.28622E+03   -0.14524E+04  2260   0.185E+03
DAV:   2     0.399777228483E+01   -0.28222E+03   -0.27190E+03  2100   0.336E+02
DAV:   3    -0.180883642575E+02   -0.22086E+02   -0.21190E+02  2340   0.137E+02
DAV:   4    -0.185250413707E+02   -0.43668E+00   -0.43618E+00  2382   0.260E+01
DAV:   5    -0.185314223344E+02   -0.63810E-02   -0.63808E-02  2736   0.301E+00    0.154E+01
DAV:   6    -0.161926385719E+02    0.23388E+01   -0.28240E+01  2304   0.109E+02    0.725E+00
DAV:   7    -0.149358681059E+02    0.12568E+01   -0.50290E+00  2372   0.445E+01    0.107E+00
DAV:   8    -0.148996051995E+02    0.36263E-01   -0.68197E-02  2636   0.285E+00    0.730E-01
DAV:   9    -0.148899742270E+02    0.96310E-02   -0.18266E-02  2396   0.281E+00    0.295E-02
DAV:  10    -0.148900825307E+02   -0.10830E-03   -0.82717E-04  2506   0.270E-01    0.119E-02
DAV:  11    -0.148900807248E+02    0.18059E-05   -0.12465E-05  2736   0.305E-02    0.576E-03
DAV:  12    -0.148900841464E+02   -0.34216E-05   -0.44853E-07  1308   0.139E-02    0.113E-03
DAV:  13    -0.148900843360E+02   -0.18967E-06   -0.18740E-07  1278   0.532E-03
   1 F= -.14890084E+02 E0= -.14890409E+02  d E =0.974482E-03
