unknown system                          
   1.00000000000000     
     2.423200    0.000000    0.000000
    -1.211600    2.098553    0.000000
     0.000000    0.000000    4.349280
   Fe
     2
Direct
  0.000000  0.000000  0.000000
  0.333333  0.666667  0.500000
 
   20   20   36
 0.18609741103E+03 0.17557903795E+03 0.14749383611E+03 0.11031622217E+03 0.73351950190E+02
 0.43379718091E+02 0.23484742184E+02 0.13310204734E+02 0.97897767264E+01 0.86729638324E+01
 0.83027216946E+01 0.86739630334E+01 0.97905284069E+01 0.13309787216E+02 0.23483672248E+02
 0.43379227455E+02 0.73352460112E+02 0.11031699451E+03 0.14749408868E+03 0.17557888421E+03
 0.17559043784E+03 0.17557812679E+03 0.15631843615E+03 0.12393016642E+03 0.87409624102E+02
 0.54755236206E+02 0.30773044094E+02 0.16719257340E+02 0.10776853766E+02 0.90264058184E+01
 0.82994992931E+01 0.82981690589E+01 0.90249179544E+01 0.10778289628E+02 0.16721349866E+02
 0.30771436942E+02 0.54752615684E+02 0.87416390879E+02 0.12395203463E+03 0.15634533430E+03
 0.14751128727E+03 0.15630742111E+03 0.14749394579E+03 0.12393105366E+03 0.92649430660E+02
 0.61514896956E+02 0.36413063871E+02 0.20063398624E+02 0.12026747516E+02 0.93506126853E+01
 0.83328670474E+01 0.79907764662E+01 0.83296836490E+01 0.93495613592E+01 0.12029408442E+02
 0.20063961019E+02 0.36407175601E+02 0.61508917092E+02 0.92655039587E+02 0.12394967873E+03
 0.11030966581E+03 0.12387089719E+03 0.12387372989E+03 0.11031793434E+03 0.87409561712E+02
 0.61514177972E+02 0.38535763101E+02 0.22136502303E+02 0.13114551485E+02 0.96420435597E+01
 0.83909340526E+01 0.77777129419E+01 0.77768976088E+01 0.83898927502E+01 0.96428151114E+01
 0.13116233385E+02 0.22135214918E+02 0.38528566964E+02 0.61502336270E+02 0.87397508548E+02
 0.73328906741E+02 0.87307776619E+02 0.92523058684E+02 0.87326739502E+02 0.73352211571E+02
 0.54753792283E+02 0.36413097537E+02 0.22136976010E+02 0.13547488939E+02 0.98401172340E+01
 0.84472894816E+01 0.76562633407E+01 0.74045249950E+01 0.76573605416E+01 0.84478133135E+01
 0.98405493656E+01 0.13550723371E+02 0.22142543624E+02 0.36413530390E+02 0.54741062060E+02
 0.43377396841E+02 0.54678561533E+02 0.61383468033E+02 0.61389880322E+02 0.54689736857E+02
 0.43378893591E+02 0.30772817251E+02 0.20064432965E+02 0.13114495527E+02 0.98398812414E+01
 0.84708975447E+01 0.76050981114E+01 0.71993660741E+01 0.72006461684E+01 0.76061993821E+01
 0.84688508325E+01 0.98387187513E+01 0.13121731477E+02 0.20079701162E+02 0.30784821182E+02
 0.23500870830E+02 0.30768003467E+02 0.36361367576E+02 0.38458504640E+02 0.36354959930E+02
 0.30754839333E+02 0.23484223579E+02 0.16720046418E+02 0.12026897875E+02 0.96414236382E+01
 0.84474433950E+01 0.76051785603E+01 0.71347626973E+01 0.69912582591E+01 0.71365069204E+01
 0.76040502222E+01 0.84414585243E+01 0.96358049506E+01 0.12029408442E+02 0.16732584945E+02
 0.13308390799E+02 0.16753146528E+02 0.20100204295E+02 0.22155959647E+02 0.22148530113E+02
 0.20084342470E+02 0.16742068784E+02 0.13310229836E+02 0.10777272943E+02 0.93499064608E+01
 0.83909114696E+01 0.76565867081E+01 0.71990381709E+01 0.69912130157E+01 0.69923361308E+01
 0.72010803655E+01 0.76559641244E+01 0.83839604611E+01 0.93370482476E+01 0.10765339586E+02
 0.97710406693E+01 0.10803509937E+02 0.12093462565E+02 0.13199551425E+02 0.13632939613E+02
 0.13194142558E+02 0.12093313000E+02 0.10815969149E+02 0.97901036770E+01 0.90260623098E+01
 0.83325077650E+01 0.77782940590E+01 0.74043723453E+01 0.72004345881E+01 0.71370518526E+01
 0.72011966885E+01 0.74085906288E+01 0.77842263151E+01 0.83319728043E+01 0.90133643296E+01
 0.86729125101E+01 0.90567354443E+01 0.94174374663E+01 0.97440928185E+01 0.99634756175E+01
 0.99655843317E+01 0.97515655808E+01 0.94299399600E+01 0.90676634468E+01 0.86732643394E+01
 0.82991070117E+01 0.79912702856E+01 0.77772435357E+01 0.76569326020E+01 0.76065476291E+01
 0.76043180203E+01 0.76552128174E+01 0.77839911248E+01 0.80057365183E+01 0.83107732070E+01
 0.83199202768E+01 0.83560979003E+01 0.84212716483E+01 0.85096199976E+01 0.85928125100E+01
 0.86299912326E+01 0.85990073475E+01 0.85156058341E+01 0.84194211725E+01 0.83439555547E+01
 0.83027179693E+01 0.82981039026E+01 0.83302186097E+01 0.83894676382E+01 0.84474433950E+01
 0.84691143446E+01 0.84409346925E+01 0.83835579321E+01 0.83328670474E+01 0.83111003321E+01
 0.86719763471E+01 0.83557654294E+01 0.80987383927E+01 0.79221244427E+01 0.78285035070E+01
 0.77965768291E+01 0.77984187341E+01 0.78293544732E+01 0.79147110306E+01 0.80843887606E+01
 0.83449904542E+01 0.86733273775E+01 0.90250748245E+01 0.93494975289E+01 0.96420925780E+01
 0.98407243705E+01 0.98391297487E+01 0.96357023387E+01 0.93376906418E+01 0.90138647083E+01
 0.97703622239E+01 0.90562651174E+01 0.84221358965E+01 0.79223536273E+01 0.75894327489E+01
 0.74120984695E+01 0.73591202372E+01 0.74119178329E+01 0.75854340835E+01 0.79156985159E+01
 0.84216370928E+01 0.90687139701E+01 0.97901769120E+01 0.10778669360E+02 0.12029113796E+02
 0.13116326142E+02 0.13551627808E+02 0.13121880191E+02 0.12028963437E+02 0.10765300141E+02
 0.13308843823E+02 0.10803657534E+02 0.94180598425E+01 0.85099003487E+01 0.78278046994E+01
 0.74120547537E+01 0.72261558480E+01 0.72252441322E+01 0.74105569221E+01 0.78289810477E+01
 0.85169193306E+01 0.94302503475E+01 0.10814608238E+02 0.13310265342E+02 0.16721725874E+02
 0.20063963261E+02 0.22135615099E+02 0.22142470099E+02 0.20078669064E+02 0.16732171875E+02
 0.23501940766E+02 0.16753656800E+02 0.12093032897E+02 0.97438811875E+01 0.85923249308E+01
 0.77966018340E+01 0.73596089643E+01 0.72250889384E+01 0.73569043168E+01 0.77971372477E+01
 0.85990073475E+01 0.97508090586E+01 0.12091023845E+02 0.16740378366E+02 0.23484223579E+02
 0.30771280638E+02 0.36406742748E+02 0.38528140394E+02 0.36413063871E+02 0.30784891720E+02
 0.43377886728E+02 0.30767871794E+02 0.20099199908E+02 0.13199155222E+02 0.99638611654E+01
 0.86302175496E+01 0.77987271984E+01 0.74115843013E+01 0.74102671063E+01 0.77974207070E+01
 0.86318700101E+01 0.99648034918E+01 0.13192311195E+02 0.20084777416E+02 0.30756352150E+02
 0.43378892842E+02 0.54751960920E+02 0.61508680629E+02 0.61502818790E+02 0.54741851218E+02
 0.73328412891E+02 0.54677561818E+02 0.36360902966E+02 0.22156232611E+02 0.13633793590E+02
 0.99656925286E+01 0.85986636481E+01 0.78291656102E+01 0.75853099519E+01 0.78294909923E+01
 0.85991512273E+01 0.99645261408E+01 0.13628890051E+02 0.22149926530E+02 0.36361298647E+02
 0.54691567472E+02 0.73352227643E+02 0.87416890418E+02 0.92655769377E+02 0.87398070477E+02
 0.11030891059E+03 0.87307070125E+02 0.61383927171E+02 0.38459521846E+02 0.22148921035E+02
 0.13193675008E+02 0.97508987627E+01 0.85158510143E+01 0.79150420509E+01 0.79158003515E+01
 0.85168841598E+01 0.97503538716E+01 0.13192239848E+02 0.22150044488E+02 0.38466134762E+02
 0.61395361284E+02 0.87319427926E+02 0.11031795147E+03 0.12395227477E+03 0.12394903162E+03
 0.14751103469E+03 0.12387165247E+03 0.92523778352E+02 0.61390502253E+02 0.36354564249E+02
 0.20083481885E+02 0.12093032897E+02 0.94305855907E+01 0.84199199761E+01 0.80838642485E+01
 0.84212716483E+01 0.94302736020E+01 0.12091173410E+02 0.20084921219E+02 0.36361367576E+02
 0.61395524078E+02 0.92516703895E+02 0.12385251453E+03 0.14749394579E+03 0.15634387643E+03
 0.17559058192E+03 0.15630915082E+03 0.12387399516E+03 0.87325925673E+02 0.54689105790E+02
 0.30754496459E+02 0.16742406829E+02 0.10816562416E+02 0.90678090893E+01 0.83432339722E+01
 0.83446013426E+01 0.90693299395E+01 0.10815053909E+02 0.16740206139E+02 0.30756140949E+02
 0.54691936119E+02 0.87319320591E+02 0.12385202452E+03 0.15628196761E+03 0.17557811713E+03
 0.17557813923E+03 0.16566522178E+03 0.13917345799E+03 0.10406112788E+03 0.69131002171E+02
 0.40859759145E+02 0.22212132292E+02 0.12801209901E+02 0.95954724462E+01 0.85204095980E+01
 0.81619927265E+01 0.85213711758E+01 0.95961947466E+01 0.12800805634E+02 0.22211100235E+02
 0.40859286442E+02 0.69131494304E+02 0.10406187283E+03 0.13917370163E+03 0.16566507359E+03
 0.16567565641E+03 0.16566434168E+03 0.14749861669E+03 0.11691741419E+03 0.82403774411E+02
 0.51564668202E+02 0.29009475214E+02 0.15922876042E+02 0.10484421185E+02 0.88576823999E+01
 0.81535582422E+01 0.81522910102E+01 0.88562623564E+01 0.10485815382E+02 0.15925005308E+02
 0.29008188999E+02 0.51562303347E+02 0.82409910023E+02 0.11693742110E+03 0.14752330634E+03
 0.13918946260E+03 0.14749268782E+03 0.13917356291E+03 0.11691827074E+03 0.87352191646E+02
 0.57935074814E+02 0.34289180885E+02 0.19007458414E+02 0.11607008150E+02 0.91662480966E+01
 0.81813247292E+01 0.78516344742E+01 0.81782806916E+01 0.91652099096E+01 0.11609552006E+02
 0.19008174432E+02 0.34283890027E+02 0.57929534518E+02 0.87357212631E+02 0.11693528415E+03
 0.10405519559E+03 0.11687414008E+03 0.11687673765E+03 0.10406278077E+03 0.82403715729E+02
 0.57934381184E+02 0.36279550044E+02 0.20927435331E+02 0.12589970376E+02 0.94293800612E+01
 0.82339635649E+01 0.76436602132E+01 0.76428910138E+01 0.82329503404E+01 0.94300081092E+01
 0.12591430233E+02 0.20926183812E+02 0.36272899712E+02 0.57923491993E+02 0.82392649955E+02
 0.69109993589E+02 0.82328584914E+02 0.87261310088E+02 0.82345924137E+02 0.69131255907E+02
 0.51563275223E+02 0.34289211516E+02 0.20927891906E+02 0.12982621658E+02 0.96046019048E+01
 0.82861388654E+01 0.75250779182E+01 0.72839423859E+01 0.75261617625E+01 0.82866421178E+01
 0.96048703551E+01 0.12985375760E+02 0.20932861058E+02 0.34289629766E+02 0.51551720524E+02
 0.40857684021E+02 0.51517319884E+02 0.57851389482E+02 0.57857269893E+02 0.51527538309E+02
 0.40858963725E+02 0.29009254784E+02 0.19008455666E+02 0.12589918862E+02 0.96043751043E+01
 0.83081407408E+01 0.74750233795E+01 0.70867845105E+01 0.70880298263E+01 0.74761700925E+01
 0.83063285793E+01 0.96032679341E+01 0.12596505057E+02 0.19022496622E+02 0.29020374243E+02
 0.22226861211E+02 0.29028776221E+02 0.34284318405E+02 0.36258253364E+02 0.34278527192E+02
 0.29016802896E+02 0.22211632167E+02 0.15923637575E+02 0.11607155325E+02 0.94287832225E+01
 0.82862843118E+01 0.74750996912E+01 0.70247949744E+01 0.68877734554E+01 0.70264542494E+01
 0.74741597909E+01 0.82809023792E+01 0.94237387445E+01 0.11609552006E+02 0.15935180250E+02
 0.12799448873E+02 0.15975514694E+02 0.19082462380E+02 0.20998173110E+02 0.20991397506E+02
 0.19068021474E+02 0.15965492739E+02 0.12801235285E+02 0.10484825189E+02 0.91655661278E+01
 0.82339389082E+01 0.75253879053E+01 0.70864710301E+01 0.68877311260E+01 0.68887223356E+01
 0.70882754865E+01 0.75248050017E+01 0.82276298559E+01 0.91538469008E+01 0.10473875799E+02
 0.95782509701E+01 0.10526695739E+02 0.11703659703E+02 0.12716338315E+02 0.13114129396E+02
 0.12711348542E+02 0.11703514974E+02 0.10538162725E+02 0.95957859370E+01 0.88573485694E+01
 0.81809780958E+01 0.76442213526E+01 0.72837980679E+01 0.70878277909E+01 0.70269777748E+01
 0.70883869315E+01 0.72874993240E+01 0.76495682591E+01 0.81804634920E+01 0.88456795336E+01
 0.85203751564E+01 0.89003323514E+01 0.92567953993E+01 0.95638507541E+01 0.97650890546E+01
 0.97669604833E+01 0.95705670194E+01 0.92681466744E+01 0.89103093426E+01 0.85206977941E+01
 0.81531819449E+01 0.78521140303E+01 0.76432253332E+01 0.75257486466E+01 0.74765035913E+01
 0.74744169779E+01 0.75240818987E+01 0.76493414390E+01 0.78653502633E+01 0.81638698525E+01
 0.81777537026E+01 0.82187128219E+01 0.82875884426E+01 0.83774504909E+01 0.84602740144E+01
 0.84967555141E+01 0.84658610631E+01 0.83828231610E+01 0.82858271068E+01 0.82075780204E+01
 0.81619908228E+01 0.81522307554E+01 0.81787952954E+01 0.82325373175E+01 0.82862843118E+01
 0.83065831497E+01 0.82803991269E+01 0.82272414897E+01 0.81813247292E+01 0.81641858949E+01
 0.85194732003E+01 0.82183912501E+01 0.79744189486E+01 0.78070616374E+01 0.77182906632E+01
 0.76878775959E+01 0.76895915834E+01 0.77191217407E+01 0.78003036290E+01 0.79612924904E+01
 0.82085592480E+01 0.85207574159E+01 0.88564121717E+01 0.91651457646E+01 0.94293117396E+01
 0.96050411277E+01 0.96036655071E+01 0.94236392135E+01 0.91544647246E+01 0.88461631795E+01
 0.95775980174E+01 0.88998770393E+01 0.82884211418E+01 0.78072837089E+01 0.74865956977E+01
 0.73153817933E+01 0.72641437057E+01 0.73153797544E+01 0.74831031449E+01 0.78012400267E+01
 0.82879405596E+01 0.89113053620E+01 0.95958552847E+01 0.10486181950E+02 0.11609268777E+02
 0.12591521283E+02 0.12986247943E+02 0.12596647621E+02 0.11609121603E+02 0.10473838362E+02
 0.12799886860E+02 0.10526837347E+02 0.92573945802E+01 0.83777228624E+01 0.77176178200E+01
 0.73153389424E+01 0.71352032721E+01 0.71344142124E+01 0.73140567139E+01 0.77187350979E+01
 0.83841013716E+01 0.92684736954E+01 0.10536839685E+02 0.12801269005E+02 0.15925368496E+02
 0.19008176285E+02 0.20926568866E+02 0.20932789536E+02 0.19021501224E+02 0.15934781906E+02
 0.22227893268E+02 0.15976007267E+02 0.11703244605E+02 0.95636476481E+01 0.84598048706E+01
 0.76879002220E+01 0.72646136848E+01 0.71342645847E+01 0.72620302529E+01 0.76882708326E+01
 0.84658610631E+01 0.95699553530E+01 0.11701332173E+02 0.15963751625E+02 0.22211632167E+02
 0.29008036716E+02 0.34283471778E+02 0.36272488445E+02 0.34289180885E+02 0.29020442390E+02
 0.40858155729E+02 0.29028649519E+02 0.19081493550E+02 0.12715955765E+02 0.97654611136E+01
 0.84969726179E+01 0.76898879911E+01 0.73150585668E+01 0.73137783772E+01 0.76885446143E+01
 0.84984037602E+01 0.97663530867E+01 0.12709745126E+02 0.19068268129E+02 0.29017998432E+02
 0.40858962730E+02 0.51561671807E+02 0.57929307355E+02 0.57923958461E+02 0.51552481964E+02
 0.69109516210E+02 0.51516355174E+02 0.34283870608E+02 0.20998435775E+02 0.13114952698E+02
 0.97670645297E+01 0.84655298550E+01 0.77189408605E+01 0.74829841661E+01 0.77192270609E+01
 0.84659989988E+01 0.97660850741E+01 0.13110587212E+02 0.20992754267E+02 0.34284252176E+02
 0.51529140730E+02 0.69131270661E+02 0.82410392974E+02 0.87357916630E+02 0.82393191588E+02
 0.10405446654E+03 0.82327903360E+02 0.57851832951E+02 0.36259234639E+02 0.20991774433E+02
 0.12710897839E+02 0.95699246367E+01 0.83830611636E+01 0.78006223671E+01 0.78013366934E+01
 0.83840670028E+01 0.95695160763E+01 0.12709676973E+02 0.20992868529E+02 0.36265322586E+02
 0.57862328814E+02 0.82339262795E+02 0.10406279667E+03 0.11693765185E+03 0.11693465835E+03
 0.13918921897E+03 0.11687487007E+03 0.87262005214E+02 0.57857870077E+02 0.34278145623E+02
 0.19067191667E+02 0.11703244605E+02 0.92687700069E+01 0.82863076891E+01 0.79607840837E+01
 0.82875884426E+01 0.92684978470E+01 0.11701476902E+02 0.19068407152E+02 0.34284318405E+02
 0.57862485528E+02 0.87255570350E+02 0.11685736194E+03 0.13917356291E+03 0.14752189798E+03
 0.16567579560E+03 0.14749435868E+03 0.11687699472E+03 0.82345138522E+02 0.51526928994E+02
 0.29016472283E+02 0.15965817800E+02 0.10538734208E+02 0.89104508592E+01 0.82068810325E+01
 0.82081838320E+01 0.89119021907E+01 0.10537269559E+02 0.15963584114E+02 0.29017794521E+02
 0.51529496125E+02 0.82339158733E+02 0.11685688902E+03 0.14746939423E+03 0.16566433267E+03
 0.14749159010E+03 0.13917210181E+03 0.11689181325E+03 0.87282440490E+02 0.57827211058E+02
 0.34168335093E+02 0.18895788669E+02 0.11509384983E+02 0.90794156132E+01 0.81045055840E+01
 0.77806990825E+01 0.81053612175E+01 0.90800548691E+01 0.11509017536E+02 0.18894863413E+02
 0.34167914284E+02 0.57827655138E+02 0.87283109609E+02 0.11689203167E+03 0.13917196866E+03
 0.13918003158E+03 0.13917130965E+03 0.12389405796E+03 0.98114012619E+02 0.68981857441E+02
 0.43053948651E+02 0.24369434933E+02 0.13877182057E+02 0.97379300257E+01 0.83923531251E+01
 0.77549102198E+01 0.77538172557E+01 0.83911208660E+01 0.97391955056E+01 0.13879354232E+02
 0.24368934701E+02 0.43052235870E+02 0.68986368831E+02 0.98129196953E+02 0.12391300768E+03
 0.11690405877E+03 0.12390145176E+03 0.11689190480E+03 0.98114782468E+02 0.73145826757E+02
 0.48369044131E+02 0.28673810646E+02 0.16271594469E+02 0.10541183305E+02 0.86591596936E+01
 0.77647960767E+01 0.74704003189E+01 0.77621428643E+01 0.86581727969E+01 0.10543399113E+02
 0.16272662920E+02 0.28670045420E+02 0.48364656883E+02 0.73149346523E+02 0.98127622676E+02
 0.87278113886E+02 0.98112504023E+02 0.98114492215E+02 0.87283925945E+02 0.68981809187E+02
 0.48368421986E+02 0.30305467484E+02 0.17781809257E+02 0.11254752430E+02 0.88654247375E+01
 0.78004354805E+01 0.72749359919E+01 0.72742933131E+01 0.77995124368E+01 0.88657017583E+01
 0.11255656743E+02 0.17780669320E+02 0.30300249175E+02 0.48360015403E+02 0.68973310182E+02
 0.57811463498E+02 0.68976207288E+02 0.73147562747E+02 0.68989339091E+02 0.57827443032E+02
 0.43052699275E+02 0.28673832686E+02 0.17782217591E+02 0.11542927480E+02 0.89892138499E+01
 0.78396362341E+01 0.71628901904E+01 0.69511012517E+01 0.71639221634E+01 0.78400818985E+01
 0.89890877903E+01 0.11544483922E+02 0.17785665043E+02 0.28674209960E+02 0.43044172944E+02
 0.34166884822E+02 0.43083351089E+02 0.48410222064E+02 0.48414719321E+02 0.43091088089E+02
 0.34167621574E+02 0.24369232608E+02 0.16272487225E+02 0.11254713291E+02 0.89890128247E+01
 0.78566729337E+01 0.71150794099E+01 0.67748710020E+01 0.67760070053E+01 0.71163075174E+01
 0.78554516980E+01 0.89880583276E+01 0.11259623003E+02 0.16283329585E+02 0.24378027090E+02
 0.18906890513E+02 0.24453410947E+02 0.28792741510E+02 0.30431900022E+02 0.28788531399E+02
 0.24444509319E+02 0.18895340753E+02 0.13877865913E+02 0.10541321343E+02 0.88648928125E+01
 0.78397583066E+01 0.71151443129E+01 0.67196519400E+01 0.66001511809E+01 0.67210729328E+01
 0.71146683212E+01 0.78359173588E+01 0.88613157688E+01 0.10543399113E+02 0.13886807424E+02
 0.11507783705E+02 0.13981639002E+02 0.16450740040E+02 0.17991584946E+02 0.17986499447E+02
 0.16439966260E+02 0.13974328638E+02 0.11509411103E+02 0.97382912497E+01 0.86585462729E+01
 0.78004054655E+01 0.71631628445E+01 0.67745975758E+01 0.66001167953E+01 0.66007752779E+01
 0.67758026374E+01 0.71626883329E+01 0.77957505442E+01 0.86497694248E+01 0.97298987492E+01
 0.90661430882E+01 0.98260893077E+01 0.10724694954E+02 0.11500125557E+02 0.11806502902E+02
 0.11496232814E+02 0.10724563961E+02 0.98349648649E+01 0.90796913481E+01 0.83920469844E+01
 0.77644851311E+01 0.72754407216E+01 0.69509798312E+01 0.67758314064E+01 0.67215366204E+01
 0.67759004647E+01 0.69533811109E+01 0.72792890362E+01 0.77640275448E+01 0.83830579401E+01
 0.81045153325E+01 0.84742791545E+01 0.88249655821E+01 0.91026772098E+01 0.92675139484E+01
 0.92687851733E+01 0.91074625598E+01 0.88333518874E+01 0.84817918029E+01 0.81047592492E+01
 0.77545785575E+01 0.74708390704E+01 0.72745948367E+01 0.71635507901E+01 0.71165999315E+01
 0.71148958321E+01 0.71620443054E+01 0.72790858301E+01 0.74808834066E+01 0.77627260665E+01
 0.77927261829E+01 0.78506111168E+01 0.79341682537E+01 0.80328659721E+01 0.81183595393E+01
 0.81543818697E+01 0.81223896218E+01 0.80366740867E+01 0.79326561569E+01 0.78420967347E+01
 0.77807018231E+01 0.77537703172E+01 0.77626004506E+01 0.77991339903E+01 0.78397583066E+01
 0.78556811156E+01 0.78354716944E+01 0.77954021127E+01 0.77647960767E+01 0.77630107903E+01
 0.81037097229E+01 0.78503203776E+01 0.76495477013E+01 0.75156693965E+01 0.74474689567E+01
 0.74256021671E+01 0.74269762022E+01 0.74482337758E+01 0.75106054477E+01 0.76395957417E+01
 0.78429302404E+01 0.81048092731E+01 0.83912511234E+01 0.86581083034E+01 0.88650789399E+01
 0.89892464264E+01 0.89884179888E+01 0.88612248754E+01 0.86503183520E+01 0.83834943382E+01
 0.90655618432E+01 0.84738662965E+01 0.79349118338E+01 0.75158712858E+01 0.72392721222E+01
 0.70927469122E+01 0.70492259980E+01 0.70931689252E+01 0.72370519362E+01 0.75114013087E+01
 0.79344828264E+01 0.84826376879E+01 0.90797493590E+01 0.97395250802E+01 0.10543148013E+02
 0.11255742754E+02 0.11545265350E+02 0.11259748153E+02 0.10543009975E+02 0.97298670998E+01
 0.11508179151E+02 0.98262139271E+01 0.88254992708E+01 0.80331156524E+01 0.74468695262E+01
 0.70927065531E+01 0.69348896855E+01 0.69344083439E+01 0.70919630932E+01 0.74478238048E+01
 0.80378422741E+01 0.88337118344E+01 0.98337590329E+01 0.11509439102E+02 0.13879681479E+02
 0.16272663594E+02 0.17781011759E+02 0.17785599148E+02 0.16282437503E+02 0.13886450815E+02
 0.18907815769E+02 0.13982081412E+02 0.10724321078E+02 0.91024981509E+01 0.81179425027E+01
 0.74256181925E+01 0.70496429887E+01 0.69342745131E+01 0.70473993284E+01 0.74255896815E+01
 0.81223896218E+01 0.91072073344E+01 0.10722679281E+02 0.13972504148E+02 0.18895340753E+02
 0.24368793805E+02 0.28669668147E+02 0.30299881101E+02 0.28673810646E+02 0.24378088519E+02
 0.34167305405E+02 0.24453298233E+02 0.16449871684E+02 0.11499781698E+02 0.92678478435E+01
 0.81545730543E+01 0.74272385400E+01 0.70928826973E+01 0.70917172244E+01 0.74258359939E+01
 0.81554492021E+01 0.92686013705E+01 0.11495203126E+02 0.16439762118E+02 0.24444929274E+02
 0.34167621349E+02 0.43051669588E+02 0.48364455951E+02 0.48360436616E+02 0.43044856038E+02
 0.57811032747E+02 0.43082485363E+02 0.28792341105E+02 0.17991818654E+02 0.11807239473E+02
 0.92688775313E+01 0.81220937136E+01 0.74480753583E+01 0.72369475809E+01 0.74482648177E+01
 0.81225107501E+01 0.92683598333E+01 0.11804236372E+02 0.17987733277E+02 0.28792682610E+02
 0.43092117552E+02 0.57827456360E+02 0.68986804910E+02 0.73149977968E+02 0.68973794515E+02
 0.87277458744E+02 0.68975596225E+02 0.48410621072E+02 0.30432779788E+02 0.17986836907E+02
 0.11495829640E+02 0.91068892375E+01 0.80368915666E+01 0.75108895395E+01 0.75114835113E+01
 0.80378100737E+01 0.91068130711E+01 0.11495143811E+02 0.17987837030E+02 0.30437491502E+02
 0.48418671604E+02 0.68984357344E+02 0.87283939922E+02 0.98129401417E+02 0.98127057291E+02
 0.11690384035E+03 0.98113162370E+02 0.73148188286E+02 0.48415257958E+02 0.28788189895E+02
 0.16439223364E+02 0.10724321078E+02 0.88339120709E+01 0.79330851642E+01 0.76391332082E+01
 0.79341682537E+01 0.88337383292E+01 0.10722810273E+02 0.16439887577E+02 0.28792741510E+02
 0.48418811233E+02 0.73143398208E+02 0.98099877860E+02 0.11689190480E+03 0.12391173951E+03
 0.13918015692E+03 0.12390295600E+03 0.98114725900E+02 0.68988633074E+02 0.43090540466E+02
 0.24444213443E+02 0.13974616969E+02 0.98354748616E+01 0.84819213990E+01 0.78414694141E+01
 0.78425936590E+01 0.84831801419E+01 0.98341444102E+01 0.13972350069E+02 0.24444746111E+02
 0.43092435655E+02 0.68984262391E+02 0.98099453197E+02 0.12388375946E+03 0.13917130183E+03
 0.11028737125E+03 0.10403479313E+03 0.87261865288E+02 0.64955614952E+02 0.42888782112E+02
 0.25511695217E+02 0.14782660687E+02 0.99822259333E+01 0.83659747577E+01 0.75302387925E+01
 0.72597576892E+01 0.75309399812E+01 0.83664927116E+01 0.99819121470E+01 0.14781892587E+02
 0.25511353495E+02 0.42889160129E+02 0.64956175741E+02 0.87262046612E+02 0.10403468067E+03
 0.10403962712E+03 0.10403413130E+03 0.92527082944E+02 0.73086448225E+02 0.51174052096E+02
 0.31921801302E+02 0.18491294236E+02 0.11413061804E+02 0.88174059554E+01 0.77379944906E+01
 0.72036723033E+01 0.72028253328E+01 0.77370282150E+01 0.88184553805E+01 0.11415140711E+02
 0.18491635072E+02 0.31920863675E+02 0.51176594578E+02 0.73095691868E+02 0.92538911634E+02
 0.87269449556E+02 0.92551555675E+02 0.87261937388E+02 0.73087090037E+02 0.54278978110E+02
 0.35799640978E+02 0.21480546020E+02 0.12918709463E+02 0.92694740398E+01 0.79363871567E+01
 0.71824713148E+01 0.69403184562E+01 0.71803828472E+01 0.79355114363E+01 0.92712157472E+01
 0.12920083600E+02 0.21478597670E+02 0.35796714367E+02 0.54280711766E+02 0.73094797805E+02
 0.64953233473E+02 0.73137932904E+02 0.73139169486E+02 0.64956853248E+02 0.51174019132E+02
 0.35799123988E+02 0.22626424370E+02 0.13892678002E+02 0.96654327091E+01 0.80905635860E+01
 0.71887139879E+01 0.67580668396E+01 0.67575987029E+01 0.71879490294E+01 0.80904651401E+01
 0.96657077849E+01 0.13891727724E+02 0.22623019605E+02 0.35793816119E+02 0.51168705857E+02
 0.42879481932E+02 0.51256297915E+02 0.54397956880E+02 0.51264246229E+02 0.42888981547E+02
 0.31920763081E+02 0.21480555306E+02 0.13893015557E+02 0.98273248756E+01 0.81743807991E+01
 0.72056547701E+01 0.66511794806E+01 0.64807396141E+01 0.66520985496E+01 0.72060169989E+01
 0.81738518541E+01 0.98275380482E+01 0.13894669992E+02 0.21480872922E+02 0.31915917222E+02
 0.25510979112E+02 0.32048770865E+02 0.35999381727E+02 0.36002161475E+02 0.32053446199E+02
 0.25511101852E+02 0.18491118641E+02 0.12919448785E+02 0.96654113090E+01 0.81742172757E+01
 0.72142226056E+01 0.66041222280E+01 0.63305158943E+01 0.63314643164E+01 0.66053506041E+01
 0.72136836865E+01 0.81734774711E+01 0.96682756699E+01 0.12926298499E+02 0.18496955908E+02
 0.14789295531E+02 0.18659727269E+02 0.21759594441E+02 0.22943456675E+02 0.21757286639E+02
 0.18654570204E+02 0.14782289981E+02 0.11413631313E+02 0.92695981709E+01 0.80901266194E+01
 0.72057438931E+01 0.66041710981E+01 0.62835132710E+01 0.61875411884E+01 0.62845913199E+01
 0.66041998368E+01 0.72037417464E+01 0.80882992562E+01 0.92712157472E+01 0.11419310780E+02
 0.99808855361E+01 0.11589450636E+02 0.13239317780E+02 0.14289554905E+02 0.14286539288E+02
 0.13233020197E+02 0.11585412576E+02 0.99822529369E+01 0.88177042609E+01 0.79358749731E+01
 0.71886775245E+01 0.66513983665E+01 0.63302996164E+01 0.61875176761E+01 0.61877914151E+01
 0.63308120886E+01 0.66510719388E+01 0.71860333722E+01 0.79306975312E+01 0.88124823166E+01
 0.83576344934E+01 0.89744695495E+01 0.95812557446E+01 0.10084336716E+02 0.10282535927E+02
 0.10081826306E+02 0.95811452659E+01 0.89800962153E+01 0.83661954931E+01 0.77377302448E+01
 0.71822129433E+01 0.67584883782E+01 0.64806501411E+01 0.63313262272E+01 0.62849685449E+01
 0.63308902774E+01 0.64815595927E+01 0.67605409710E+01 0.71818381210E+01 0.77320817620E+01
 0.75303034028E+01 0.78840998737E+01 0.82244051726E+01 0.84943270613E+01 0.86433638915E+01
 0.86439364462E+01 0.84968153858E+01 0.82291898484E+01 0.78885773960E+01 0.75304421849E+01
 0.72034050691E+01 0.69406955006E+01 0.67578517997E+01 0.66517883989E+01 0.66055840608E+01
 0.66043844233E+01 0.66505429021E+01 0.67603725292E+01 0.69467955505E+01 0.72084083643E+01
 0.72671606336E+01 0.73545024808E+01 0.74641499324E+01 0.75804073630E+01 0.76736493906E+01
 0.77106907841E+01 0.76758119818E+01 0.75823563171E+01 0.74629958451E+01 0.73492429394E+01
 0.72597658736E+01 0.72027965554E+01 0.71807576695E+01 0.71876228488E+01 0.72057438931E+01
 0.72138762874E+01 0.72033795176E+01 0.71857436551E+01 0.71824713148E+01 0.72086468211E+01
 0.75296392216E+01 0.73542573878E+01 0.72252901806E+01 0.71494185807E+01 0.71195492261E+01
 0.71153372728E+01 0.71162690962E+01 0.71201918062E+01 0.71464297425E+01 0.72192623453E+01
 0.73498705751E+01 0.75304791924E+01 0.77371306738E+01 0.79354479331E+01 0.80899498061E+01
 0.81739920879E+01 0.81737812282E+01 0.80882208889E+01 0.79311462116E+01 0.77324484666E+01
 0.83571582663E+01 0.78837498084E+01 0.74647619649E+01 0.71495904204E+01 0.69496018723E+01
 0.68483423221E+01 0.68195277029E+01 0.68491776512E+01 0.69488390597E+01 0.71470293134E+01
 0.74644093921E+01 0.78892139745E+01 0.83662372200E+01 0.88187308717E+01 0.92710117179E+01
 0.96657856921E+01 0.98281865812E+01 0.96683749772E+01 0.92708875867E+01 0.88124595024E+01
 0.99812180206E+01 0.89745688457E+01 0.82248422957E+01 0.75806231142E+01 0.71190583996E+01
 0.68483057735E+01 0.67307434593E+01 0.67306126699E+01 0.68481697385E+01 0.71197834645E+01
 0.75833361649E+01 0.82295611826E+01 0.89790883026E+01 0.99822716351E+01 0.11415415610E+02
 0.12920082315E+02 0.13892007644E+02 0.13894612357E+02 0.12925557892E+02 0.11419016169E+02
 0.14790063631E+02 0.11589818537E+02 0.95809429360E+01 0.84941834275E+01 0.76733093833E+01
 0.71153438379E+01 0.68198663240E+01 0.67305023930E+01 0.68181141560E+01 0.71149026789E+01
 0.76758119818E+01 0.84969456537E+01 0.95796899921E+01 0.11583619119E+02 0.14782289981E+02
 0.18491511104E+02 0.21478280053E+02 0.22622715256E+02 0.21480546020E+02 0.18497007535E+02
 0.25511324854E+02 0.18659635060E+02 0.13238597859E+02 0.10084050358E+02 0.86436412327E+01
 0.77108439758E+01 0.71164810473E+01 0.68489433231E+01 0.68479719590E+01 0.71151080649E+01
 0.77110892120E+01 0.86442026616E+01 0.10081455943E+02 0.13232363949E+02 0.18654164182E+02
 0.25511105872E+02 0.31920392718E+02 0.35796552083E+02 0.35794170825E+02 0.31916484485E+02
 0.42879120296E+02 0.32048051548E+02 0.21759263770E+02 0.14289746230E+02 0.10283144214E+02
 0.86440115957E+01 0.76755682545E+01 0.71200663123E+01 0.69487565480E+01 0.71201487970E+01
 0.76759082618E+01 0.86440004699E+01 0.10281732329E+02 0.14287565899E+02 0.21759545510E+02
 0.32053820582E+02 0.42888997928E+02 0.51176961400E+02 0.54281236981E+02 0.51169105643E+02
 0.64952687373E+02 0.51255791056E+02 0.35999714498E+02 0.22944186544E+02 0.14286818651E+02
 0.10081493142E+02 0.84963441600E+01 0.75825427804E+01 0.71466628415E+01 0.71470905727E+01
 0.75833068771E+01 0.84966180618E+01 0.10081409137E+02 0.14287653937E+02 0.22947160638E+02
 0.36004714671E+02 0.51261318651E+02 0.64956867937E+02 0.73095858132E+02 0.73094322257E+02
 0.87269268232E+02 0.73138484920E+02 0.54398478964E+02 0.36002608908E+02 0.21757004898E+02
 0.13232405507E+02 0.95809429360E+01 0.82296563721E+01 0.74633484179E+01 0.72188686206E+01
 0.74641499324E+01 0.82295905832E+01 0.95798004707E+01 0.13232469180E+02 0.21759594441E+02
 0.36004829333E+02 0.54395681628E+02 0.73130405229E+02 0.87261937388E+02 0.92537851386E+02
 0.10403973194E+03 0.92552812902E+02 0.73139368096E+02 0.51263657448E+02 0.32052990361E+02
 0.18654325884E+02 0.11585646571E+02 0.89805155713E+01 0.78886886213E+01 0.73487190040E+01
 0.73495917326E+01 0.78896752651E+01 0.89794083625E+01 0.11583485212E+02 0.18654012072E+02
 0.32054084061E+02 0.51261236728E+02 0.73130051823E+02 0.92540776346E+02 0.10403412366E+03
 0.73197389051E+02 0.68987099056E+02 0.57710893233E+02 0.42816069716E+02 0.28359485959E+02
 0.17445710343E+02 0.11221554370E+02 0.86975145322E+01 0.75795319566E+01 0.69204496996E+01
 0.67131030029E+01 0.69209761290E+01 0.75799136348E+01 0.86972642766E+01 0.11220968383E+02
 0.17445462369E+02 0.28359791845E+02 0.42816508347E+02 0.57711031566E+02 0.68987008974E+02
 0.68989238379E+02 0.68986589824E+02 0.61234157058E+02 0.48192330203E+02 0.33683968338E+02
 0.21324838667E+02 0.13217531181E+02 0.93564031213E+01 0.78949810597E+01 0.70303371439E+01