   2   2   0   0
  0.1105851E+02  0.2423200E-09  0.2423200E-09  0.4349280E-09  0.5000000E-15
  1.000000000000000E-004
  CAR 
 unknown system                          
     69.22467114     -5.83005639  301      6.01161836      1.00000000
     -5.830  0.0000E+00  0.0000E+00
     -5.580  0.0000E+00  0.0000E+00
     -5.330  0.0000E+00  0.0000E+00
     -5.080  0.0000E+00  0.0000E+00
     -4.829  0.0000E+00  0.0000E+00
     -4.579  0.0000E+00  0.0000E+00
     -4.329  0.0000E+00  0.0000E+00
     -4.079 -0.1662E-31 -0.4159E-32
     -3.829 -0.3111E-23 -0.7783E-24
     -3.578 -0.2424E-16 -0.6065E-17
     -3.328 -0.8120E-11 -0.2032E-11
     -3.078 -0.1139E-06 -0.2850E-07
     -2.828 -0.6189E-04 -0.1551E-04
     -2.578 -0.4359E-03 -0.1246E-03
     -2.328  0.8873E-02  0.2095E-02
     -2.077  0.6117E-01  0.1740E-01
     -1.827  0.1083E+00  0.4449E-01
     -1.577  0.6472E-01  0.6068E-01
     -1.327  0.1655E+00  0.1021E+00
     -1.077  0.1949E+00  0.1509E+00
     -0.826  0.1928E+00  0.1991E+00
     -0.576  0.9399E-01  0.2226E+00
     -0.326  0.2807E+00  0.2928E+00
     -0.076  0.2881E+00  0.3649E+00
      0.174  0.3486E+00  0.4521E+00
      0.425  0.2797E+00  0.5221E+00
      0.675  0.2468E+00  0.5838E+00
      0.925  0.4490E+00  0.6961E+00
      1.175  0.6711E+00  0.8641E+00
      1.425  0.8135E+00  0.1068E+01
      1.675  0.1108E+01  0.1345E+01
      1.926  0.2019E+01  0.1850E+01
      2.176  0.2671E+01  0.2518E+01
      2.426  0.2360E+01  0.3108E+01
      2.676  0.3032E+01  0.3867E+01
      2.926  0.2625E+01  0.4524E+01
      3.177  0.3463E+01  0.5390E+01
      3.427  0.3527E+01  0.6272E+01
      3.677  0.3511E+01  0.7151E+01
      3.927  0.2670E+01  0.7819E+01
      4.177  0.3150E+01  0.8607E+01
      4.427  0.4584E+01  0.9754E+01
      4.678  0.4249E+01  0.1082E+02
      4.928  0.4076E+01  0.1184E+02
      5.178  0.3808E+01  0.1279E+02
      5.428  0.4099E+01  0.1381E+02
      5.678  0.3754E+01  0.1475E+02
      5.929  0.3848E+01  0.1572E+02
      6.179  0.3328E+01  0.1655E+02
      6.429  0.4430E+01  0.1766E+02
      6.679  0.5635E+01  0.1907E+02
      6.929  0.4994E+01  0.2032E+02
      7.179  0.3373E+01  0.2116E+02
      7.430  0.4318E+00  0.2127E+02
      7.680  0.5312E+00  0.2140E+02
      7.930  0.6987E+00  0.2158E+02
      8.180  0.8988E+00  0.2180E+02
      8.430  0.7975E+00  0.2200E+02
      8.681  0.4592E+00  0.2212E+02
      8.931  0.3819E+00  0.2221E+02
      9.181  0.5434E+00  0.2235E+02
      9.431  0.4093E+00  0.2245E+02
      9.681  0.6098E+00  0.2260E+02
      9.931  0.6300E+00  0.2276E+02
     10.182  0.4664E+00  0.2288E+02
     10.432  0.5025E+00  0.2300E+02
     10.682  0.5622E+00  0.2314E+02
     10.932  0.2181E+00  0.2320E+02
     11.182  0.3347E+00  0.2328E+02
     11.433  0.3734E+00  0.2337E+02
     11.683  0.4601E+00  0.2349E+02
     11.933  0.2916E+00  0.2356E+02
     12.183  0.2749E+00  0.2363E+02
     12.433  0.5320E+00  0.2376E+02
     12.683  0.6886E+00  0.2394E+02
     12.934  0.3592E+00  0.2403E+02
     13.184  0.1891E+00  0.2407E+02
     13.434  0.2381E+00  0.2413E+02
     13.684  0.1163E+00  0.2416E+02
     13.934  0.1144E+00  0.2419E+02
     14.185  0.2735E+00  0.2426E+02
     14.435  0.3055E+00  0.2434E+02
     14.685  0.2624E+00  0.2440E+02
     14.935  0.8129E+00  0.2460E+02
     15.185  0.9496E+00  0.2484E+02
     15.435  0.9024E+00  0.2507E+02
     15.686  0.7618E+00  0.2526E+02
     15.936  0.6312E+00  0.2542E+02
     16.186  0.4593E+00  0.2553E+02
     16.436  0.7205E+00  0.2571E+02
     16.686  0.9346E+00  0.2595E+02
     16.937  0.6794E+00  0.2612E+02
     17.187  0.7993E+00  0.2632E+02
     17.437  0.9567E+00  0.2656E+02
     17.687  0.4707E+00  0.2667E+02
     17.937  0.4321E+00  0.2678E+02
     18.187  0.9014E+00  0.2701E+02
     18.438  0.6414E+00  0.2717E+02
     18.688  0.7247E+00  0.2735E+02
     18.938  0.4775E+00  0.2747E+02
     19.188  0.7019E+00  0.2764E+02
     19.438  0.5233E+00  0.2777E+02
     19.689  0.3818E+00  0.2787E+02
     19.939  0.8372E+00  0.2808E+02
     20.189  0.7004E+00  0.2825E+02
     20.439  0.6080E+00  0.2841E+02
     20.689  0.8610E+00  0.2862E+02
     20.939  0.5717E+00  0.2876E+02
     21.190  0.6107E+00  0.2892E+02
     21.440  0.7830E+00  0.2911E+02
     21.690  0.1341E+01  0.2945E+02
     21.940  0.9549E+00  0.2969E+02
     22.190  0.5661E+00  0.2983E+02
     22.441  0.1245E+01  0.3014E+02
     22.691  0.6246E+00  0.3030E+02
     22.941  0.6456E+00  0.3046E+02
     23.191  0.1221E+01  0.3076E+02
     23.441  0.1001E+01  0.3101E+02
     23.691  0.9349E+00  0.3125E+02
     23.942  0.7926E+00  0.3145E+02
     24.192  0.1015E+01  0.3170E+02
     24.442  0.1197E+01  0.3200E+02
     24.692  0.1386E+01  0.3235E+02
     24.942  0.8799E+00  0.3257E+02
     25.193  0.5273E+00  0.3270E+02
     25.443  0.9123E+00  0.3293E+02
     25.693  0.8470E+00  0.3314E+02
     25.943  0.7710E+00  0.3333E+02
     26.193  0.1139E+01  0.3362E+02
     26.443  0.6206E+00  0.3377E+02
     26.694  0.7302E+00  0.3396E+02
     26.944  0.1120E+01  0.3424E+02
     27.194  0.6603E+00  0.3440E+02
     27.444  0.7488E+00  0.3459E+02
     27.694  0.4716E+00  0.3471E+02
     27.945  0.4830E+00  0.3483E+02
     28.195  0.6160E+00  0.3498E+02
     28.445  0.8314E+00  0.3519E+02
     28.695  0.9214E+00  0.3542E+02
     28.945  0.8450E+00  0.3563E+02
     29.195  0.7024E+00  0.3581E+02
     29.446  0.7979E+00  0.3601E+02
     29.696  0.8654E+00  0.3622E+02
     29.946  0.1311E+01  0.3655E+02
     30.196  0.9268E+00  0.3678E+02
     30.446  0.7065E+00  0.3696E+02
     30.697  0.5577E+00  0.3710E+02
     30.947  0.8772E+00  0.3732E+02
     31.197  0.7843E+00  0.3751E+02
     31.447  0.7755E+00  0.3771E+02
     31.697  0.1113E+01  0.3799E+02
     31.947  0.9968E+00  0.3824E+02
     32.198  0.1017E+01  0.3849E+02
     32.448  0.8811E+00  0.3871E+02
     32.698  0.1128E+01  0.3899E+02
     32.948  0.9524E+00  0.3923E+02
     33.198  0.1261E+01  0.3955E+02
     33.449  0.1262E+01  0.3986E+02
     33.699  0.1055E+01  0.4013E+02
     33.949  0.1253E+01  0.4044E+02
     34.199  0.9106E+00  0.4067E+02
     34.449  0.9236E+00  0.4090E+02
     34.699  0.7711E+00  0.4109E+02
     34.950  0.8154E+00  0.4130E+02
     35.200  0.6992E+00  0.4147E+02
     35.450  0.5293E+00  0.4160E+02
     35.700  0.8031E+00  0.4180E+02
     35.950  0.6454E+00  0.4197E+02
     36.201  0.4445E+00  0.4208E+02
     36.451  0.1202E+01  0.4238E+02
     36.701  0.1231E+01  0.4269E+02
     36.951  0.1019E+01  0.4294E+02
     37.201  0.8829E+00  0.4316E+02
     37.452  0.8240E+00  0.4337E+02
     37.702  0.7994E+00  0.4357E+02
     37.952  0.8560E+00  0.4378E+02
     38.202  0.9661E+00  0.4402E+02
     38.452  0.1123E+01  0.4430E+02
     38.702  0.6865E+00  0.4448E+02
     38.953  0.1632E+01  0.4489E+02
     39.203  0.1030E+01  0.4514E+02
     39.453  0.9470E+00  0.4538E+02
     39.703  0.1044E+01  0.4564E+02
     39.953  0.1061E+01  0.4591E+02
     40.204  0.9568E+00  0.4615E+02
     40.454  0.1131E+01  0.4643E+02
     40.704  0.1156E+01  0.4672E+02
     40.954  0.1138E+01  0.4700E+02
     41.204  0.1159E+01  0.4729E+02
     41.454  0.1040E+01  0.4755E+02
     41.705  0.1334E+01  0.4789E+02
     41.955  0.1188E+01  0.4818E+02
     42.205  0.9320E+00  0.4842E+02
     42.455  0.6182E+00  0.4857E+02
     42.705  0.1047E+01  0.4883E+02
     42.956  0.1238E+01  0.4914E+02
     43.206  0.7600E+00  0.4933E+02
     43.456  0.7700E+00  0.4953E+02
     43.706  0.1149E+01  0.4981E+02
     43.956  0.1007E+01  0.5006E+02
     44.206  0.1517E+01  0.5044E+02
     44.457  0.1054E+01  0.5071E+02
     44.707  0.7346E+00  0.5089E+02
     44.957  0.6355E+00  0.5105E+02
     45.207  0.1038E+01  0.5131E+02
     45.457  0.1311E+01  0.5164E+02
     45.708  0.1288E+01  0.5196E+02
     45.958  0.8556E+00  0.5217E+02
     46.208  0.8001E+00  0.5238E+02
     46.458  0.9624E+00  0.5262E+02
     46.708  0.1145E+01  0.5290E+02
     46.958  0.1487E+01  0.5327E+02
     47.209  0.1717E+01  0.5370E+02
     47.459  0.1317E+01  0.5403E+02
     47.709  0.1225E+01  0.5434E+02
     47.959  0.1271E+01  0.5466E+02
     48.209  0.1113E+01  0.5494E+02
     48.460  0.7538E+00  0.5512E+02
     48.710  0.1005E+01  0.5538E+02
     48.960  0.1619E+01  0.5578E+02
     49.210  0.6696E+00  0.5595E+02
     49.460  0.9917E+00  0.5620E+02
     49.710  0.1167E+01  0.5649E+02
     49.961  0.8603E+00  0.5670E+02
     50.211  0.1413E+01  0.5706E+02
     50.461  0.1168E+01  0.5735E+02
     50.711  0.1314E+01  0.5768E+02
     50.961  0.1668E+01  0.5810E+02
     51.212  0.1278E+01  0.5842E+02
     51.462  0.1438E+01  0.5878E+02
     51.712  0.1190E+01  0.5907E+02
     51.962  0.1512E+01  0.5945E+02
     52.212  0.1043E+01  0.5971E+02
     52.462  0.9297E+00  0.5995E+02
     52.713  0.8634E+00  0.6016E+02
     52.963  0.1300E+01  0.6049E+02
     53.213  0.1644E+01  0.6090E+02
     53.463  0.1653E+01  0.6131E+02
     53.713  0.1545E+01  0.6170E+02
     53.964  0.1740E+01  0.6213E+02
     54.214  0.1157E+01  0.6242E+02
     54.464  0.1333E+01  0.6276E+02
     54.714  0.1241E+01  0.6307E+02
     54.964  0.1643E+01  0.6348E+02
     55.214  0.1730E+01  0.6391E+02
     55.465  0.1041E+01  0.6417E+02
     55.715  0.1516E+01  0.6455E+02
     55.965  0.1554E+01  0.6494E+02
     56.215  0.1342E+01  0.6527E+02
     56.465  0.1426E+01  0.6563E+02
     56.716  0.1625E+01  0.6604E+02
     56.966  0.1625E+01  0.6644E+02
     57.216  0.1860E+01  0.6691E+02
     57.466  0.1553E+01  0.6730E+02
     57.716  0.1174E+01  0.6759E+02
     57.966  0.1217E+01  0.6790E+02
     58.217  0.1665E+01  0.6831E+02
     58.467  0.1652E+01  0.6873E+02
     58.717  0.8851E+00  0.6895E+02
     58.967  0.1566E+01  0.6934E+02
     59.217  0.1850E+01  0.6980E+02
     59.468  0.1749E+01  0.7024E+02
     59.718  0.1757E+01  0.7068E+02
     59.968  0.1348E+01  0.7102E+02
     60.218  0.1248E+01  0.7133E+02
     60.468  0.1486E+01  0.7170E+02
     60.718  0.2191E+01  0.7225E+02
     60.969  0.1619E+01  0.7265E+02
     61.219  0.1976E+01  0.7315E+02
     61.469  0.1725E+01  0.7358E+02
     61.719  0.1435E+01  0.7394E+02
     61.969  0.1382E+01  0.7428E+02
     62.220  0.2186E+01  0.7483E+02
     62.470  0.2061E+01  0.7535E+02
     62.720  0.1722E+01  0.7578E+02
     62.970  0.2296E+01  0.7635E+02
     63.220  0.2339E+01  0.7694E+02
     63.470  0.1353E+01  0.7728E+02
     63.721  0.2543E+01  0.7791E+02
     63.971  0.1833E+01  0.7837E+02
     64.221  0.1446E+01  0.7873E+02
     64.471  0.1906E+01  0.7921E+02
     64.721  0.1063E+01  0.7948E+02
     64.972  0.5038E+00  0.7960E+02
     65.222  0.1094E+01  0.7988E+02
     65.472  0.3389E+00  0.7996E+02
     65.722  0.9255E-01  0.7998E+02
     65.972  0.6477E-01  0.8000E+02
     66.222  0.1993E-03  0.8000E+02
     66.473 -0.4970E-03  0.8000E+02
     66.723 -0.1157E-05  0.8000E+02
     66.973 -0.9098E-10  0.8000E+02
     67.223 -0.2881E-15  0.8000E+02
     67.473  0.0000E+00  0.8000E+02
     67.724  0.0000E+00  0.8000E+02
     67.974  0.0000E+00  0.8000E+02
     68.224  0.0000E+00  0.8000E+02
     68.474  0.0000E+00  0.8000E+02
     68.724  0.0000E+00  0.8000E+02
     68.974  0.0000E+00  0.8000E+02
     69.225  0.0000E+00  0.8000E+02
