    2    2    1    1
  0.1105851E+02  0.2423200E-09  0.2423200E-09  0.4349280E-09  0.5000000E-15
  1.000000000000000E-004
  CAR 
 unknown system                          
     16     96     40
 
  0.0000000E+00  0.0000000E+00  0.0000000E+00  0.7513148E-03
    1       -2.418478   1.000000
    2        1.389252   1.000000
    3        3.949706   1.000000
    4        4.619028   1.000000
    5        4.619203   1.000000
    6        4.866950   1.000000
    7        4.867129   1.000000
    8        5.213963   1.000000
    9        5.799383   1.030366
   10        5.799424   1.030352
   11        6.665729  -0.000019
   12        6.665772  -0.000019
   13       12.299695   0.000000
   14       27.987927   0.000000
   15       28.966942   0.000000
   16       31.627074   0.000000
   17       33.417248   0.000000
   18       33.417307   0.000000
   19       33.967725   0.000000
   20       34.264072   0.000000
   21       34.264304   0.000000
   22       37.246118   0.000000
   23       37.246148   0.000000
   24       38.197668   0.000000
   25       40.319335   0.000000
   26       40.319346   0.000000
   27       40.383246   0.000000
   28       43.540187   0.000000
   29       43.540583   0.000000
   30       45.132024   0.000000
   31       45.132189   0.000000
   32       47.285555   0.000000
   33       54.810319   0.000000
   34       59.164971   0.000000
   35       59.166075   0.000000
   36       59.618063   0.000000
   37       60.140321   0.000000
   38       60.239862   0.000000
   39       60.239907   0.000000
   40       60.564959   0.000000
 
  0.9090909E-01 -0.6408321E-17  0.0000000E+00  0.4507889E-02
    1       -2.104681   1.000000
    2        1.626967   1.000000
    3        3.990507   1.000000
    4        4.513601   1.000000
    5        4.539984   1.000000
    6        4.762738   1.000000
    7        4.794047   1.000000
    8        5.030564   1.000000
    9        5.656793   1.015446
   10        5.704076   1.025943
   11        6.690245  -0.000009
   12        7.634031  -0.000000
   13       12.330870   0.000000
   14       27.462977   0.000000
   15       28.366784   0.000000
   16       29.864992   0.000000
   17       30.782316   0.000000
   18       33.259761   0.000000
   19       33.283808   0.000000
   20       33.855079   0.000000
   21       36.528643   0.000000
   22       36.778224   0.000000
   23       37.133096   0.000000
   24       37.733864   0.000000
   25       40.942303   0.000000
   26       41.175808   0.000000
   27       41.604989   0.000000
   28       42.081872   0.000000
   29       45.078536   0.000000
   30       46.410553   0.000000
   31       47.669721   0.000000
   32       49.445925   0.000000
   33       54.602446   0.000000
   34       56.631106   0.000000
   35       57.529065   0.000000
   36       57.887898   0.000000
   37       58.834173   0.000000
   38       60.100292   0.000000
   39       61.875641   0.000000
   40       62.120365   0.000000
 
  0.1818182E+00  0.1592148E-16  0.0000000E+00  0.4507889E-02
    1       -1.211032   1.000000
    2        2.197470   1.000000
    3        3.612217   1.000000
    4        3.896003   1.000000
    5        4.347137   1.000000
    6        4.832481   1.000000
    7        5.278617   1.000001
    8        5.316487   1.000005
    9        5.477195   1.000519
   10        5.482520   1.000590
   11        6.727096  -0.000003
   12        9.289383  -0.000000
   13       12.452551   0.000000
   14       23.567420   0.000000
   15       28.087769   0.000000
   16       28.607377   0.000000
   17       28.849558   0.000000
   18       29.570857   0.000000
   19       32.938606   0.000000
   20       34.170816   0.000000
   21       34.345295   0.000000
   22       35.515346   0.000000
   23       37.693419   0.000000
   24       38.245076   0.000000
   25       41.282657   0.000000
   26       42.737723   0.000000
   27       44.272998   0.000000
   28       46.262865   0.000000
   29       47.315219   0.000000
   30       50.309501   0.000000
   31       50.537506   0.000000
   32       52.833761   0.000000
   33       53.551595   0.000000
   34       53.572882   0.000000
   35       55.773230   0.000000
   36       57.149412   0.000000
   37       58.324687   0.000000
   38       59.805915   0.000000
   39       62.529818   0.000000
   40       63.740858   0.000000
 
  0.2727273E+00  0.3580047E-16  0.0000000E+00  0.4507889E-02
    1        0.081140   1.000000
    2        2.515730   1.000000
    3        2.925674   1.000000
    4        3.873585   1.000000
    5        4.164952   1.000000
    6        4.883982   1.000000
    7        5.216432   1.000000
    8        5.488740   1.000684
    9        5.966561   0.685393
   10        6.113343   0.125203
   11        6.743293  -0.000001
   12       11.198127  -0.000000
   13       12.733922   0.000000
   14       19.618296   0.000000
   15       25.284126   0.000000
   16       25.804716   0.000000
   17       26.729216   0.000000
   18       29.852345   0.000000
   19       31.182953   0.000000
   20       33.780492   0.000000
   21       34.754735   0.000000
   22       34.792342   0.000000
   23       35.265767   0.000000
   24       38.724914   0.000000
   25       44.940662   0.000000
   26       46.280300   0.000000
   27       47.672844   0.000000
   28       48.348636   0.000000
   29       48.723982   0.000000
   30       50.665387   0.000000
   31       51.808799   0.000000
   32       52.771570   0.000000
   33       55.176044   0.000000
   34       55.858884   0.000000
   35       56.575707   0.000000
   36       58.058791   0.000000
   37       59.632993   0.000000
   38       60.284632   0.000000
   39       62.812197   0.000000
   40       63.347626   0.000000
 
  0.3636364E+00  0.1991917E-16  0.0000000E+00  0.4507889E-02
    1        1.299955   1.000000
    2        2.296268   1.000000
    3        2.484314   1.000000
    4        3.972804   1.000000
    5        4.497633   1.000000
    6        4.569717   1.000000
    7        4.999000   1.000000
    8        6.592357  -0.000158
    9        6.656547  -0.000025
   10        6.737165  -0.000002
   11        6.743225  -0.000001
   12       12.872388   0.000000
   13       13.284930   0.000000
   14       16.634698   0.000000
   15       22.013778   0.000000
   16       23.719451   0.000000
   17       24.072099   0.000000
   18       29.167207   0.000000
   19       30.294114   0.000000
   20       33.333880   0.000000
   21       34.274288   0.000000
   22       35.492745   0.000000
   23       35.600918   0.000000
   24       38.882186   0.000000
   25       45.306036   0.000000
   26       46.967541   0.000000
   27       48.332657   0.000000
   28       51.187696   0.000000
   29       51.585952   0.000000
   30       51.837735   0.000000
   31       53.706999   0.000000
   32       54.994728   0.000000
   33       55.286179   0.000000
   34       57.666315   0.000000
   35       59.454074   0.000000
   36       59.506216   0.000000
   37       61.028235   0.000000
   38       62.052925   0.000000
   39       63.792393   0.000000
   40       64.373339   0.000000
 
  0.4545455E+00 -0.1766699E-16  0.0000000E+00  0.4507889E-02
    1        1.853486   1.000000
    2        2.051732   1.000000
    3        2.273307   1.000000
    4        4.272372   1.000000
    5        4.471044   1.000000
    6        4.784776   1.000000
    7        4.877112   1.000000
    8        6.728017  -0.000003
    9        7.080153  -0.000000
   10        7.166506  -0.000000
   11        8.139966  -0.000000
   12       11.319926  -0.000000
   13       15.302505   0.000000
   14       16.471930   0.000000
   15       19.428302   0.000000
   16       20.980735   0.000000
   17       23.112477   0.000000
   18       28.603326   0.000000
   19       30.001756   0.000000
   20       32.272735   0.000000
   21       34.051276   0.000000
   22       36.393688   0.000000
   23       38.095838   0.000000
   24       38.347009   0.000000
   25       41.976071   0.000000
   26       46.973006   0.000000
   27       49.332081   0.000000
   28       53.061520   0.000000
   29       54.107890   0.000000
   30       54.589967   0.000000
   31       55.246838   0.000000
   32       57.100248   0.000000
   33       58.172681   0.000000
   34       58.917280   0.000000
   35       59.490758   0.000000
   36       59.684297   0.000000
   37       62.962750   0.000000
   38       63.030702   0.000000
   39       63.433568   0.000000
   40       63.979468   0.000000
 
  0.9090909E-01  0.9090909E-01  0.0000000E+00  0.4507889E-02
    1       -1.498804   1.000000
    2        2.047359   1.000000
    3        3.846623   1.000000
    4        3.921137   1.000000
    5        4.549453   1.000000
    6        4.562012   1.000000
    7        5.148957   1.000000
    8        5.317465   1.000005
    9        5.379026   1.000036
   10        5.658957   1.015881
   11        6.692678  -0.000008
   12        8.825521  -0.000000
   13       12.411613   0.000000
   14       25.382190   0.000000
   15       26.407413   0.000000
   16       28.993247   0.000000
   17       30.640539   0.000000
   18       31.941750   0.000000
   19       32.161149   0.000000
   20       32.952566   0.000000
   21       33.642977   0.000000
   22       38.239949   0.000000
   23       38.918840   0.000000
   24       38.963394   0.000000
   25       40.516002   0.000000
   26       40.622952   0.000000
   27       40.977296   0.000000
   28       47.005138   0.000000
   29       48.289379   0.000000
   30       48.512736   0.000000
   31       48.562919   0.000000
   32       52.582334   0.000000
   33       54.057574   0.000000
   34       54.286376   0.000000
   35       55.504474   0.000000
   36       57.000874   0.000000
   37       58.353494   0.000000
   38       60.809418   0.000000
   39       62.324942   0.000000
   40       63.201930   0.000000
 
  0.1818182E+00  0.9090909E-01  0.0000000E+00  0.9015778E-02
    1       -0.385332   1.000000
    2        2.604306   1.000000
    3        3.171830   1.000000
    4        3.675340   1.000000
    5        4.267097   1.000000
    6        4.915303   1.000000
    7        4.927751   1.000000
    8        5.430956   1.000159
    9        5.781704   1.034495
   10        6.024980   0.443601
   11        6.677428  -0.000013
   12       10.523358  -0.000000
   13       12.649111   0.000000
   14       21.653267   0.000000
   15       24.160032   0.000000
   16       27.149737   0.000000
   17       29.197652   0.000000
   18       29.386776   0.000000
   19       31.928577   0.000000
   20       32.224647   0.000000
   21       33.340974   0.000000
   22       37.170132   0.000000
   23       38.204195   0.000000
   24       38.992066   0.000000
   25       42.120344   0.000000
   26       43.245634   0.000000
   27       45.156101   0.000000
   28       48.419487   0.000000
   29       50.458115   0.000000
   30       51.163174   0.000000
   31       51.338886   0.000000
   32       53.163720   0.000000
   33       54.368053   0.000000
   34       54.680022   0.000000
   35       55.573255   0.000000
   36       56.163297   0.000000
   37       59.454097   0.000000
   38       61.069489   0.000000
   39       63.052151   0.000000
   40       63.536842   0.000000
 
  0.2727273E+00  0.9090909E-01  0.0000000E+00  0.9015778E-02
    1        0.949564   1.000000
    2        2.596538   1.000000
    3        2.683620   1.000000
    4        3.733617   1.000000
    5        4.319980   1.000000
    6        4.565433   1.000000
    7        5.112323   1.000000
    8        5.627611   1.010262
    9        6.468094  -0.002895
   10        6.655842  -0.000026
   11        6.863483  -0.000000
   12       12.500191   0.000000
   13       13.092374   0.000000
   14       17.979683   0.000000
   15       22.538464   0.000000
   16       23.738831   0.000000
   17       25.952547   0.000000
   18       28.145246   0.000000
   19       31.325025   0.000000
   20       32.666720   0.000000
   21       33.496431   0.000000
   22       36.745578   0.000000
   23       37.486757   0.000000
   24       40.207891   0.000000
   25       43.923598   0.000000
   26       46.676234   0.000000
   27       47.589177   0.000000
   28       47.631408   0.000000
   29       49.863498   0.000000
   30       51.832211   0.000000
   31       52.914658   0.000000
   32       54.702787   0.000000
   33       55.861686   0.000000
   34       56.799641   0.000000
   35       58.601718   0.000000
   36       60.915380   0.000000
   37       60.960248   0.000000
   38       61.343547   0.000000
   39       62.067856   0.000000
   40       63.812494   0.000000
 
  0.3636364E+00  0.9090909E-01  0.0000000E+00  0.9015778E-02
    1        1.862253   1.000000
    2        2.310331   1.000000
    3        2.404600   1.000000
    4        4.069289   1.000000
    5        4.329527   1.000000
    6        4.680089   1.000000
    7        4.847275   1.000000
    8        6.474967  -0.002524
    9        6.635142  -0.000048
   10        6.933505  -0.000000
   11        7.945278  -0.000000
   12       12.626749   0.000000
   13       14.624645   0.000000
   14       16.297279   0.000000
   15       20.759872   0.000000
   16       21.240213   0.000000
   17       22.781787   0.000000
   18       27.325254   0.000000
   19       30.415400   0.000000
   20       32.196248   0.000000
   21       35.093269   0.000000
   22       37.186763   0.000000
   23       37.931696   0.000000
   24       39.577853   0.000000
   25       43.939729   0.000000
   26       46.484190   0.000000
   27       47.818839   0.000000
   28       49.982705   0.000000
   29       51.133278   0.000000
   30       53.550071   0.000000
   31       54.926593   0.000000
   32       56.807820   0.000000
   33       57.983595   0.000000
   34       59.211780   0.000000
   35       60.048519   0.000000
   36       60.885371   0.000000
   37       61.612338   0.000000
   38       62.637666   0.000000
   39       63.476965   0.000000
   40       64.205313   0.000000
 
  0.4545455E+00  0.9090909E-01  0.0000000E+00  0.4507889E-02
    1        2.099693   1.000000
    2        2.160067   1.000000
    3        2.316129   1.000000
    4        4.245896   1.000000
    5        4.444373   1.000000
    6        4.746103   1.000000
    7        4.763002   1.000000
    8        6.625621  -0.000063
    9        6.965616  -0.000000
   10        6.989482  -0.000000
   11        9.102331  -0.000000
   12       11.048596  -0.000000
   13       16.092822   0.000000
   14       16.924567   0.000000
   15       19.017263   0.000000
   16       20.172169   0.000000
   17       21.580622   0.000000
   18       27.036860   0.000000
   19       30.044780   0.000000
   20       32.046205   0.000000
   21       35.464726   0.000000
   22       38.008075   0.000000
   23       38.502502   0.000000
   24       39.481295   0.000000
   25       41.640380   0.000000
   26       47.386355   0.000000
   27       47.920407   0.000000
   28       50.423013   0.000000
   29       53.700495   0.000000
   30       54.153552   0.000000
   31       57.273120   0.000000
   32       57.316285   0.000000
   33       58.400616   0.000000
   34       58.464511   0.000000
   35       58.721529   0.000000
   36       60.691176   0.000000
   37       63.589552   0.000000
   38       63.828477   0.000000
   39       64.149943   0.000000
   40       65.045639   0.000000
 
  0.1818182E+00  0.1818182E+00  0.0000000E+00  0.4507889E-02
    1        0.833606   1.000000
    2        2.803313   1.000000
    3        3.054898   1.000000
    4        3.277222   1.000000
    5        4.305676   1.000000
    6        4.519499   1.000000
    7        5.144716   1.000000
    8        5.217491   1.000000
    9        6.443443  -0.004624
   10        6.565949  -0.000316
   11        6.926777  -0.000000
   12       12.251739   0.000000
   13       13.181713   0.000000
   14       19.782089   0.000000
   15       20.382997   0.000000
   16       25.423005   0.000000
   17       26.422535   0.000000
   18       28.208580   0.000000
   19       28.745602   0.000000
   20       33.012172   0.000000
   21       35.091400   0.000000
   22       38.341906   0.000000
   23       38.936871   0.000000
   24       41.434498   0.000000
   25       42.245251   0.000000
   26       43.998274   0.000000
   27       44.921022   0.000000
   28       48.909450   0.000000
   29       50.626203   0.000000
   30       51.217734   0.000000
   31       51.466012   0.000000
   32       55.241323   0.000000
   33       55.812044   0.000000
   34       58.332016   0.000000
   35       58.634371   0.000000
   36       59.325220   0.000000
   37       59.753007   0.000000
   38       62.604972   0.000000
   39       62.959306   0.000000
   40       63.803827   0.000000
 
  0.2727273E+00  0.1818182E+00  0.0000000E+00  0.9015778E-02
    1        2.038643   1.000000
    2        2.587956   1.000000
    3        2.814664   1.000000
    4        3.447859   1.000000
    5        4.276085   1.000000
    6        4.561902   1.000000
    7        4.857891   1.000000
    8        5.664614   1.017048
    9        6.469125  -0.002837
   10        6.864001  -0.000000
   11        8.088212  -0.000000
   12       13.902948   0.000000
   13       14.295201   0.000000
   14       16.817436   0.000000
   15       18.874435   0.000000
   16       22.658268   0.000000
   17       24.734899   0.000000
   18       24.997802   0.000000
   19       27.475562   0.000000
   20       35.175708   0.000000
   21       35.573548   0.000000
   22       38.339212   0.000000
   23       40.864873   0.000000
   24       42.100926   0.000000
   25       42.849974   0.000000
   26       45.074075   0.000000
   27       46.030182   0.000000
   28       46.828560   0.000000
   29       50.115578   0.000000
   30       50.848750   0.000000
   31       53.652674   0.000000
   32       57.125618   0.000000
   33       58.271310   0.000000
   34       59.500464   0.000000
   35       61.658259   0.000000
   36       61.720884   0.000000
   37       62.192039   0.000000
   38       62.853406   0.000000
   39       63.866765   0.000000
   40       64.580418   0.000000
 
  0.3636364E+00  0.1818182E+00  0.0000000E+00  0.9015778E-02
    1        2.503918   1.000000
    2        2.517108   1.000000
    3        2.601587   1.000000
    4        3.884306   1.000000
    5        4.228206   1.000000
    6        4.527777   1.000000
    7        4.813821   1.000000
    8        6.309164  -0.028195
    9        6.415525  -0.007502
   10        6.846879  -0.000000
   11        9.597737  -0.000000
   12       12.429501   0.000000
   13       16.421135   0.000000
   14       16.994219   0.000000
   15       18.037249   0.000000
   16       19.994570   0.000000
   17       21.822513   0.000000
   18       24.463189   0.000000
   19       26.851970   0.000000
   20       35.593659   0.000000
   21       37.352962   0.000000
   22       38.682531   0.000000
   23       40.144543   0.000000
   24       41.066842   0.000000
   25       44.185090   0.000000
   26       45.319495   0.000000
   27       46.863351   0.000000
   28       47.618665   0.000000
   29       50.785825   0.000000
   30       52.532650   0.000000
   31       53.365341   0.000000
   32       56.876744   0.000000
   33       57.320524   0.000000
   34       58.951890   0.000000
   35       61.950028   0.000000
   36       63.345030   0.000000
   37       63.409955   0.000000
   38       64.325394   0.000000
   39       64.499356   0.000000
   40       65.013396   0.000000
 
  0.2727273E+00  0.2727273E+00  0.0000000E+00  0.4507889E-02
    1        2.633696   1.000000
    2        2.852982   1.000000
    3        3.135207   1.000000
    4        3.207153   1.000000
    5        4.134157   1.000000
    6        4.489296   1.000000
    7        4.838428   1.000000
    8        5.902502   0.894098
    9        6.305602  -0.028970
   10        6.812111  -0.000000
   11        9.713595  -0.000000
   12       14.439728   0.000000
   13       15.082247   0.000000
   14       16.442858   0.000000
   15       17.549172   0.000000
   16       21.883630   0.000000
   17       22.113714   0.000000
   18       23.541439   0.000000
   19       24.341730   0.000000
   20       36.969068   0.000000
   21       37.619229   0.000000
   22       41.310998   0.000000
   23       42.219237   0.000000
   24       42.614635   0.000000
   25       42.653073   0.000000
   26       43.574271   0.000000
   27       45.590740   0.000000
   28       47.956684   0.000000
   29       48.171740   0.000000
   30       52.490226   0.000000
   31       52.689696   0.000000
   32       54.745658   0.000000
   33       57.154529   0.000000
   34       59.175479   0.000000
   35       62.855881   0.000000
   36       63.808787   0.000000
   37       63.922592   0.000000
   38       64.837292   0.000000
   39       65.188892   0.000000
   40       65.312905   0.000000
 
  0.3636364E+00  0.2727273E+00  0.0000000E+00  0.4507889E-02
    1        2.687261   1.000000
    2        3.014575   1.000000
    3        3.039058   1.000000
    4        3.496395   1.000000
    5        4.197991   1.000000
    6        4.202292   1.000000
    7        4.967389   1.000000
    8        6.239834  -0.034252
    9        6.241637  -0.034509
   10        6.517188  -0.001022
   11       11.448035  -0.000000
   12       12.560125   0.000000
   13       14.701380   0.000000
   14       18.316855   0.000000
   15       18.528780   0.000000
   16       19.790827   0.000000
   17       21.839872   0.000000
   18       21.843722   0.000000
   19       23.765569   0.000000
   20       37.390586   0.000000
   21       40.072659   0.000000
   22       40.689443   0.000000
   23       41.434483   0.000000
   24       41.921712   0.000000
   25       43.536115   0.000000
   26       44.310280   0.000000
   27       47.342550   0.000000
   28       47.832541   0.000000
   29       48.081718   0.000000
   30       51.532573   0.000000
   31       52.756251   0.000000
   32       53.153227   0.000000
   33       56.681662   0.000000
   34       57.365356   0.000000
   35       63.727843   0.000000
   36       64.389967   0.000000
   37       65.139603   0.000000
   38       65.237308   0.000000
   39       65.339845   0.000000
   40       65.516663   0.000000
 
  0.0000000E+00  0.0000000E+00  0.9090909E-01  0.1502630E-02
    1       -2.346167   1.000000
    2        1.345849   1.000000
    3        3.931862   1.000000
    4        4.613700   1.000000
    5        4.613873   1.000000
    6        4.854262   1.000000
    7        4.854440   1.000000
    8        5.018541   1.000000
    9        5.828051   1.014366
   10        5.828093   1.014332
   11        6.657077  -0.000025
   12        6.657120  -0.000025
   13       12.660412   0.000000
   14       27.255608   0.000000
   15       29.050513   0.000000
   16       31.483319   0.000000
   17       33.471285   0.000000
   18       33.471338   0.000000
   19       34.280292   0.000000
   20       34.280517   0.000000
   21       34.567738   0.000000
   22       37.144730   0.000000
   23       37.144747   0.000000
   24       38.414029   0.000000
   25       39.964648   0.000000
   26       39.964663   0.000000
   27       40.558959   0.000000
   28       43.796132   0.000000
   29       43.796506   0.000000
   30       45.577519   0.000000
   31       45.577664   0.000000
   32       47.195447   0.000000
   33       54.330400   0.000000
   34       58.300844   0.000000
   35       58.301096   0.000000
   36       58.774650   0.000000
   37       58.775620   0.000000
   38       58.848552   0.000000
   39       60.642938   0.000000
   40       60.793639   0.000000
 
  0.9090909E-01 -0.6408321E-17  0.9090909E-01  0.9015778E-02
    1       -2.033780   1.000000
    2        1.587335   1.000000
    3        3.978420   1.000000
    4        4.381781   1.000000
    5        4.521044   1.000000
    6        4.782186   1.000000
    7        4.786544   1.000000
    8        5.016615   1.000000
    9        5.692788   1.023336
   10        5.737944   1.032864
   11        6.679167  -0.000012
   12        7.492394  -0.000000
   13       12.728328   0.000000
   14       27.369257   0.000000
   15       27.771077   0.000000
   16       29.861057   0.000000
   17       30.848581   0.000000
   18       32.598475   0.000000
   19       33.791768   0.000000
   20       34.431246   0.000000
   21       36.203127   0.000000
   22       36.854155   0.000000
   23       37.214541   0.000000
   24       37.945551   0.000000
   25       40.909148   0.000000
   26       41.115115   0.000000
   27       41.842989   0.000000
   28       42.384731   0.000000
   29       44.860504   0.000000
   30       46.713776   0.000000
   31       47.988945   0.000000
   32       49.448482   0.000000
   33       53.430804   0.000000
   34       56.596313   0.000000
   35       56.997445   0.000000
   36       57.742272   0.000000
   37       58.967433   0.000000
   38       60.033285   0.000000
   39       60.625639   0.000000
   40       61.931119   0.000000
 
  0.1818182E+00  0.1592148E-16  0.9090909E-01  0.9015778E-02
    1       -1.145904   1.000000
    2        2.169980   1.000000
    3        3.547304   1.000000
    4        3.908485   1.000000
    5        4.323481   1.000000
    6        4.777808   1.000000
    7        5.247690   1.000000
    8        5.400860   1.000069
    9        5.442649   1.000217
   10        5.563803   1.003428
   11        6.711892  -0.000004
   12        8.944989  -0.000000
   13       12.980400   0.000000
   14       23.631233   0.000000
   15       27.927456   0.000000
   16       28.170288   0.000000
   17       28.859746   0.000000
   18       29.322245   0.000000
   19       32.847790   0.000000
   20       34.466792   0.000000
   21       34.810032   0.000000
   22       34.972141   0.000000
   23       38.188895   0.000000
   24       38.738542   0.000000
   25       41.481229   0.000000
   26       42.689992   0.000000
   27       44.058304   0.000000
   28       46.238811   0.000000
   29       47.225699   0.000000
   30       50.215157   0.000000
   31       50.846951   0.000000
   32       51.731105   0.000000
   33       52.877829   0.000000
   34       54.999192   0.000000
   35       55.088320   0.000000
   36       56.998051   0.000000
   37       58.835837   0.000000
   38       60.371480   0.000000
   39       61.205277   0.000000
   40       63.657503   0.000000
 
  0.2727273E+00  0.3580047E-16  0.9090909E-01  0.9015778E-02
    1        0.129603   1.000000
    2        2.497713   1.000000
    3        2.912169   1.000000
    4        3.876820   1.000000
    5        4.136393   1.000000
    6        4.887524   1.000000
    7        5.233976   1.000000
    8        5.529952   1.001727
    9        5.973288   0.658934
   10        6.102800   0.155071
   11        6.724070  -0.000003
   12       10.494588  -0.000000
   13       13.572698   0.000000
   14       19.676606   0.000000
   15       24.824656   0.000000
   16       25.900190   0.000000
   17       27.087415   0.000000
   18       29.466303   0.000000
   19       31.152227   0.000000
   20       33.100333   0.000000
   21       33.649558   0.000000
   22       35.747501   0.000000
   23       36.408716   0.000000
   24       39.272349   0.000000
   25       45.029446   0.000000
   26       45.736197   0.000000
   27       46.951918   0.000000
   28       47.310330   0.000000
   29       50.126356   0.000000
   30       50.828414   0.000000
   31       52.064501   0.000000
   32       53.133410   0.000000
   33       54.189141   0.000000
   34       55.370574   0.000000
   35       57.036393   0.000000
   36       58.090622   0.000000
   37       60.211772   0.000000
   38       60.608766   0.000000
   39       62.024905   0.000000
   40       63.940999   0.000000
 
  0.3636364E+00  0.1991917E-16  0.9090909E-01  0.9015778E-02
    1        1.302694   1.000000
    2        2.260287   1.000000
    3        2.552782   1.000000
    4        3.802094   1.000000
    5        4.561130   1.000000
    6        4.738115   1.000000
    7        5.027372   1.000000
    8        6.561635  -0.000353
    9        6.635865  -0.000047
   10        6.668410  -0.000017
   11        6.795704  -0.000000
   12       11.781381   0.000000
   13       14.407708   0.000000
   14       16.727401   0.000000
   15       21.579826   0.000000
   16       24.179199   0.000000
   17       24.198427   0.000000
   18       29.091266   0.000000
   19       30.267926   0.000000
   20       32.336800   0.000000
   21       33.875785   0.000000
   22       35.318681   0.000000
   23       36.880755   0.000000
   24       39.430035   0.000000
   25       44.113949   0.000000
   26       48.140086   0.000000
   27       48.286754   0.000000
   28       50.528172   0.000000
   29       50.833946   0.000000
   30       52.944782   0.000000
   31       53.279586   0.000000
   32       54.977693   0.000000
   33       55.796663   0.000000
   34       57.242157   0.000000
   35       59.694890   0.000000
   36       60.169499   0.000000
   37       60.993416   0.000000
   38       61.784068   0.000000
   39       64.159409   0.000000
   40       64.445034   0.000000
 
  0.4545455E+00 -0.1766699E-16  0.9090909E-01  0.9015778E-02
    1        1.786150   1.000000
    2        2.002378   1.000000
    3        2.435744   1.000000
    4        3.860428   1.000000
    5        4.711676   1.000000
    6        4.908843   1.000000
    7        5.042655   1.000000
    8        6.680910  -0.000012
    9        7.083163  -0.000000
   10        7.166670  -0.000000
   11        8.063561  -0.000000
   12       11.149139  -0.000000
   13       15.134126   0.000000
   14       16.576195   0.000000
   15       19.445590   0.000000
   16       21.407330   0.000000
   17       23.225523   0.000000
   18       28.582388   0.000000
   19       29.987303   0.000000
   20       31.491412   0.000000
   21       34.879045   0.000000