 vasp.6.2.0 18Jan21 (build Mar 17 2021 09:06:54) complex                        
  
 executed on             LinuxIFC date 2021.09.09  12:10:53
 serial version


--------------------------------------------------------------------------------------------------------


 INCAR:
   ENCUT = 280.000000
   SIGMA = 0.200000
   EDIFF = 1.00e-06
   GGA = PE
   PREC = normal
   IBRION = 1
   ICHARG = 1
   ISIF = 2
   ISMEAR = 1
   KPAR = 1
   NBANDS = 40
   NSW = 0
   NCORE = 1
   LCHARG = .TRUE.

 POTCAR:    PAW_PBE Fe 06Sep2000                  
 POTCAR:    PAW_PBE Fe 06Sep2000                  
   SHA256 =  cd5a22d9368cc8b5cc476bea79732366149640da08ac9009b0e1b7fc627eea28 Fe/POTCAR             
   COPYR  = (c) Copyright 06Sep2000 Georg Kresse                                                    
   COPYR  = This file is part of the software VASP. Any use, copying, and all other rights are regul
   COPYR  = If you do not have a valid VASP license, you may not use, copy or distribute this file. 
   VRHFIN =Fe:  d7 s1                                                                               
   LEXCH  = PE                                                                                      
   EATOM  =   594.3153 eV,   43.6809 Ry                                                             
                                                                                                    
   TITEL  = PAW_PBE Fe 06Sep2000                                                                    
   LULTRA =        F    use ultrasoft PP ?                                                          
   IUNSCR =        1    unscreen: 0-lin 1-nonlin 2-no                                               
   RPACOR =    2.000    partial core radius                                                         
   POMASS =   55.847; ZVAL   =    8.000    mass and valenz                                          
   RCORE  =    2.300    outmost cutoff radius                                                       
   RWIGS  =    2.460; RWIGS  =    1.302    wigner-seitz radius (au A)                               
   ENMAX  =  267.882; ENMIN  =  200.911 eV                                                          
   RCLOC  =    1.701    cutoff for local pot                                                        
   LCOR   =        T    correct aug charges                                                         
   LPAW   =        T    paw PP                                                                      
   EAUG   =  511.368                                                                                
   DEXC   =    0.000                                                                                
   RMAX   =    2.356    core radius for proj-oper                                                   
   RAUG   =    1.300    factor for augmentation sphere                                              
   RDEP   =    2.442    radius for radial grids                                                     
   RDEPT  =    1.890    core radius for aug-charge                                                  
                                                                                                    
   Atomic configuration                                                                             
    9 entries                                                                                       
     n  l   j            E        occ.                                                              
     1  0  0.50     -6993.8440   2.0000                                                             
     2  0  0.50      -814.6047   2.0000                                                             
     2  1  1.50      -693.3689   6.0000                                                             
     3  0  0.50       -89.4732   2.0000                                                             
     3  1  1.50       -55.6373   6.0000                                                             
     3  2  2.50        -3.8151   7.0000                                                             
     4  0  0.50        -4.2551   1.0000                                                             
     4  1  1.50        -3.4015   0.0000                                                             
     4  3  2.50        -1.3606   0.0000                                                             
   Description                                                                                      
     l       E           TYP  RCUT    TYP  RCUT                                                     
     2     -3.8151135     23  2.300                                                                 
     2     -5.1756961     23  2.300                                                                 
     0     -4.2550963     23  2.300                                                                 
     0      7.2035603     23  2.300                                                                 
     1     -2.7211652     23  2.300                                                                 
     1     18.4316424     23  2.300                                                                 
  local pseudopotential read in
  partial core-charges read in
  partial kinetic energy density read in
  atomic valenz-charges read in
  non local Contribution for L=           2  read in
    real space projection operators read in
  non local Contribution for L=           2  read in
    real space projection operators read in
  non local Contribution for L=           0  read in
    real space projection operators read in
  non local Contribution for L=           0  read in
    real space projection operators read in
  non local Contribution for L=           1  read in
    real space projection operators read in
  non local Contribution for L=           1  read in
    real space projection operators read in
    PAW grid and wavefunctions read in
 
   number of l-projection  operators is LMAX  =           6
   number of lm-projection operators is LMMAX =          18
 
  PAW_PBE Fe 06Sep2000                  :
 energy of atom  1       EATOM= -594.3153
 kinetic energy error for atom=    0.0278 (will be added to EATOM!!)
 
 
 POSCAR: Fe
  positions in cartesian coordinates
  No initial velocities read in
 exchange correlation table for  LEXCH =        8
   RHO(1)=    0.500       N(1)  =     2000
   RHO(2)=  100.500       N(2)  =     4000
 


--------------------------------------------------------------------------------------------------------


 ion  position               nearest neighbor table
   1  0.000  0.000  0.000-   2 2.59   2 2.59   2 2.59   2 2.59   2 2.59   2 2.59
   2  0.333  0.667  0.500-   1 2.59   1 2.59   1 2.59   1 2.59   1 2.59   1 2.59
 
  LATTYP: Found a hexagonal cell.
 ALAT       =     2.4232000000
 C/A-ratio  =     1.7948497854
  
  Lattice vectors:
  
 A1 = (   2.4232000000,   0.0000000000,   0.0000000000)
 A2 = (  -1.2116000000,   2.0985527585,   0.0000000000)
 A3 = (   0.0000000000,   0.0000000000,   4.3492800000)


Analysis of symmetry for initial positions (statically):
=====================================================================
 Subroutine PRICEL returns:
 Original cell was already a primitive cell.
 

 Routine SETGRP: Setting up the symmetry group for a 
 hexagonal supercell.


 Subroutine GETGRP returns: Found 24 space group operations
 (whereof 12 operations were pure point group operations)
 out of a pool of 24 trial point group operations.


The static configuration has the point symmetry D_3h.
 The point group associated with its full space group is D_6h.


Analysis of symmetry for dynamics (positions and initial velocities):
=====================================================================
 Subroutine PRICEL returns:
 Original cell was already a primitive cell.
 

 Routine SETGRP: Setting up the symmetry group for a 
 hexagonal supercell.


 Subroutine GETGRP returns: Found 24 space group operations
 (whereof 12 operations were pure point group operations)
 out of a pool of 24 trial point group operations.


The dynamic configuration has the point symmetry D_3h.
 The point group associated with its full space group is D_6h.


 Subroutine INISYM returns: Found 24 space group operations
 (whereof 12 operations are pure point group operations),
 and found     1 'primitive' translations


----------------------------------------------------------------------------------------

                                     Primitive cell                                     

  volume of cell :      22.1170

  direct lattice vectors                    reciprocal lattice vectors
     2.423200000  0.000000000  0.000000000     0.412677451  0.238259438  0.000000000
    -1.211600000  2.098552758  0.000000000     0.000000000  0.476518875  0.000000000
     0.000000000  0.000000000  4.349280000     0.000000000  0.000000000  0.229923114

  length of vectors
     2.423200000  2.423200000  4.349280000     0.476518875  0.476518875  0.229923114

  position of ions in fractional coordinates (direct lattice)
     0.000000000  0.000000000  0.000000000
     0.333333333  0.666666667  0.500000000

  ion indices of the primitive-cell ions
   primitive index   ion index
                 1           1
                 2           2

----------------------------------------------------------------------------------------

 
 
 KPOINTS: KPOINTS created by Atomic Simulation Env

Automatic generation of k-mesh.
 Grid dimensions read from file:
 generate k-points for:   11   11   11

 Generating k-lattice:

  Cartesian coordinates                     Fractional coordinates (reciprocal lattice)
     0.037516132  0.021659949  0.000000000     0.090909091 -0.000000000  0.000000000
     0.000000000  0.043319898  0.000000000     0.000000000  0.090909091  0.000000000
     0.000000000  0.000000000  0.020902101     0.000000000  0.000000000  0.090909091

  Length of vectors
     0.043319898  0.043319898  0.020902101

  Shift w.r.t. Gamma in fractional coordinates (k-lattice)
     0.000000000  0.000000000  0.000000000

 
 Subroutine IBZKPT returns following result:
 ===========================================
 
 Found     96 irreducible k-points:
 
 Following reciprocal coordinates:
            Coordinates               Weight
  0.000000  0.000000  0.000000      1.000000
  0.090909 -0.000000  0.000000      6.000000
  0.181818  0.000000  0.000000      6.000000
  0.272727  0.000000  0.000000      6.000000
  0.363636  0.000000  0.000000      6.000000
  0.454545 -0.000000  0.000000      6.000000
  0.090909  0.090909  0.000000      6.000000
  0.181818  0.090909  0.000000     12.000000
  0.272727  0.090909  0.000000     12.000000
  0.363636  0.090909  0.000000     12.000000
  0.454545  0.090909  0.000000      6.000000
  0.181818  0.181818  0.000000      6.000000
  0.272727  0.181818  0.000000     12.000000
  0.363636  0.181818  0.000000     12.000000
  0.272727  0.272727  0.000000      6.000000
  0.363636  0.272727  0.000000      6.000000
  0.000000  0.000000  0.090909      2.000000
  0.090909 -0.000000  0.090909     12.000000
  0.181818  0.000000  0.090909     12.000000
  0.272727  0.000000  0.090909     12.000000
  0.363636  0.000000  0.090909     12.000000
  0.454545 -0.000000  0.090909     12.000000
  0.090909  0.090909  0.090909     12.000000
  0.181818  0.090909  0.090909     24.000000
  0.272727  0.090909  0.090909     24.000000
  0.363636  0.090909  0.090909     24.000000
  0.454545  0.090909  0.090909     12.000000
  0.181818  0.181818  0.090909     12.000000
  0.272727  0.181818  0.090909     24.000000
  0.363636  0.181818  0.090909     24.000000
  0.272727  0.272727  0.090909     12.000000
  0.363636  0.272727  0.090909     12.000000
  0.000000  0.000000  0.181818      2.000000
  0.090909 -0.000000  0.181818     12.000000
  0.181818  0.000000  0.181818     12.000000
  0.272727  0.000000  0.181818     12.000000
  0.363636  0.000000  0.181818     12.000000
  0.454545 -0.000000  0.181818     12.000000
  0.090909  0.090909  0.181818     12.000000
  0.181818  0.090909  0.181818     24.000000
  0.272727  0.090909  0.181818     24.000000
  0.363636  0.090909  0.181818     24.000000
  0.454545  0.090909  0.181818     12.000000
  0.181818  0.181818  0.181818     12.000000
  0.272727  0.181818  0.181818     24.000000
  0.363636  0.181818  0.181818     24.000000
  0.272727  0.272727  0.181818     12.000000
  0.363636  0.272727  0.181818     12.000000
  0.000000  0.000000  0.272727      2.000000
  0.090909 -0.000000  0.272727     12.000000
  0.181818  0.000000  0.272727     12.000000
  0.272727  0.000000  0.272727     12.000000
  0.363636  0.000000  0.272727     12.000000
  0.454545 -0.000000  0.272727     12.000000
  0.090909  0.090909  0.272727     12.000000
  0.181818  0.090909  0.272727     24.000000
  0.272727  0.090909  0.272727     24.000000
  0.363636  0.090909  0.272727     24.000000
  0.454545  0.090909  0.272727     12.000000
  0.181818  0.181818  0.272727     12.000000
  0.272727  0.181818  0.272727     24.000000
  0.363636  0.181818  0.272727     24.000000
  0.272727  0.272727  0.272727     12.000000
  0.363636  0.272727  0.272727     12.000000
  0.000000  0.000000  0.363636      2.000000
  0.090909 -0.000000  0.363636     12.000000
  0.181818  0.000000  0.363636     12.000000
  0.272727  0.000000  0.363636     12.000000
  0.363636  0.000000  0.363636     12.000000
  0.454545 -0.000000  0.363636     12.000000
  0.090909  0.090909  0.363636     12.000000
  0.181818  0.090909  0.363636     24.000000
  0.272727  0.090909  0.363636     24.000000
  0.363636  0.090909  0.363636     24.000000
  0.454545  0.090909  0.363636     12.000000
  0.181818  0.181818  0.363636     12.000000
  0.272727  0.181818  0.363636     24.000000
  0.363636  0.181818  0.363636     24.000000
  0.272727  0.272727  0.363636     12.000000
  0.363636  0.272727  0.363636     12.000000
  0.000000  0.000000  0.454545      2.000000
  0.090909 -0.000000  0.454545     12.000000
  0.181818  0.000000  0.454545     12.000000
  0.272727  0.000000  0.454545     12.000000
  0.363636  0.000000  0.454545     12.000000
  0.454545 -0.000000  0.454545     12.000000
  0.090909  0.090909  0.454545     12.000000
  0.181818  0.090909  0.454545     24.000000
  0.272727  0.090909  0.454545     24.000000
  0.363636  0.090909  0.454545     24.000000
  0.454545  0.090909  0.454545     12.000000
  0.181818  0.181818  0.454545     12.000000
  0.272727  0.181818  0.454545     24.000000
  0.363636  0.181818  0.454545     24.000000
  0.272727  0.272727  0.454545     12.000000
  0.363636  0.272727  0.454545     12.000000
 
 Following cartesian coordinates:
            Coordinates               Weight
  0.000000  0.000000  0.000000      1.000000
  0.037516  0.021660  0.000000      6.000000
  0.075032  0.043320  0.000000      6.000000
  0.112548  0.064980  0.000000      6.000000
  0.150065  0.086640  0.000000      6.000000
  0.187581  0.108300  0.000000      6.000000
  0.037516  0.064980  0.000000      6.000000
  0.075032  0.086640  0.000000     12.000000
  0.112548  0.108300  0.000000     12.000000
  0.150065  0.129960  0.000000     12.000000
  0.187581  0.151620  0.000000      6.000000
  0.075032  0.129960  0.000000      6.000000
  0.112548  0.151620  0.000000     12.000000
  0.150065  0.173280  0.000000     12.000000
  0.112548  0.194940  0.000000      6.000000
  0.150065  0.216599  0.000000      6.000000
  0.000000  0.000000  0.020902      2.000000
  0.037516  0.021660  0.020902     12.000000
  0.075032  0.043320  0.020902     12.000000
  0.112548  0.064980  0.020902     12.000000
  0.150065  0.086640  0.020902     12.000000
  0.187581  0.108300  0.020902     12.000000
  0.037516  0.064980  0.020902     12.000000
  0.075032  0.086640  0.020902     24.000000
  0.112548  0.108300  0.020902     24.000000
  0.150065  0.129960  0.020902     24.000000
  0.187581  0.151620  0.020902     12.000000
  0.075032  0.129960  0.020902     12.000000
  0.112548  0.151620  0.020902     24.000000
  0.150065  0.173280  0.020902     24.000000
  0.112548  0.194940  0.020902     12.000000
  0.150065  0.216599  0.020902     12.000000
  0.000000  0.000000  0.041804      2.000000
  0.037516  0.021660  0.041804     12.000000
  0.075032  0.043320  0.041804     12.000000
  0.112548  0.064980  0.041804     12.000000
  0.150065  0.086640  0.041804     12.000000
  0.187581  0.108300  0.041804     12.000000
  0.037516  0.064980  0.041804     12.000000
  0.075032  0.086640  0.041804     24.000000
  0.112548  0.108300  0.041804     24.000000
  0.150065  0.129960  0.041804     24.000000
  0.187581  0.151620  0.041804     12.000000
  0.075032  0.129960  0.041804     12.000000
  0.112548  0.151620  0.041804     24.000000
  0.150065  0.173280  0.041804     24.000000
  0.112548  0.194940  0.041804     12.000000
  0.150065  0.216599  0.041804     12.000000
  0.000000  0.000000  0.062706      2.000000
  0.037516  0.021660  0.062706     12.000000
  0.075032  0.043320  0.062706     12.000000
  0.112548  0.064980  0.062706     12.000000
  0.150065  0.086640  0.062706     12.000000
  0.187581  0.108300  0.062706     12.000000
  0.037516  0.064980  0.062706     12.000000
  0.075032  0.086640  0.062706     24.000000
  0.112548  0.108300  0.062706     24.000000
  0.150065  0.129960  0.062706     24.000000
  0.187581  0.151620  0.062706     12.000000
  0.075032  0.129960  0.062706     12.000000
  0.112548  0.151620  0.062706     24.000000
  0.150065  0.173280  0.062706     24.000000
  0.112548  0.194940  0.062706     12.000000
  0.150065  0.216599  0.062706     12.000000
  0.000000  0.000000  0.083608      2.000000
  0.037516  0.021660  0.083608     12.000000
  0.075032  0.043320  0.083608     12.000000
  0.112548  0.064980  0.083608     12.000000
  0.150065  0.086640  0.083608     12.000000
  0.187581  0.108300  0.083608     12.000000
  0.037516  0.064980  0.083608     12.000000
  0.075032  0.086640  0.083608     24.000000
  0.112548  0.108300  0.083608     24.000000
  0.150065  0.129960  0.083608     24.000000
  0.187581  0.151620  0.083608     12.000000
  0.075032  0.129960  0.083608     12.000000
  0.112548  0.151620  0.083608     24.000000
  0.150065  0.173280  0.083608     24.000000
  0.112548  0.194940  0.083608     12.000000
  0.150065  0.216599  0.083608     12.000000
  0.000000  0.000000  0.104511      2.000000
  0.037516  0.021660  0.104511     12.000000
  0.075032  0.043320  0.104511     12.000000
  0.112548  0.064980  0.104511     12.000000
  0.150065  0.086640  0.104511     12.000000
  0.187581  0.108300  0.104511     12.000000
  0.037516  0.064980  0.104511     12.000000
  0.075032  0.086640  0.104511     24.000000
  0.112548  0.108300  0.104511     24.000000
  0.150065  0.129960  0.104511     24.000000
  0.187581  0.151620  0.104511     12.000000
  0.075032  0.129960  0.104511     12.000000
  0.112548  0.151620  0.104511     24.000000
  0.150065  0.173280  0.104511     24.000000
  0.112548  0.194940  0.104511     12.000000
  0.150065  0.216599  0.104511     12.000000
 


--------------------------------------------------------------------------------------------------------




 Dimension of arrays:
   k-points           NKPTS =     96   k-points in BZ     NKDIM =     96   number of bands    NBANDS=     40
   number of dos      NEDOS =    301   number of ions     NIONS =      2
   non local maximal  LDIM  =      6   non local SUM 2l+1 LMDIM =     18
   total plane-waves  NPLWV =   1800
   max r-space proj   IRMAX =      1   max aug-charges    IRDMAX=   3098
   dimension x,y,z NGX =    10 NGY =   10 NGZ =   18
   dimension x,y,z NGXF=    20 NGYF=   20 NGZF=   36
   support grid    NGXF=    20 NGYF=   20 NGZF=   36
   ions per type =               2
   NGX,Y,Z   is equivalent  to a cutoff of   6.86,  6.86,  6.88 a.u.
   NGXF,Y,Z  is equivalent  to a cutoff of  13.72, 13.72, 13.76 a.u.

 SYSTEM =  unknown system                          
 POSCAR =  Fe                                      

 Startparameter for this run:
   NWRITE =      2    write-flag & timer
   PREC   = normal    normal or accurate (medium, high low for compatibility)
   ISTART =      0    job   : 0-new  1-cont  2-samecut
   ICHARG =      1    charge: 1-file 2-atom 10-const
   ISPIN  =      1    spin polarized calculation?
   LNONCOLLINEAR =      F non collinear calculations
   LSORBIT =      F    spin-orbit coupling
   INIWAV =      1    electr: 0-lowe 1-rand  2-diag
   LASPH  =      F    aspherical Exc in radial PAW
   METAGGA=      F    non-selfconsistent MetaGGA calc.

 Electronic Relaxation 1
   ENCUT  =  280.0 eV  20.58 Ry    4.54 a.u.   3.31  3.31  5.93*2*pi/ulx,y,z
   ENINI  =  280.0     initial cutoff
   ENAUG  =  511.4 eV  augmentation charge cutoff
   NELM   =     60;   NELMIN=  2; NELMDL= -5     # of ELM steps 
   EDIFF  = 0.1E-05   stopping-criterion for ELM
   LREAL  =      F    real-space projection
   NLSPLINE    = F    spline interpolate recip. space projectors
   LCOMPAT=      F    compatible to vasp.4.4
   GGA_COMPAT  = T    GGA compatible to vasp.4.4-vasp.4.6
   LMAXPAW     = -100 max onsite density
   LMAXMIX     =    2 max onsite mixed and CHGCAR
   VOSKOWN=      0    Vosko Wilk Nusair interpolation
   ROPT   =    0.00000
 Ionic relaxation
   EDIFFG = 0.1E-04   stopping-criterion for IOM
   NSW    =      0    number of steps for IOM
   NBLOCK =      1;   KBLOCK =      1    inner block; outer block 
   IBRION =     -1    ionic relax: 0-MD 1-quasi-New 2-CG
   NFREE  =      0    steps in history (QN), initial steepest desc. (CG)
   ISIF   =      2    stress and relaxation
   IWAVPR =      0    prediction:  0-non 1-charg 2-wave 3-comb
   ISYM   =      2    0-nonsym 1-usesym 2-fastsym
   LCORR  =      T    Harris-Foulkes like correction to forces

   POTIM  = 0.5000    time-step for ionic-motion
   TEIN   =    0.0    initial temperature
   TEBEG  =    0.0;   TEEND  =   0.0 temperature during run
   SMASS  =  -3.00    Nose mass-parameter (am)
   estimated Nose-frequenzy (Omega)   =  0.10E-29 period in steps = 0.13E+47 mass=  -0.134E-27a.u.
   SCALEE = 1.0000    scale energy and forces
   NPACO  =    256;   APACO  = 16.0  distance and # of slots for P.C.
   PSTRESS=    0.0 pullay stress

  Mass of Ions in am
   POMASS =  55.85
  Ionic Valenz
   ZVAL   =   8.00
  Atomic Wigner-Seitz radii
   RWIGS  =  -1.00
  virtual crystal weights 
   VCA    =   1.00
   NELECT =      16.0000    total number of electrons
   NUPDOWN=      -1.0000    fix difference up-down

 DOS related values:
   EMIN   =  10.00;   EMAX   =-10.00  energy-range for DOS
   EFERMI =   0.00
   ISMEAR =     1;   SIGMA  =   0.20  broadening in eV -4-tet -1-fermi 0-gaus

 Electronic relaxation 2 (details)
   IALGO  =     38    algorithm
   LDIAG  =      T    sub-space diagonalisation (order eigenvalues)
   LSUBROT=      F    optimize rotation matrix (better conditioning)
   TURBO    =      0    0=normal 1=particle mesh
   IRESTART =      0    0=no restart 2=restart with 2 vectors
   NREBOOT  =      0    no. of reboots
   NMIN     =      0    reboot dimension
   EREF     =   0.00    reference energy to select bands
   IMIX   =      4    mixing-type and parameters
     AMIX     =   0.40;   BMIX     =  1.00
     AMIX_MAG =   1.60;   BMIX_MAG =  1.00
     AMIN     =   0.10
     WC   =   100.;   INIMIX=   1;  MIXPRE=   1;  MAXMIX= -45

 Intra band minimization:
   WEIMIN = 0.0000     energy-eigenvalue tresh-hold
   EBREAK =  0.62E-08  absolut break condition
   DEPER  =   0.30     relativ break condition  

   TIME   =   0.40     timestep for ELM

  volume/ion in A,a.u.               =      11.06        74.63
  Fermi-wavevector in a.u.,A,eV,Ry     =   1.469623  2.777185 29.385757  2.159792
  Thomas-Fermi vector in A             =   2.584978
 
 Write flags
   LWAVE        =      T    write WAVECAR
   LDOWNSAMPLE  =      F    k-point downsampling of WAVECAR
   LCHARG       =      T    write CHGCAR
   LVTOT        =      F    write LOCPOT, total local potential
   LVHAR        =      F    write LOCPOT, Hartree potential only
   LELF         =      F    write electronic localiz. function (ELF)
   LORBIT       =      0    0 simple, 1 ext, 2 COOP (PROOUT), +10 PAW based schemes


 Dipole corrections
   LMONO  =      F    monopole corrections only (constant potential shift)
   LDIPOL =      F    correct potential (dipole corrections)
   IDIPOL =      0    1-x, 2-y, 3-z, 4-all directions 
   EPSILON=  1.0000000 bulk dielectric constant

 Exchange correlation treatment:
   GGA     =    PE    GGA type
   LEXCH   =     8    internal setting for exchange type
   VOSKOWN=      0    Vosko Wilk Nusair interpolation
   LHFCALC =     F    Hartree Fock is set to
   LHFONE  =     F    Hartree Fock one center treatment
   AEXX    =    0.0000 exact exchange contribution

 Linear response parameters
   LEPSILON=     F    determine dielectric tensor
   LRPA    =     F    only Hartree local field effects (RPA)
   LNABLA  =     F    use nabla operator in PAW spheres
   LVEL    =     F    velocity operator in full k-point grid
   LINTERFAST=   F  fast interpolation
   KINTER  =     0    interpolate to denser k-point grid
   CSHIFT  =0.1000    complex shift for real part using Kramers Kronig
   OMEGAMAX=  -1.0    maximum frequency
   DEG_THRESHOLD= 0.2000000E-02 threshold for treating states as degnerate
   RTIME   =   -0.100 relaxation time in fs
  (WPLASMAI=    0.000 imaginary part of plasma frequency in eV, 0.658/RTIME)
   DFIELD  = 0.0000000 0.0000000 0.0000000 field for delta impulse in time
 
 Orbital magnetization related:
   ORBITALMAG=     F  switch on orbital magnetization
   LCHIMAG   =     F  perturbation theory with respect to B field
   DQ        =  0.001000  dq finite difference perturbation B field
   LLRAUG    =     F  two centre corrections for induced B field



--------------------------------------------------------------------------------------------------------


 Static calculation
 charge density and potential will be updated during run
 non-spin polarized calculation
 Variant of blocked Davidson
 Davidson routine will perform the subspace rotation
 perform sub-space diagonalisation
    after iterative eigenvector-optimisation
 modified Broyden-mixing scheme, WC =      100.0
 initial mixing is a Kerker type mixing with AMIX =  0.4000 and BMIX =      1.0000
 Hartree-type preconditioning will be used
 using additional bands           32
 reciprocal scheme for non local part
 use partial core corrections
 calculate Harris-corrections to forces 
   (improved forces if not selfconsistent)
 use gradient corrections 
 use of overlap-Matrix (Vanderbilt PP)
 Methfessel and Paxton  Order N= 1 SIGMA  =   0.20


--------------------------------------------------------------------------------------------------------


  energy-cutoff  :      280.00
  volume of cell :       22.12
      direct lattice vectors                 reciprocal lattice vectors
     2.423200000  0.000000000  0.000000000     0.412677451  0.238259438  0.000000000
    -1.211600000  2.098552758  0.000000000     0.000000000  0.476518875  0.000000000
     0.000000000  0.000000000  4.349280000     0.000000000  0.000000000  0.229923114

  length of vectors
     2.423200000  2.423200000  4.349280000     0.476518875  0.476518875  0.229923114


 
 k-points in units of 2pi/SCALE and weight: KPOINTS created by Atomic Simulation Env
   0.00000000  0.00000000  0.00000000       0.001
   0.03751613  0.02165995  0.00000000       0.005
   0.07503226  0.04331990  0.00000000       0.005
   0.11254840  0.06497985  0.00000000       0.005
   0.15006453  0.08663980  0.00000000       0.005
   0.18758066  0.10829974  0.00000000       0.005
   0.03751613  0.06497985  0.00000000       0.005
   0.07503226  0.08663980  0.00000000       0.009
   0.11254840  0.10829974  0.00000000       0.009
   0.15006453  0.12995969  0.00000000       0.009
   0.18758066  0.15161964  0.00000000       0.005
   0.07503226  0.12995969  0.00000000       0.005
   0.11254840  0.15161964  0.00000000       0.009
   0.15006453  0.17327959  0.00000000       0.009
   0.11254840  0.19493954  0.00000000       0.005
   0.15006453  0.21659949  0.00000000       0.005
   0.00000000  0.00000000  0.02090210       0.002
   0.03751613  0.02165995  0.02090210       0.009
   0.07503226  0.04331990  0.02090210       0.009
   0.11254840  0.06497985  0.02090210       0.009
   0.15006453  0.08663980  0.02090210       0.009
   0.18758066  0.10829974  0.02090210       0.009
   0.03751613  0.06497985  0.02090210       0.009
   0.07503226  0.08663980  0.02090210       0.018
   0.11254840  0.10829974  0.02090210       0.018
   0.15006453  0.12995969  0.02090210       0.018
   0.18758066  0.15161964  0.02090210       0.009
   0.07503226  0.12995969  0.02090210       0.009
   0.11254840  0.15161964  0.02090210       0.018
   0.15006453  0.17327959  0.02090210       0.018
   0.11254840  0.19493954  0.02090210       0.009
   0.15006453  0.21659949  0.02090210       0.009
   0.00000000  0.00000000  0.04180420       0.002
   0.03751613  0.02165995  0.04180420       0.009
   0.07503226  0.04331990  0.04180420       0.009
   0.11254840  0.06497985  0.04180420       0.009
   0.15006453  0.08663980  0.04180420       0.009
   0.18758066  0.10829974  0.04180420       0.009
   0.03751613  0.06497985  0.04180420       0.009
   0.07503226  0.08663980  0.04180420       0.018
   0.11254840  0.10829974  0.04180420       0.018
   0.15006453  0.12995969  0.04180420       0.018
   0.18758066  0.15161964  0.04180420       0.009
   0.07503226  0.12995969  0.04180420       0.009
   0.11254840  0.15161964  0.04180420       0.018
   0.15006453  0.17327959  0.04180420       0.018
   0.11254840  0.19493954  0.04180420       0.009
   0.15006453  0.21659949  0.04180420       0.009
   0.00000000  0.00000000  0.06270630       0.002
   0.03751613  0.02165995  0.06270630       0.009
   0.07503226  0.04331990  0.06270630       0.009
   0.11254840  0.06497985  0.06270630       0.009
   0.15006453  0.08663980  0.06270630       0.009
   0.18758066  0.10829974  0.06270630       0.009
   0.03751613  0.06497985  0.06270630       0.009
   0.07503226  0.08663980  0.06270630       0.018
   0.11254840  0.10829974  0.06270630       0.018
   0.15006453  0.12995969  0.06270630       0.018
   0.18758066  0.15161964  0.06270630       0.009
   0.07503226  0.12995969  0.06270630       0.009
   0.11254840  0.15161964  0.06270630       0.018
   0.15006453  0.17327959  0.06270630       0.018
   0.11254840  0.19493954  0.06270630       0.009
   0.15006453  0.21659949  0.06270630       0.009
   0.00000000  0.00000000  0.08360840       0.002
   0.03751613  0.02165995  0.08360840       0.009
   0.07503226  0.04331990  0.08360840       0.009
   0.11254840  0.06497985  0.08360840       0.009
   0.15006453  0.08663980  0.08360840       0.009
   0.18758066  0.10829974  0.08360840       0.009
   0.03751613  0.06497985  0.08360840       0.009
   0.07503226  0.08663980  0.08360840       0.018
   0.11254840  0.10829974  0.08360840       0.018
   0.15006453  0.12995969  0.08360840       0.018
   0.18758066  0.15161964  0.08360840       0.009
   0.07503226  0.12995969  0.08360840       0.009
   0.11254840  0.15161964  0.08360840       0.018
   0.15006453  0.17327959  0.08360840       0.018
   0.11254840  0.19493954  0.08360840       0.009
   0.15006453  0.21659949  0.08360840       0.009
   0.00000000  0.00000000  0.10451051       0.002
   0.03751613  0.02165995  0.10451051       0.009
   0.07503226  0.04331990  0.10451051       0.009
   0.11254840  0.06497985  0.10451051       0.009
   0.15006453  0.08663980  0.10451051       0.009
   0.18758066  0.10829974  0.10451051       0.009
   0.03751613  0.06497985  0.10451051       0.009
   0.07503226  0.08663980  0.10451051       0.018
   0.11254840  0.10829974  0.10451051       0.018
   0.15006453  0.12995969  0.10451051       0.018
   0.18758066  0.15161964  0.10451051       0.009
   0.07503226  0.12995969  0.10451051       0.009
   0.11254840  0.15161964  0.10451051       0.018
   0.15006453  0.17327959  0.10451051       0.018
   0.11254840  0.19493954  0.10451051       0.009
   0.15006453  0.21659949  0.10451051       0.009
 
 k-points in reciprocal lattice and weights: KPOINTS created by Atomic Simulation Env
   0.00000000  0.00000000  0.00000000       0.001
   0.09090909 -0.00000000  0.00000000       0.005
   0.18181818  0.00000000  0.00000000       0.005
   0.27272727  0.00000000  0.00000000       0.005
   0.36363636  0.00000000  0.00000000       0.005
   0.45454545 -0.00000000  0.00000000       0.005
   0.09090909  0.09090909  0.00000000       0.005
   0.18181818  0.09090909  0.00000000       0.009
   0.27272727  0.09090909  0.00000000       0.009
   0.36363636  0.09090909  0.00000000       0.009
   0.45454545  0.09090909  0.00000000       0.005
   0.18181818  0.18181818  0.00000000       0.005
   0.27272727  0.18181818  0.00000000       0.009
   0.36363636  0.18181818  0.00000000       0.009
   0.27272727  0.27272727  0.00000000       0.005
   0.36363636  0.27272727  0.00000000       0.005
   0.00000000  0.00000000  0.09090909       0.002
   0.09090909 -0.00000000  0.09090909       0.009
   0.18181818  0.00000000  0.09090909       0.009
   0.27272727  0.00000000  0.09090909       0.009
   0.36363636  0.00000000  0.09090909       0.009
   0.45454545 -0.00000000  0.09090909       0.009
   0.09090909  0.09090909  0.09090909       0.009
   0.18181818  0.09090909  0.09090909       0.018
   0.27272727  0.09090909  0.09090909       0.018
   0.36363636  0.09090909  0.09090909       0.018
   0.45454545  0.09090909  0.09090909       0.009
   0.18181818  0.18181818  0.09090909       0.009
   0.27272727  0.18181818  0.09090909       0.018
   0.36363636  0.18181818  0.09090909       0.018
   0.27272727  0.27272727  0.09090909       0.009
   0.36363636  0.27272727  0.09090909       0.009
   0.00000000  0.00000000  0.18181818       0.002
   0.09090909 -0.00000000  0.18181818       0.009
   0.18181818  0.00000000  0.18181818       0.009
   0.27272727  0.00000000  0.18181818       0.009
   0.36363636  0.00000000  0.18181818       0.009
   0.45454545 -0.00000000  0.18181818       0.009
   0.09090909  0.09090909  0.18181818       0.009
   0.18181818  0.09090909  0.18181818       0.018
   0.27272727  0.09090909  0.18181818       0.018
   0.36363636  0.09090909  0.18181818       0.018
   0.45454545  0.09090909  0.18181818       0.009
   0.18181818  0.18181818  0.18181818       0.009
   0.27272727  0.18181818  0.18181818       0.018
   0.36363636  0.18181818  0.18181818       0.018
   0.27272727  0.27272727  0.18181818       0.009
   0.36363636  0.27272727  0.18181818       0.009
   0.00000000  0.00000000  0.27272727       0.002
   0.09090909 -0.00000000  0.27272727       0.009
   0.18181818  0.00000000  0.27272727       0.009
   0.27272727  0.00000000  0.27272727       0.009
   0.36363636  0.00000000  0.27272727       0.009
   0.45454545 -0.00000000  0.27272727       0.009
   0.09090909  0.09090909  0.27272727       0.009
   0.18181818  0.09090909  0.27272727       0.018
   0.27272727  0.09090909  0.27272727       0.018
   0.36363636  0.09090909  0.27272727       0.018
   0.45454545  0.09090909  0.27272727       0.009
   0.18181818  0.18181818  0.27272727       0.009
   0.27272727  0.18181818  0.27272727       0.018
   0.36363636  0.18181818  0.27272727       0.018
   0.27272727  0.27272727  0.27272727       0.009
   0.36363636  0.27272727  0.27272727       0.009
   0.00000000  0.00000000  0.36363636       0.002
   0.09090909 -0.00000000  0.36363636       0.009
   0.18181818  0.00000000  0.36363636       0.009
   0.27272727  0.00000000  0.36363636       0.009
   0.36363636  0.00000000  0.36363636       0.009
   0.45454545 -0.00000000  0.36363636       0.009
   0.09090909  0.09090909  0.36363636       0.009
   0.18181818  0.09090909  0.36363636       0.018
   0.27272727  0.09090909  0.36363636       0.018
   0.36363636  0.09090909  0.36363636       0.018
   0.45454545  0.09090909  0.36363636       0.009
   0.18181818  0.18181818  0.36363636       0.009
   0.27272727  0.18181818  0.36363636       0.018
   0.36363636  0.18181818  0.36363636       0.018
   0.27272727  0.27272727  0.36363636       0.009
   0.36363636  0.27272727  0.36363636       0.009
   0.00000000  0.00000000  0.45454545       0.002
   0.09090909 -0.00000000  0.45454545       0.009
   0.18181818  0.00000000  0.45454545       0.009
   0.27272727  0.00000000  0.45454545       0.009
   0.36363636  0.00000000  0.45454545       0.009
   0.45454545 -0.00000000  0.45454545       0.009
   0.09090909  0.09090909  0.45454545       0.009
   0.18181818  0.09090909  0.45454545       0.018
   0.27272727  0.09090909  0.45454545       0.018
   0.36363636  0.09090909  0.45454545       0.018
   0.45454545  0.09090909  0.45454545       0.009
   0.18181818  0.18181818  0.45454545       0.009
   0.27272727  0.18181818  0.45454545       0.018
   0.36363636  0.18181818  0.45454545       0.018
   0.27272727  0.27272727  0.45454545       0.009
   0.36363636  0.27272727  0.45454545       0.009
 
 position of ions in fractional coordinates (direct lattice) 
   0.00000000  0.00000000  0.00000000
   0.33333333  0.66666667  0.50000000
 
 position of ions in cartesian coordinates  (Angst):
   0.00000000  0.00000000  0.00000000
   0.00000000  1.39903517  2.17464000
 


--------------------------------------------------------------------------------------------------------


 k-point   1 :   0.0000 0.0000 0.0000  plane waves:     245
 k-point   2 :   0.0909-0.0000 0.0000  plane waves:     237
 k-point   3 :   0.1818 0.0000 0.0000  plane waves:     238
 k-point   4 :   0.2727 0.0000 0.0000  plane waves:     232
 k-point   5 :   0.3636 0.0000 0.0000  plane waves:     234
 k-point   6 :   0.4545-0.0000 0.0000  plane waves:     234
 k-point   7 :   0.0909 0.0909 0.0000  plane waves:     229
 k-point   8 :   0.1818 0.0909 0.0000  plane waves:     235
 k-point   9 :   0.2727 0.0909 0.0000  plane waves:     238
 k-point  10 :   0.3636 0.0909 0.0000  plane waves:     233
 k-point  11 :   0.4545 0.0909 0.0000  plane waves:     230
 k-point  12 :   0.1818 0.1818 0.0000  plane waves:     235
 k-point  13 :   0.2727 0.1818 0.0000  plane waves:     235
 k-point  14 :   0.3636 0.1818 0.0000  plane waves:     234
 k-point  15 :   0.2727 0.2727 0.0000  plane waves:     231
 k-point  16 :   0.3636 0.2727 0.0000  plane waves:     230
 k-point  17 :   0.0000 0.0000 0.0909  plane waves:     246
 k-point  18 :   0.0909-0.0000 0.0909  plane waves:     237
 k-point  19 :   0.1818 0.0000 0.0909  plane waves:     236
 k-point  20 :   0.2727 0.0000 0.0909  plane waves:     232
 k-point  21 :   0.3636 0.0000 0.0909  plane waves:     234
 k-point  22 :   0.4545-0.0000 0.0909  plane waves:     236
 k-point  23 :   0.0909 0.0909 0.0909  plane waves:     237
 k-point  24 :   0.1818 0.0909 0.0909  plane waves:     235
 k-point  25 :   0.2727 0.0909 0.0909  plane waves:     235
 k-point  26 :   0.3636 0.0909 0.0909  plane waves:     236
 k-point  27 :   0.4545 0.0909 0.0909  plane waves:     232
 k-point  28 :   0.1818 0.1818 0.0909  plane waves:     235
 k-point  29 :   0.2727 0.1818 0.0909  plane waves:     232
 k-point  30 :   0.3636 0.1818 0.0909  plane waves:     234
 k-point  31 :   0.2727 0.2727 0.0909  plane waves:     235
 k-point  32 :   0.3636 0.2727 0.0909  plane waves:     230
 k-point  33 :   0.0000 0.0000 0.1818  plane waves:     246
 k-point  34 :   0.0909-0.0000 0.1818  plane waves:     237
 k-point  35 :   0.1818 0.0000 0.1818  plane waves:     239
 k-point  36 :   0.2727 0.0000 0.1818  plane waves:     233
 k-point  37 :   0.3636 0.0000 0.1818  plane waves:     234
 k-point  38 :   0.4545-0.0000 0.1818  plane waves:     237
 k-point  39 :   0.0909 0.0909 0.1818  plane waves:     239
 k-point  40 :   0.1818 0.0909 0.1818  plane waves:     235
 k-point  41 :   0.2727 0.0909 0.1818  plane waves:     234
 k-point  42 :   0.3636 0.0909 0.1818  plane waves:     233
 k-point  43 :   0.4545 0.0909 0.1818  plane waves:     236
 k-point  44 :   0.1818 0.1818 0.1818  plane waves:     234
 k-point  45 :   0.2727 0.1818 0.1818  plane waves:     236
 k-point  46 :   0.3636 0.1818 0.1818  plane waves:     233
 k-point  47 :   0.2727 0.2727 0.1818  plane waves:     234
 k-point  48 :   0.3636 0.2727 0.1818  plane waves:     235
 k-point  49 :   0.0000 0.0000 0.2727  plane waves:     228
 k-point  50 :   0.0909-0.0000 0.2727  plane waves:     239
 k-point  51 :   0.1818 0.0000 0.2727  plane waves:     239
 k-point  52 :   0.2727 0.0000 0.2727  plane waves:     234
 k-point  53 :   0.3636 0.0000 0.2727  plane waves:     238
 k-point  54 :   0.4545-0.0000 0.2727  plane waves:     235
 k-point  55 :   0.0909 0.0909 0.2727  plane waves:     235
 k-point  56 :   0.1818 0.0909 0.2727  plane waves:     237
 k-point  57 :   0.2727 0.0909 0.2727  plane waves:     235
 k-point  58 :   0.3636 0.0909 0.2727  plane waves:     233
 k-point  59 :   0.4545 0.0909 0.2727  plane waves:     238
 k-point  60 :   0.1818 0.1818 0.2727  plane waves:     234
 k-point  61 :   0.2727 0.1818 0.2727  plane waves:     235
 k-point  62 :   0.3636 0.1818 0.2727  plane waves:     236
 k-point  63 :   0.2727 0.2727 0.2727  plane waves:     237
 k-point  64 :   0.3636 0.2727 0.2727  plane waves:     234
 k-point  65 :   0.0000 0.0000 0.3636  plane waves:     234
 k-point  66 :   0.0909-0.0000 0.3636  plane waves:     239
 k-point  67 :   0.1818 0.0000 0.3636  plane waves:     242
 k-point  68 :   0.2727 0.0000 0.3636  plane waves:     235
 k-point  69 :   0.3636 0.0000 0.3636  plane waves:     238
 k-point  70 :   0.4545-0.0000 0.3636  plane waves:     238
 k-point  71 :   0.0909 0.0909 0.3636  plane waves:     241
 k-point  72 :   0.1818 0.0909 0.3636  plane waves:     238
 k-point  73 :   0.2727 0.0909 0.3636  plane waves:     234
 k-point  74 :   0.3636 0.0909 0.3636  plane waves:     236
 k-point  75 :   0.4545 0.0909 0.3636  plane waves:     239
 k-point  76 :   0.1818 0.1818 0.3636  plane waves:     236
 k-point  77 :   0.2727 0.1818 0.3636  plane waves:     233
 k-point  78 :   0.3636 0.1818 0.3636  plane waves:     233
 k-point  79 :   0.2727 0.2727 0.3636  plane waves:     234
 k-point  80 :   0.3636 0.2727 0.3636  plane waves:     235
 k-point  81 :   0.0000 0.0000 0.4545  plane waves:     240
 k-point  82 :   0.0909-0.0000 0.4545  plane waves:     245
 k-point  83 :   0.1818 0.0000 0.4545  plane waves:     236
 k-point  84 :   0.2727 0.0000 0.4545  plane waves:     230
 k-point  85 :   0.3636 0.0000 0.4545  plane waves:     236
 k-point  86 :   0.4545-0.0000 0.4545  plane waves:     242
 k-point  87 :   0.0909 0.0909 0.4545  plane waves:     243
 k-point  88 :   0.1818 0.0909 0.4545  plane waves:     238
 k-point  89 :   0.2727 0.0909 0.4545  plane waves:     234
 k-point  90 :   0.3636 0.0909 0.4545  plane waves:     238
 k-point  91 :   0.4545 0.0909 0.4545  plane waves:     236
 k-point  92 :   0.1818 0.1818 0.4545  plane waves:     234
 k-point  93 :   0.2727 0.1818 0.4545  plane waves:     233
 k-point  94 :   0.3636 0.1818 0.4545  plane waves:     233
 k-point  95 :   0.2727 0.2727 0.4545  plane waves:     234
 k-point  96 :   0.3636 0.2727 0.4545  plane waves:     235

 maximum number of plane-waves:       246
 maximum index in each direction: 
   IXMAX=    3   IYMAX=    3   IZMAX=    5
   IXMIN=   -3   IYMIN=   -3   IZMIN=   -6


 total amount of memory used by VASP MPI-rank0    51577. kBytes
=======================================================================

   base      :      30000. kBytes
   nonl-proj :       3408. kBytes
   grid      :        812. kBytes
   one-center:         31. kBytes
   wavefun   :      17326. kBytes
 
     INWAV:  cpu time    0.0000: real time    0.0000
 Broyden mixing: mesh for mixing (old mesh)
   NGX =  7   NGY =  7   NGZ = 11
  (NGX  = 20   NGY  = 20   NGZ  = 36)
  gives a total of    539 points

 initial charge density was supplied:
 charge density of overlapping atoms calculated
 number of electron      16.0000000 magnetization 
 keeping initial charge density in first step


--------------------------------------------------------------------------------------------------------


 Maximum index for augmentation-charges         2832 (set IRDMAX)


--------------------------------------------------------------------------------------------------------


 First call to EWALD:  gamma=   0.631
 Maximum number of real-space cells 4x 4x 2
 Maximum number of reciprocal cells 2x 2x 4

    FEWALD:  cpu time    0.0009: real time    0.0009


--------------------------------------- Iteration      1(   1)  ---------------------------------------


    POTLOK:  cpu time    0.0050: real time    0.0067
    SETDIJ:  cpu time    0.0031: real time    0.0031
     EDDAV:  cpu time    0.8386: real time    0.8571
       DOS:  cpu time    0.0054: real time    0.0054
    --------------------------------------------
      LOOP:  cpu time    0.8521: real time    0.8723

 eigenvalue-minimisations  :  9104
 total energy-change (2. order) : 0.6126733E+02  (-0.2834702E+03)
 number of electron      16.0000000 magnetization 
 augmentation part       16.0000000 magnetization 

 Free energy of the ion-electron system (eV)
  ---------------------------------------------------
  alpha Z        PSCENC =       124.99656899
  Ewald energy   TEWEN  =     -1193.08452730
  -Hartree energ DENC   =      -220.31395414
  -exchange      EXHF   =         0.00000000
  -V(xc)+E(xc)   XCENC  =         7.99481235
  PAW double counting   =      1109.69170683    -1125.09647265
  entropy T*S    EENTRO =        -0.00540764
  eigenvalues    EBANDS =       168.50969970
  atomic energy  EATOM  =      1188.57490811
  Solvation  Ediel_sol  =         0.00000000
  ---------------------------------------------------
  free energy    TOTEN  =        61.26733426 eV

  energy without entropy =       61.27274190  energy(sigma->0) =       61.26913681


--------------------------------------------------------------------------------------------------------




--------------------------------------- Iteration      1(   2)  ---------------------------------------


     EDDAV:  cpu time    0.7153: real time    0.7154
       DOS:  cpu time    0.0063: real time    0.0063
    --------------------------------------------
      LOOP:  cpu time    0.7216: real time    0.7217

 eigenvalue-minimisations  :  7976
 total energy-change (2. order) :-0.7582600E+02  (-0.6444037E+02)
 number of electron      16.0000000 magnetization 
 augmentation part       16.0000000 magnetization 

 Free energy of the ion-electron system (eV)
  ---------------------------------------------------
  alpha Z        PSCENC =       124.99656899
  Ewald energy   TEWEN  =     -1193.08452730
  -Hartree energ DENC   =      -220.31395414
  -exchange      EXHF   =         0.00000000
  -V(xc)+E(xc)   XCENC  =         7.99481235
  PAW double counting   =      1109.69170683    -1125.09647265
  entropy T*S    EENTRO =         0.00645625
  eigenvalues    EBANDS =        92.67183534
  atomic energy  EATOM  =      1188.57490811
  Solvation  Ediel_sol  =         0.00000000
  ---------------------------------------------------
  free energy    TOTEN  =       -14.55866621 eV

  energy without entropy =      -14.56512246  energy(sigma->0) =      -14.56081830


--------------------------------------------------------------------------------------------------------




--------------------------------------- Iteration      1(   3)  ---------------------------------------


     EDDAV:  cpu time    0.7991: real time    0.7991
       DOS:  cpu time    0.0066: real time    0.0066
    --------------------------------------------
      LOOP:  cpu time    0.8057: real time    0.8057

 eigenvalue-minimisations  :  9424
 total energy-change (2. order) :-0.4561533E+01  (-0.4301654E+01)
 number of electron      16.0000000 magnetization 
 augmentation part       16.0000000 magnetization 

 Free energy of the ion-electron system (eV)
  ---------------------------------------------------
  alpha Z        PSCENC =       124.99656899
  Ewald energy   TEWEN  =     -1193.08452730
  -Hartree energ DENC   =      -220.31395414
  -exchange      EXHF   =         0.00000000
  -V(xc)+E(xc)   XCENC  =         7.99481235
  PAW double counting   =      1109.69170683    -1125.09647265
  entropy T*S    EENTRO =         0.00108195
  eigenvalues    EBANDS =        88.11567700
  atomic energy  EATOM  =      1188.57490811
  Solvation  Ediel_sol  =         0.00000000
  ---------------------------------------------------
  free energy    TOTEN  =       -19.12019885 eV

  energy without entropy =      -19.12128080  energy(sigma->0) =      -19.12055950


--------------------------------------------------------------------------------------------------------




--------------------------------------- Iteration      1(   4)  ---------------------------------------


     EDDAV:  cpu time    0.7697: real time    0.7697
       DOS:  cpu time    0.0066: real time    0.0066
    --------------------------------------------
      LOOP:  cpu time    0.7764: real time    0.7764

 eigenvalue-minimisations  :  9184
 total energy-change (2. order) :-0.2461833E-01  (-0.2459880E-01)
 number of electron      16.0000000 magnetization 
 augmentation part       16.0000000 magnetization 

 Free energy of the ion-electron system (eV)
  ---------------------------------------------------
  alpha Z        PSCENC =       124.99656899
  Ewald energy   TEWEN  =     -1193.08452730
  -Hartree energ DENC   =      -220.31395414
  -exchange      EXHF   =         0.00000000
  -V(xc)+E(xc)   XCENC  =         7.99481235
  PAW double counting   =      1109.69170683    -1125.09647265
  entropy T*S    EENTRO =         0.00111912
  eigenvalues    EBANDS =        88.09102150
  atomic energy  EATOM  =      1188.57490811
  Solvation  Ediel_sol  =         0.00000000
  ---------------------------------------------------
  free energy    TOTEN  =       -19.14481718 eV

  energy without entropy =      -19.14593630  energy(sigma->0) =      -19.14519022


--------------------------------------------------------------------------------------------------------




--------------------------------------- Iteration      1(   5)  ---------------------------------------


     EDDAV:  cpu time    0.7722: real time    0.7722
       DOS:  cpu time    0.0065: real time    0.0065
    CHARGE:  cpu time    0.0202: real time    0.0202
    MIXING:  cpu time    0.0002: real time    0.0002
    --------------------------------------------
      LOOP:  cpu time    0.7991: real time    0.7991

 eigenvalue-minimisations  :  9232
 total energy-change (2. order) :-0.4625322E-04  (-0.4625261E-04)
 number of electron      16.0000014 magnetization 
 augmentation part        7.0305556 magnetization 

 Broyden mixing:
  rms(total) = 0.15841E+01    rms(broyden)= 0.15840E+01
  rms(prec ) = 0.28322E+01
  weight for this iteration     100.00

 Free energy of the ion-electron system (eV)
  ---------------------------------------------------
  alpha Z        PSCENC =       124.99656899
  Ewald energy   TEWEN  =     -1193.08452730
  -Hartree energ DENC   =      -220.31395414
  -exchange      EXHF   =         0.00000000
  -V(xc)+E(xc)   XCENC  =         7.99481235
  PAW double counting   =      1109.69170683    -1125.09647265
  entropy T*S    EENTRO =         0.00111920
  eigenvalues    EBANDS =        88.09097518
  atomic energy  EATOM  =      1188.57490811
  Solvation  Ediel_sol  =         0.00000000
  ---------------------------------------------------
  free energy    TOTEN  =       -19.14486343 eV

  energy without entropy =      -19.14598263  energy(sigma->0) =      -19.14523650


--------------------------------------------------------------------------------------------------------




--------------------------------------- Iteration      1(   6)  ---------------------------------------


    POTLOK:  cpu time    0.0033: real time    0.0033
    SETDIJ:  cpu time    0.0021: real time    0.0021
     EDDAV:  cpu time    0.9169: real time    0.9170
       DOS:  cpu time    0.0062: real time    0.0062
    CHARGE:  cpu time    0.0196: real time    0.0196
    MIXING:  cpu time    0.0002: real time    0.0002
    --------------------------------------------
      LOOP:  cpu time    0.9484: real time    0.9485

 eigenvalue-minimisations  : 11096
 total energy-change (2. order) : 0.2867942E+01  (-0.2221050E+00)
 number of electron      16.0000023 magnetization 
 augmentation part        8.6135647 magnetization 

 Broyden mixing:
  rms(total) = 0.36966E+00    rms(broyden)= 0.36954E+00
  rms(prec ) = 0.63682E+00
  weight for this iteration     100.00

 eigenvalues of (default mixing * dielectric matrix)
  average eigenvalue GAMMA=   0.8591
  0.8591

 Free energy of the ion-electron system (eV)
  ---------------------------------------------------
  alpha Z        PSCENC =       124.99656899
  Ewald energy   TEWEN  =     -1193.08452730
  -Hartree energ DENC   =      -183.62775227
  -exchange      EXHF   =         0.00000000
  -V(xc)+E(xc)   XCENC  =         6.21185548
  PAW double counting   =      1212.50584948    -1222.83048421
  entropy T*S    EENTRO =         0.00358665
  eigenvalues    EBANDS =        50.97307390
  atomic energy  EATOM  =      1188.57490811
  Solvation  Ediel_sol  =         0.00000000
  ---------------------------------------------------
  free energy    TOTEN  =       -16.27692117 eV

  energy without entropy =      -16.28050781  energy(sigma->0) =      -16.27811671


--------------------------------------------------------------------------------------------------------




--------------------------------------- Iteration      1(   7)  ---------------------------------------


    POTLOK:  cpu time    0.0034: real time    0.0034
    SETDIJ:  cpu time    0.0021: real time    0.0021
     EDDAV:  cpu time    0.8394: real time    0.8395
       DOS:  cpu time    0.0064: real time    0.0064
    CHARGE:  cpu time    0.0197: real time    0.0197
    MIXING:  cpu time    0.0002: real time    0.0002
    --------------------------------------------
      LOOP:  cpu time    0.8712: real time    0.8713

 eigenvalue-minimisations  : 10160
 total energy-change (2. order) : 0.3024422E+00  (-0.1905355E-01)
 number of electron      16.0000021 magnetization 
 augmentation part        8.1927499 magnetization 

 Broyden mixing:
  rms(total) = 0.99678E-01    rms(broyden)= 0.99673E-01
  rms(prec ) = 0.20469E+00
  weight for this iteration     100.00

 eigenvalues of (default mixing * dielectric matrix)
  average eigenvalue GAMMA=   0.9236
  1.1403  0.7070

 Free energy of the ion-electron system (eV)
  ---------------------------------------------------
  alpha Z        PSCENC =       124.99656899
  Ewald energy   TEWEN  =     -1193.08452730
  -Hartree energ DENC   =      -190.08697244
  -exchange      EXHF   =         0.00000000
  -V(xc)+E(xc)   XCENC  =         6.55889897
  PAW double counting   =      1279.68963163    -1293.75398464
  entropy T*S    EENTRO =         0.00382471
  eigenvalues    EBANDS =        61.12717302
  atomic energy  EATOM  =      1188.57490811
  Solvation  Ediel_sol  =         0.00000000
  ---------------------------------------------------
  free energy    TOTEN  =       -15.97447895 eV

  energy without entropy =      -15.97830366  energy(sigma->0) =      -15.97575385


--------------------------------------------------------------------------------------------------------




--------------------------------------- Iteration      1(   8)  ---------------------------------------


    POTLOK:  cpu time    0.0034: real time    0.0034
    SETDIJ:  cpu time    0.0021: real time    0.0021
     EDDAV:  cpu time    0.8442: real time    0.8442
       DOS:  cpu time    0.0067: real time    0.0067
    CHARGE:  cpu time    0.0196: real time    0.0196
    MIXING:  cpu time    0.0002: real time    0.0002
    --------------------------------------------
      LOOP:  cpu time    0.8761: real time    0.8762

 eigenvalue-minimisations  : 10176
 total energy-change (2. order) : 0.2434698E-01  (-0.5042480E-03)
 number of electron      16.0000022 magnetization 
 augmentation part        8.2286995 magnetization 

 Broyden mixing:
  rms(total) = 0.45776E-01    rms(broyden)= 0.45775E-01
  rms(prec ) = 0.92936E-01
  weight for this iteration     100.00

 eigenvalues of (default mixing * dielectric matrix)
  average eigenvalue GAMMA=   1.4160
  0.7440  1.0434  2.4607

 Free energy of the ion-electron system (eV)
  ---------------------------------------------------
  alpha Z        PSCENC =       124.99656899
  Ewald energy   TEWEN  =     -1193.08452730
  -Hartree energ DENC   =      -188.01101107
  -exchange      EXHF   =         0.00000000
  -V(xc)+E(xc)   XCENC  =         6.47704492
  PAW double counting   =      1326.91857207    -1342.14385379
  entropy T*S    EENTRO =         0.00392393
  eigenvalues    EBANDS =        60.31824217
  atomic energy  EATOM  =      1188.57490811
  Solvation  Ediel_sol  =         0.00000000
  ---------------------------------------------------
  free energy    TOTEN  =       -15.95013196 eV

  energy without entropy =      -15.95405589  energy(sigma->0) =      -15.95143994


--------------------------------------------------------------------------------------------------------




--------------------------------------- Iteration      1(   9)  ---------------------------------------


    POTLOK:  cpu time    0.0035: real time    0.0035
    SETDIJ:  cpu time    0.0021: real time    0.0021
     EDDAV:  cpu time    0.9295: real time    0.9296
       DOS:  cpu time    0.0067: real time    0.0067
    CHARGE:  cpu time    0.0196: real time    0.0196
    MIXING:  cpu time    0.0003: real time    0.0003
    --------------------------------------------
      LOOP:  cpu time    0.9617: real time    0.9617

 eigenvalue-minimisations  : 11352
 total energy-change (2. order) : 0.1043959E-01  (-0.8932664E-04)
 number of electron      16.0000022 magnetization 
 augmentation part        8.2467774 magnetization 

 Broyden mixing:
  rms(total) = 0.65482E-02    rms(broyden)= 0.65443E-02
  rms(prec ) = 0.68644E-02
  weight for this iteration     100.00

 eigenvalues of (default mixing * dielectric matrix)
  average eigenvalue GAMMA=   1.4495
  2.5310  0.7425  0.9959  1.5287

 Free energy of the ion-electron system (eV)
  ---------------------------------------------------
  alpha Z        PSCENC =       124.99656899
  Ewald energy   TEWEN  =     -1193.08452730
  -Hartree energ DENC   =      -185.90533205
  -exchange      EXHF   =         0.00000000
  -V(xc)+E(xc)   XCENC  =         6.40257559
  PAW double counting   =      1392.44881932    -1409.32709095
  entropy T*S    EENTRO =         0.00392775
  eigenvalues    EBANDS =        59.95045816
  atomic energy  EATOM  =      1188.57490811
  Solvation  Ediel_sol  =         0.00000000
  ---------------------------------------------------
  free energy    TOTEN  =       -15.93969237 eV

  energy without entropy =      -15.94362013  energy(sigma->0) =      -15.94100162


--------------------------------------------------------------------------------------------------------




--------------------------------------- Iteration      1(  10)  ---------------------------------------


    POTLOK:  cpu time    0.0033: real time    0.0033
    SETDIJ:  cpu time    0.0021: real time    0.0021
     EDDAV:  cpu time    0.7766: real time    0.7767
       DOS:  cpu time    0.0069: real time    0.0069
    CHARGE:  cpu time    0.0200: real time    0.0200
    MIXING:  cpu time    0.0002: real time    0.0002
    --------------------------------------------
      LOOP:  cpu time    0.8091: real time    0.8092

 eigenvalue-minimisations  :  9208
 total energy-change (2. order) :-0.2547065E-04  (-0.4000657E-05)
 number of electron      16.0000022 magnetization 
 augmentation part        8.2475211 magnetization 

 Broyden mixing:
  rms(total) = 0.30217E-02    rms(broyden)= 0.30196E-02
  rms(prec ) = 0.34226E-02
  weight for this iteration     100.00

 eigenvalues of (default mixing * dielectric matrix)
  average eigenvalue GAMMA=   1.6074
  2.5520  2.5520  0.7427  1.0127  1.1774

 Free energy of the ion-electron system (eV)
  ---------------------------------------------------
  alpha Z        PSCENC =       124.99656899
  Ewald energy   TEWEN  =     -1193.08452730
  -Hartree energ DENC   =      -185.86943138
  -exchange      EXHF   =         0.00000000
  -V(xc)+E(xc)   XCENC  =         6.40238024
  PAW double counting   =      1395.53192486    -1412.42432131
  entropy T*S    EENTRO =         0.00392364
  eigenvalues    EBANDS =        59.92885630
  atomic energy  EATOM  =      1188.57490811
  Solvation  Ediel_sol  =         0.00000000
  ---------------------------------------------------
  free energy    TOTEN  =       -15.93971784 eV

  energy without entropy =      -15.94364148  energy(sigma->0) =      -15.94102572


--------------------------------------------------------------------------------------------------------




--------------------------------------- Iteration      1(  11)  ---------------------------------------


    POTLOK:  cpu time    0.0034: real time    0.0034
    SETDIJ:  cpu time    0.0021: real time    0.0021
     EDDAV:  cpu time    0.7784: real time    0.7784
       DOS:  cpu time    0.0068: real time    0.0068
    CHARGE:  cpu time    0.0197: real time    0.0197
    MIXING:  cpu time    0.0002: real time    0.0002
    --------------------------------------------
      LOOP:  cpu time    0.8107: real time    0.8107

 eigenvalue-minimisations  :  9240
 total energy-change (2. order) : 0.4110306E-05  (-0.6150172E-07)
 number of electron      16.0000022 magnetization 
 augmentation part        8.2473125 magnetization 

 Broyden mixing:
  rms(total) = 0.17310E-03    rms(broyden)= 0.17236E-03
  rms(prec ) = 0.19847E-03
  weight for this iteration     100.00

 eigenvalues of (default mixing * dielectric matrix)
  average eigenvalue GAMMA=   1.5234
  2.5683  2.5683  0.7427  0.9983  0.9983  1.2646

 Free energy of the ion-electron system (eV)
  ---------------------------------------------------
  alpha Z        PSCENC =       124.99656899
  Ewald energy   TEWEN  =     -1193.08452730
  -Hartree energ DENC   =      -185.92244434
  -exchange      EXHF   =         0.00000000
  -V(xc)+E(xc)   XCENC  =         6.40506105
  PAW double counting   =      1395.55069917    -1412.39273148
  entropy T*S    EENTRO =         0.00392385
  eigenvalues    EBANDS =        59.92882821
  atomic energy  EATOM  =      1188.57490811
  Solvation  Ediel_sol  =         0.00000000
  ---------------------------------------------------
  free energy    TOTEN  =       -15.93971373 eV

  energy without entropy =      -15.94363758  energy(sigma->0) =      -15.94102168


--------------------------------------------------------------------------------------------------------




--------------------------------------- Iteration      1(  12)  ---------------------------------------


    POTLOK:  cpu time    0.0033: real time    0.0033
    SETDIJ:  cpu time    0.0021: real time    0.0021
     EDDAV:  cpu time    0.5747: real time    0.5748
       DOS:  cpu time    0.0068: real time    0.0068
    --------------------------------------------
      LOOP:  cpu time    0.5869: real time    0.5869

 eigenvalue-minimisations  :  5904
 total energy-change (2. order) : 0.2802019E-06  (-0.3300809E-08)
 number of electron      16.0000022 magnetization 
 augmentation part        8.2473125 magnetization 

 Free energy of the ion-electron system (eV)
  ---------------------------------------------------
  alpha Z        PSCENC =       124.99656899
  Ewald energy   TEWEN  =     -1193.08452730
  -Hartree energ DENC   =      -185.92415958
  -exchange      EXHF   =         0.00000000
  -V(xc)+E(xc)   XCENC  =         6.40518470
  PAW double counting   =      1395.68483881    -1412.52457204
  entropy T*S    EENTRO =         0.00392398
  eigenvalues    EBANDS =        59.92812086
  atomic energy  EATOM  =      1188.57490811
  Solvation  Ediel_sol  =         0.00000000
  ---------------------------------------------------
  free energy    TOTEN  =       -15.93971345 eV

  energy without entropy =      -15.94363743  energy(sigma->0) =      -15.94102145


--------------------------------------------------------------------------------------------------------




 average (electrostatic) potential at core
  the test charge radii are     1.0103
  (the norm of the test charge is              1.0000)
       1 -43.4373       2 -43.4371
 
 
 
 E-fermi :   6.0116     XC(G=0): -13.3139     alpha+bet :-14.0168

 Fermi energy:         6.0116183619

 k-point     1 :       0.0000    0.0000    0.0000
  band No.  band energies     occupation 
      1      -2.4185      2.00000
      2       1.3893      2.00000
      3       3.9497      2.00000
      4       4.6190      2.00000
      5       4.6192      2.00000
      6       4.8670      2.00000
      7       4.8671      2.00000
      8       5.2140      2.00000
      9       5.7994      2.06073
     10       5.7994      2.06070
     11       6.6657     -0.00004
     12       6.6658     -0.00004
     13      12.2997      0.00000
     14      27.9879      0.00000
     15      28.9669      0.00000
     16      31.6271      0.00000
     17      33.4172      0.00000
     18      33.4173      0.00000
     19      33.9677      0.00000
     20      34.2641      0.00000
     21      34.2643      0.00000
     22      37.2461      0.00000
     23      37.2461      0.00000
     24      38.1977      0.00000
     25      40.3193      0.00000
     26      40.3193      0.00000
     27      40.3832      0.00000
     28      43.5402      0.00000
     29      43.5406      0.00000
     30      45.1320      0.00000
     31      45.1322      0.00000
     32      47.2856      0.00000
     33      54.8103      0.00000
     34      59.1650      0.00000
     35      59.1661      0.00000
     36      59.6181      0.00000
     37      60.1403      0.00000
     38      60.2399      0.00000
     39      60.2399      0.00000
     40      60.5650      0.00000

 k-point     2 :       0.0909   -0.0000    0.0000
  band No.  band energies     occupation 
      1      -2.1047      2.00000
      2       1.6270      2.00000
      3       3.9905      2.00000
      4       4.5136      2.00000
      5       4.5400      2.00000
      6       4.7627      2.00000
      7       4.7940      2.00000
      8       5.0306      2.00000
      9       5.6568      2.03089
     10       5.7041      2.05189
     11       6.6902     -0.00002
     12       7.6340     -0.00000
     13      12.3309      0.00000
     14      27.4630      0.00000
     15      28.3668      0.00000
     16      29.8650      0.00000
     17      30.7823      0.00000
     18      33.2598      0.00000
     19      33.2838      0.00000
     20      33.8551      0.00000
     21      36.5286      0.00000
     22      36.7782      0.00000
     23      37.1331      0.00000
     24      37.7339      0.00000
     25      40.9423      0.00000
     26      41.1758      0.00000
     27      41.6050      0.00000
     28      42.0819      0.00000
     29      45.0785      0.00000
     30      46.4106      0.00000
     31      47.6697      0.00000
     32      49.4459      0.00000
     33      54.6024      0.00000
     34      56.6311      0.00000
     35      57.5291      0.00000
     36      57.8879      0.00000
     37      58.8342      0.00000
     38      60.1003      0.00000
     39      61.8756      0.00000
     40      62.1204      0.00000

 k-point     3 :       0.1818    0.0000    0.0000
  band No.  band energies     occupation 
      1      -1.2110      2.00000
      2       2.1975      2.00000
      3       3.6122      2.00000
      4       3.8960      2.00000
      5       4.3471      2.00000
      6       4.8325      2.00000
      7       5.2786      2.00000
      8       5.3165      2.00001
      9       5.4772      2.00104
     10       5.4825      2.00118
     11       6.7271     -0.00001
     12       9.2894     -0.00000
     13      12.4526      0.00000
     14      23.5674      0.00000
     15      28.0878      0.00000
     16      28.6074      0.00000
     17      28.8496      0.00000
     18      29.5709      0.00000
     19      32.9386      0.00000
     20      34.1708      0.00000
     21      34.3453      0.00000
     22      35.5153      0.00000
     23      37.6934      0.00000
     24      38.2451      0.00000
     25      41.2827      0.00000
     26      42.7377      0.00000
     27      44.2730      0.00000
     28      46.2629      0.00000
     29      47.3152      0.00000
     30      50.3095      0.00000
     31      50.5375      0.00000
     32      52.8338      0.00000
     33      53.5516      0.00000
     34      53.5729      0.00000
     35      55.7732      0.00000
     36      57.1494      0.00000
     37      58.3247      0.00000
     38      59.8059      0.00000
     39      62.5298      0.00000
     40      63.7409      0.00000

 k-point     4 :       0.2727    0.0000    0.0000
  band No.  band energies     occupation 
      1       0.0811      2.00000
      2       2.5157      2.00000
      3       2.9257      2.00000
      4       3.8736      2.00000
      5       4.1650      2.00000
      6       4.8840      2.00000
      7       5.2164      2.00000
      8       5.4887      2.00137
      9       5.9666      1.37079
     10       6.1133      0.25041
     11       6.7433     -0.00000
     12      11.1981     -0.00000
     13      12.7339      0.00000
     14      19.6183      0.00000
     15      25.2841      0.00000
     16      25.8047      0.00000
     17      26.7292      0.00000
     18      29.8523      0.00000
     19      31.1830      0.00000
     20      33.7805      0.00000
     21      34.7547      0.00000
     22      34.7923      0.00000
     23      35.2658      0.00000
     24      38.7249      0.00000
     25      44.9407      0.00000
     26      46.2803      0.00000
     27      47.6728      0.00000
     28      48.3486      0.00000
     29      48.7240      0.00000
     30      50.6654      0.00000
     31      51.8088      0.00000
     32      52.7716      0.00000
     33      55.1760      0.00000
     34      55.8589      0.00000
     35      56.5757      0.00000
     36      58.0588      0.00000
     37      59.6330      0.00000
     38      60.2846      0.00000
     39      62.8122      0.00000
     40      63.3476      0.00000

 k-point     5 :       0.3636    0.0000    0.0000
  band No.  band energies     occupation 
      1       1.3000      2.00000
      2       2.2963      2.00000
      3       2.4843      2.00000
      4       3.9728      2.00000
      5       4.4976      2.00000
      6       4.5697      2.00000
      7       4.9990      2.00000
      8       6.5924     -0.00032
      9       6.6565     -0.00005
     10       6.7372     -0.00000
     11       6.7432     -0.00000
     12      12.8724      0.00000
     13      13.2849      0.00000
     14      16.6347      0.00000
     15      22.0138      0.00000
     16      23.7195      0.00000
     17      24.0721      0.00000
     18      29.1672      0.00000
     19      30.2941      0.00000
     20      33.3339      0.00000
     21      34.2743      0.00000
     22      35.4927      0.00000
     23      35.6009      0.00000
     24      38.8822      0.00000
     25      45.3060      0.00000
     26      46.9675      0.00000
     27      48.3327      0.00000
     28      51.1877      0.00000
     29      51.5860      0.00000
     30      51.8377      0.00000
     31      53.7070      0.00000
     32      54.9947      0.00000
     33      55.2862      0.00000
     34      57.6663      0.00000
     35      59.4541      0.00000
     36      59.5062      0.00000
     37      61.0282      0.00000
     38      62.0529      0.00000
     39      63.7924      0.00000
     40      64.3733      0.00000

 k-point     6 :       0.4545   -0.0000    0.0000
  band No.  band energies     occupation 
      1       1.8535      2.00000
      2       2.0517      2.00000
      3       2.2733      2.00000
      4       4.2724      2.00000
      5       4.4710      2.00000
      6       4.7848      2.00000
      7       4.8771      2.00000
      8       6.7280     -0.00001
      9       7.0802     -0.00000
     10       7.1665     -0.00000
     11       8.1400     -0.00000
     12      11.3199     -0.00000
     13      15.3025      0.00000
     14      16.4719      0.00000
     15      19.4283      0.00000
     16      20.9807      0.00000
     17      23.1125      0.00000
     18      28.6033      0.00000
     19      30.0018      0.00000
     20      32.2727      0.00000
     21      34.0513      0.00000
     22      36.3937      0.00000
     23      38.0958      0.00000
     24      38.3470      0.00000
     25      41.9761      0.00000
     26      46.9730      0.00000
     27      49.3321      0.00000
     28      53.0615      0.00000
     29      54.1079      0.00000
     30      54.5900      0.00000
     31      55.2468      0.00000
     32      57.1002      0.00000
     33      58.1727      0.00000
     34      58.9173      0.00000
     35      59.4908      0.00000
     36      59.6843      0.00000
     37      62.9628      0.00000
     38      63.0307      0.00000
     39      63.4336      0.00000
     40      63.9795      0.00000

 k-point     7 :       0.0909    0.0909    0.0000
  band No.  band energies     occupation 
      1      -1.4988      2.00000
      2       2.0474      2.00000
      3       3.8466      2.00000
      4       3.9211      2.00000
      5       4.5495      2.00000
      6       4.5620      2.00000
      7       5.1490      2.00000
      8       5.3175      2.00001
      9       5.3790      2.00007
     10       5.6590      2.03176
     11       6.6927     -0.00002
     12       8.8255     -0.00000
     13      12.4116      0.00000
     14      25.3822      0.00000
     15      26.4074      0.00000
     16      28.9932      0.00000
     17      30.6405      0.00000
     18      31.9417      0.00000
     19      32.1611      0.00000
     20      32.9526      0.00000
     21      33.6430      0.00000
     22      38.2399      0.00000
     23      38.9188      0.00000
     24      38.9634      0.00000
     25      40.5160      0.00000
     26      40.6230      0.00000
     27      40.9773      0.00000
     28      47.0051      0.00000
     29      48.2894      0.00000
     30      48.5127      0.00000
     31      48.5629      0.00000
     32      52.5823      0.00000
     33      54.0576      0.00000
     34      54.2864      0.00000
     35      55.5045      0.00000
     36      57.0009      0.00000
     37      58.3535      0.00000
     38      60.8094      0.00000
     39      62.3249      0.00000
     40      63.2019      0.00000

 k-point     8 :       0.1818    0.0909    0.0000
  band No.  band energies     occupation 
      1      -0.3853      2.00000
      2       2.6043      2.00000
      3       3.1718      2.00000
      4       3.6753      2.00000
      5       4.2671      2.00000
      6       4.9153      2.00000
      7       4.9278      2.00000
      8       5.4310      2.00032
      9       5.7817      2.06899
     10       6.0250      0.88720
     11       6.6774     -0.00003
     12      10.5234     -0.00000
     13      12.6491      0.00000
     14      21.6533      0.00000
     15      24.1600      0.00000
     16      27.1497      0.00000
     17      29.1977      0.00000
     18      29.3868      0.00000
     19      31.9286      0.00000
     20      32.2246      0.00000
     21      33.3410      0.00000
     22      37.1701      0.00000
     23      38.2042      0.00000
     24      38.9921      0.00000
     25      42.1203      0.00000
     26      43.2456      0.00000
     27      45.1561      0.00000
     28      48.4195      0.00000
     29      50.4581      0.00000
     30      51.1632      0.00000
     31      51.3389      0.00000
     32      53.1637      0.00000
     33      54.3681      0.00000
     34      54.6800      0.00000
     35      55.5733      0.00000
     36      56.1633      0.00000
     37      59.4541      0.00000
     38      61.0695      0.00000
     39      63.0522      0.00000
     40      63.5368      0.00000

 k-point     9 :       0.2727    0.0909    0.0000
  band No.  band energies     occupation 
      1       0.9496      2.00000
      2       2.5965      2.00000
      3       2.6836      2.00000
      4       3.7336      2.00000
      5       4.3200      2.00000
      6       4.5654      2.00000
      7       5.1123      2.00000
      8       5.6276      2.02052
      9       6.4681     -0.00579
     10       6.6558     -0.00005
     11       6.8635     -0.00000
     12      12.5002      0.00000
     13      13.0924      0.00000
     14      17.9797      0.00000
     15      22.5385      0.00000
     16      23.7388      0.00000
     17      25.9525      0.00000
     18      28.1452      0.00000
     19      31.3250      0.00000
     20      32.6667      0.00000
     21      33.4964      0.00000
     22      36.7456      0.00000
     23      37.4868      0.00000
     24      40.2079      0.00000
     25      43.9236      0.00000
     26      46.6762      0.00000
     27      47.5892      0.00000
     28      47.6314      0.00000
     29      49.8635      0.00000
     30      51.8322      0.00000
     31      52.9147      0.00000
     32      54.7028      0.00000
     33      55.8617      0.00000
     34      56.7996      0.00000
     35      58.6017      0.00000
     36      60.9154      0.00000
     37      60.9602      0.00000
     38      61.3435      0.00000
     39      62.0679      0.00000
     40      63.8125      0.00000

 k-point    10 :       0.3636    0.0909    0.0000
  band No.  band energies     occupation 
      1       1.8623      2.00000
      2       2.3103      2.00000
      3       2.4046      2.00000
      4       4.0693      2.00000
      5       4.3295      2.00000
      6       4.6801      2.00000
      7       4.8473      2.00000
      8       6.4750     -0.00505
      9       6.6351     -0.00010
     10       6.9335     -0.00000
     11       7.9453     -0.00000
     12      12.6267      0.00000
     13      14.6246      0.00000
     14      16.2973      0.00000
     15      20.7599      0.00000
     16      21.2402      0.00000
     17      22.7818      0.00000
     18      27.3253      0.00000
     19      30.4154      0.00000
     20      32.1962      0.00000
     21      35.0933      0.00000
     22      37.1868      0.00000
     23      37.9317      0.00000
     24      39.5779      0.00000
     25      43.9397      0.00000
     26      46.4842      0.00000
     27      47.8188      0.00000
     28      49.9827      0.00000
     29      51.1333      0.00000
     30      53.5501      0.00000
     31      54.9266      0.00000
     32      56.8078      0.00000
     33      57.9836      0.00000
     34      59.2118      0.00000
     35      60.0485      0.00000
     36      60.8854      0.00000
     37      61.6123      0.00000
     38      62.6377      0.00000
     39      63.4770      0.00000
     40      64.2053      0.00000

 k-point    11 :       0.4545    0.0909    0.0000
  band No.  band energies     occupation 
      1       2.0997      2.00000
      2       2.1601      2.00000
      3       2.3161      2.00000
      4       4.2459      2.00000
      5       4.4444      2.00000
      6       4.7461      2.00000
      7       4.7630      2.00000
      8       6.6256     -0.00013
      9       6.9656     -0.00000
     10       6.9895     -0.00000
     11       9.1023     -0.00000
     12      11.0486     -0.00000
     13      16.0928      0.00000
     14      16.9246      0.00000
     15      19.0173      0.00000
     16      20.1722      0.00000
     17      21.5806      0.00000
     18      27.0369      0.00000
     19      30.0448      0.00000
[...]
     18      24.6870      0.00000
     19      29.8882      0.00000
     20      30.7910      0.00000
     21      33.5815      0.00000
     22      34.0018      0.00000
     23      38.9485      0.00000
     24      40.0804      0.00000
     25      45.4933      0.00000
     26      47.2004      0.00000
     27      49.3454      0.00000
     28      50.3426      0.00000
     29      52.0618      0.00000
     30      53.9249      0.00000
     31      56.5707      0.00000
     32      56.8131      0.00000
     33      58.1863      0.00000
     34      58.7077      0.00000
     35      60.3750      0.00000
     36      60.6463      0.00000
     37      61.3791      0.00000
     38      61.9945      0.00000
     39      63.4757      0.00000
     40      63.9771      0.00000

 k-point    91 :       0.4545    0.0909    0.4545
  band No.  band energies     occupation 
      1       1.7994      2.00000
      2       1.9179      2.00000
      3       3.0167      2.00000
      4       3.0747      2.00000
      5       5.1167      2.00000
      6       5.4563      2.00062
      7       6.0187      0.94045
      8       6.2922     -0.06335
      9       6.7972     -0.00000
     10       6.8408     -0.00000
     11       9.0609     -0.00000
     12       9.4935     -0.00000
     13      14.8594      0.00000
     14      14.8882      0.00000
     15      23.0139      0.00000
     16      23.7097      0.00000
     17      24.2425      0.00000
     18      24.6511      0.00000
     19      29.4161      0.00000
     20      29.7590      0.00000
     21      33.0757      0.00000
     22      33.1007      0.00000
     23      38.9805      0.00000
     24      40.1147      0.00000
     25      45.5627      0.00000
     26      47.2429      0.00000
     27      51.6109      0.00000
     28      53.3202      0.00000
     29      54.2930      0.00000
     30      54.5866      0.00000
     31      55.0050      0.00000
     32      55.1025      0.00000
     33      58.4845      0.00000
     34      58.7518      0.00000
     35      61.4203      0.00000
     36      61.5556      0.00000
     37      62.1077      0.00000
     38      62.4611      0.00000
     39      63.8456      0.00000
     40      64.9462      0.00000

 k-point    92 :       0.1818    0.1818    0.4545
  band No.  band energies     occupation 
      1       1.6677      2.00000
      2       1.9483      2.00000
      3       3.5041      2.00000
      4       3.5659      2.00000
      5       3.9554      2.00000
      6       3.9988      2.00000
      7       5.4391      2.00039
      8       5.6380      2.02393
      9       6.6036     -0.00023
     10       6.7515     -0.00000
     11       7.1783     -0.00000
     12       7.6157     -0.00000
     13      20.5791      0.00000
     14      21.0994      0.00000
     15      21.6483      0.00000
     16      22.3087      0.00000
     17      22.8046      0.00000
     18      23.6074      0.00000
     19      33.9265      0.00000
     20      34.9704      0.00000
     21      35.7060      0.00000
     22      36.7430      0.00000
     23      37.9035      0.00000
     24      38.0834      0.00000
     25      43.6176      0.00000
     26      43.9632      0.00000
     27      47.6827      0.00000
     28      49.1497      0.00000
     29      50.6636      0.00000
     30      51.1485      0.00000
     31      53.1799      0.00000
     32      53.8160      0.00000
     33      56.2838      0.00000
     34      56.4264      0.00000
     35      58.1559      0.00000
     36      58.5823      0.00000
     37      61.4414      0.00000
     38      62.0701      0.00000
     39      63.4920      0.00000
     40      63.6278      0.00000

 k-point    93 :       0.2727    0.1818    0.4545
  band No.  band energies     occupation 
      1       2.1407      2.00000
      2       2.2442      2.00000
      3       3.3333      2.00000
      4       3.4907      2.00000
      5       4.2587      2.00000
      6       4.3735      2.00000
      7       5.3275      2.00001
      8       5.5284      2.00334
      9       6.6905     -0.00002
     10       6.9261     -0.00000
     11       8.5668     -0.00000
     12       9.0271     -0.00000
     13      17.9283      0.00000
     14      18.4575      0.00000
     15      20.5470      0.00000
     16      21.2126      0.00000
     17      22.9270      0.00000
     18      24.4969      0.00000
     19      31.5561      0.00000
     20      33.1327      0.00000
     21      34.0339      0.00000
     22      35.5175      0.00000
     23      38.9070      0.00000
     24      39.3340      0.00000
     25      45.2066      0.00000
     26      45.7280      0.00000
     27      48.8064      0.00000
     28      50.7182      0.00000
     29      52.2142      0.00000
     30      53.8956      0.00000
     31      55.2037      0.00000
     32      56.1348      0.00000
     33      58.0145      0.00000
     34      58.2627      0.00000
     35      59.4527      0.00000
     36      59.7739      0.00000
     37      60.2698      0.00000
     38      60.9994      0.00000
     39      63.4417      0.00000
     40      63.8628      0.00000

 k-point    94 :       0.3636    0.1818    0.4545
  band No.  band energies     occupation 
      1       2.2233      2.00000
      2       2.3472      2.00000
      3       3.2539      2.00000
      4       3.3988      2.00000
      5       4.3967      2.00000
      6       4.6604      2.00000
      7       5.5936      2.01183
      8       5.6907      2.04573
      9       6.6724     -0.00003
     10       6.8229     -0.00000
     11      10.2059     -0.00000
     12      10.6068     -0.00000
     13      15.3425      0.00000
     14      15.7014      0.00000
     15      19.9737      0.00000
     16      20.6598      0.00000
     17      24.4950      0.00000
     18      25.5160      0.00000
     19      29.8019      0.00000
     20      30.8041      0.00000
     21      33.2480      0.00000
     22      34.6901      0.00000
     23      39.3745      0.00000
     24      39.7243      0.00000
     25      48.6020      0.00000
     26      49.4332      0.00000
     27      49.4496      0.00000
     28      50.9772      0.00000
     29      52.9158      0.00000
     30      53.9174      0.00000
     31      54.3270      0.00000
     32      55.2902      0.00000
     33      57.5402      0.00000
     34      58.4512      0.00000
     35      59.6137      0.00000
     36      61.0292      0.00000
     37      62.3373      0.00000
     38      62.6673      0.00000
     39      63.3292      0.00000
     40      63.6486      0.00000

 k-point    95 :       0.2727    0.2727    0.4545
  band No.  band energies     occupation 
      1       2.5957      2.00000
      2       2.6334      2.00000
      3       3.4396      2.00000
      4       3.6278      2.00000
      5       3.9845      2.00000
      6       4.1536      2.00000
      7       5.2053      2.00000
      8       5.3806      2.00008
      9       6.6832     -0.00002
     10       6.8486     -0.00000
     11      10.5772     -0.00000
     12      11.0614     -0.00000
     13      16.5370      0.00000
     14      16.9078      0.00000
     15      18.0825      0.00000
     16      18.4344      0.00000
     17      24.6164      0.00000
     18      26.1028      0.00000
     19      29.9796      0.00000
     20      31.2314      0.00000
     21      32.9103      0.00000
     22      33.8893      0.00000
     23      41.9296      0.00000
     24      42.3067      0.00000
     25      45.5129      0.00000
     26      45.6351      0.00000
     27      51.3123      0.00000
     28      52.7040      0.00000
     29      53.3499      0.00000
     30      53.6093      0.00000
     31      55.4694      0.00000
     32      55.6538      0.00000
     33      56.9352      0.00000
     34      56.9624      0.00000
     35      58.1655      0.00000
     36      58.9312      0.00000
     37      62.3965      0.00000
     38      62.7904      0.00000
     39      63.6821      0.00000
     40      63.6862      0.00000

 k-point    96 :       0.3636    0.2727    0.4545
  band No.  band energies     occupation 
      1       2.7871      2.00000
      2       2.8946      2.00000
      3       3.4066      2.00000
      4       3.4993      2.00000
      5       3.9592      2.00000
      6       4.0787      2.00000
      7       5.2434      2.00000
      8       5.3757      2.00007
      9       6.6681     -0.00004
     10       6.7278     -0.00001
     11      12.3492      0.00000
     12      12.4697      0.00000
     13      14.8751      0.00000
     14      15.1547      0.00000
     15      17.4381      0.00000
     16      17.8754      0.00000
     17      26.3337      0.00000
     18      26.8637      0.00000
     19      28.9660      0.00000
     20      29.4011      0.00000
     21      32.5780      0.00000
     22      33.3581      0.00000
     23      42.9390      0.00000
     24      43.5397      0.00000
     25      47.5723      0.00000
     26      48.0006      0.00000
     27      49.6247      0.00000
     28      50.0365      0.00000
     29      52.9514      0.00000
     30      53.6978      0.00000
     31      55.4011      0.00000
     32      56.0947      0.00000
     33      56.6014      0.00000
     34      57.1215      0.00000
     35      58.9914      0.00000
     36      59.7246      0.00000
     37      60.8169      0.00000
     38      61.3807      0.00000
     39      65.1010      0.00000
     40      65.1271      0.00000


--------------------------------------------------------------------------------------------------------


 soft charge-density along one line, spin component           1
         0         1         2         3         4         5         6         7         8         9
x     7.7527    0.0000    0.1188   -0.2058   -0.0618   -0.1071    0.0137   -0.0000    0.0020   -0.0034
x     0.0000    0.0000
y     7.7527    0.0000    0.1188    0.2058   -0.0618    0.1071    0.0137    0.0000    0.0020    0.0034
y     0.0000    0.0000
z     7.7527    0.0000    0.0000    0.0000    0.6817    0.0000    0.0000   -0.0000   -0.1845   -0.0000
z     0.0000    0.0000    0.0073    0.0000    0.0000   -0.0000    0.0108   -0.0000    0.0000    0.0000
 total charge-density along one line
x    16.0000    0.0000    1.5356   -2.6597    0.3388    0.5868    0.0544   -0.0000   -0.0001    0.0002
x     0.0007    0.0012   -0.0012    0.0000    0.0002   -0.0003   -0.0001   -0.0001    0.0002   -0.0000
x    -0.0001    0.0000
y    16.0000    0.0000    1.5356    2.6597    0.3388   -0.5868    0.0544    0.0000   -0.0001   -0.0002
y     0.0007   -0.0012   -0.0012   -0.0000    0.0002    0.0003   -0.0001    0.0001    0.0002    0.0000
y    -0.0001   -0.0000
z    16.0000    0.0000   -0.0000    0.0000    6.4995   -0.0000   -0.0000    0.0000    1.6288   -0.0000
z    -0.0000   -0.0000    0.1005   -0.0000   -0.0000   -0.0000   -0.0052    0.0000   -0.0000   -0.0000
z     0.0057   -0.0000    0.0000   -0.0000   -0.0023    0.0000    0.0000    0.0000    0.0011    0.0000
z     0.0000    0.0000   -0.0006    0.0000   -0.0000    0.0000    0.0005   -0.0000
 
 pseudopotential strength for first ion, spin component:           1
 -4.955  -0.000  -0.000   0.000  -0.000  -5.505  -0.000  -0.000
 -0.000  -4.949   0.000  -0.000  -0.000  -0.000  -5.498   0.000
 -0.000   0.000  -4.957  -0.000  -0.000  -0.000   0.000  -5.506
  0.000  -0.000  -0.000  -4.949  -0.000   0.000  -0.000  -0.000
 -0.000  -0.000  -0.000  -0.000  -4.955  -0.000  -0.000  -0.000
 -5.505  -0.000  -0.000   0.000  -0.000  -6.012  -0.000  -0.000
 -0.000  -5.498   0.000  -0.000  -0.000  -0.000  -6.005   0.000
 -0.000   0.000  -5.506  -0.000  -0.000  -0.000   0.000  -6.013
  0.000  -0.000  -0.000  -5.498  -0.000   0.000  -0.000  -0.000
 -0.000  -0.000  -0.000  -0.000  -5.505  -0.000  -0.000  -0.000
  0.000  -0.000   0.001   0.000  -0.000   0.000  -0.000   0.001
  0.000  -0.000   0.002   0.000  -0.000   0.000  -0.000   0.002
 -0.000  -0.000   0.000  -0.000  -0.001  -0.000  -0.000   0.000
 -0.000  -0.000  -0.000  -0.000   0.000  -0.000  -0.000  -0.000
 -0.001  -0.000   0.000  -0.000  -0.000  -0.001  -0.000   0.000
 -0.000  -0.000   0.000  -0.000  -0.001  -0.000  -0.000   0.000
 -0.000  -0.000  -0.000  -0.000   0.000  -0.000  -0.000  -0.000
 -0.001  -0.000   0.000  -0.000  -0.000  -0.001  -0.000   0.000
 total augmentation occupancy for first ion, spin component:           1
  1.514   0.000   0.000   0.000  -0.000  -0.719   0.000  -0.000   0.000   0.000   0.000  -0.000   0.000   0.000   0.028  -0.000
  0.000   2.067   0.000  -0.000  -0.000   0.000  -1.007  -0.000   0.000   0.000   0.000   0.000   0.000   0.000  -0.000  -0.000
  0.000  -0.000   1.269  -0.000  -0.000  -0.000  -0.000  -0.497   0.000   0.000   0.059  -0.012  -0.000   0.000   0.000   0.000
  0.000  -0.000  -0.000   2.067   0.000   0.000   0.000   0.000  -1.007   0.000   0.000   0.000  -0.000  -0.000   0.000   0.000
 -0.000  -0.000  -0.000  -0.000   1.514   0.000   0.000   0.000   0.000  -0.719   0.000  -0.000   0.028   0.000  -0.000  -0.001
 -0.719  -0.000  -0.000   0.000   0.000   1.285   0.000   0.000   0.000  -0.000  -0.000   0.000  -0.000   0.000  -0.040   0.000
  0.000  -1.007   0.000   0.000   0.000  -0.000   1.281   0.000  -0.000   0.000   0.000   0.000   0.000  -0.000   0.000  -0.000
 -0.000  -0.000  -0.497   0.000   0.000   0.000   0.000   1.067   0.000  -0.000  -0.151   0.014   0.000   0.000  -0.000   0.000
  0.000   0.000   0.000  -1.007   0.000   0.000  -0.000   0.000   1.281   0.000   0.000   0.000   0.000  -0.000   0.000   0.000
  0.000  -0.000   0.000   0.000  -0.719  -0.000   0.000  -0.000  -0.000   1.285  -0.000   0.000  -0.040  -0.000   0.000   0.003
  0.000   0.000   0.059   0.000   0.000  -0.000  -0.000  -0.151  -0.000  -0.000   2.424  -0.266   0.000   0.000  -0.000  -0.000
 -0.000  -0.000  -0.012   0.000  -0.000   0.000  -0.000   0.014  -0.000   0.000  -0.266   0.033   0.000   0.000   0.000   0.000
  0.000   0.000  -0.000   0.000   0.028  -0.000  -0.000   0.000   0.000  -0.040   0.000  -0.000   0.311  -0.000  -0.000  -0.025
  0.000   0.000   0.000  -0.000   0.000   0.000   0.000   0.000  -0.000  -0.000   0.000   0.000   0.000   0.281  -0.000   0.000
  0.028   0.000   0.000  -0.000  -0.000  -0.040   0.000  -0.000   0.000   0.000  -0.000   0.000  -0.000  -0.000   0.311   0.000
 -0.000   0.000   0.000   0.000  -0.001   0.000   0.000  -0.000   0.000   0.003  -0.000   0.000  -0.025   0.000   0.000   0.002
  0.000  -0.000   0.000  -0.000   0.000   0.000   0.000   0.000   0.000   0.000   0.000   0.000  -0.000  -0.025  -0.000   0.000
 -0.001   0.000  -0.000   0.000   0.000   0.003  -0.000   0.000  -0.000  -0.000  -0.000   0.000   0.000   0.000  -0.025  -0.000


------------------------ aborting loop because EDIFF is reached ----------------------------------------


    CHARGE:  cpu time    0.0199: real time    0.0199
    FORLOC:  cpu time    0.0002: real time    0.0002
    FORNL :  cpu time    0.1041: real time    0.1042
    STRESS:  cpu time    0.1641: real time    0.1641
    FORCOR:  cpu time    0.0034: real time    0.0034
    FORHAR:  cpu time    0.0007: real time    0.0007
    MIXING:  cpu time    0.0002: real time    0.0002

  FORCE on cell =-STRESS in cart. coord.  units (eV):
  Direction    XX          YY          ZZ          XY          YZ          ZX
  --------------------------------------------------------------------------------------
  Alpha Z   124.99657   124.99657   124.99657
  Ewald    -379.37888  -379.37888  -434.32754     0.00000     0.00000     0.00000
  Hartree    69.35233    69.35234    47.21916    -0.00000    -0.00000    -0.00000
  E(xc)     -77.84574   -77.84589   -77.57340     0.00038     0.00000     0.00000
  Local      92.54376    92.54401   167.43400    -0.00093     0.00000     0.00000
  n-local   -54.41167   -53.38258   -56.18078    -3.56500     1.35748     0.84992
  augment    76.02888    76.02791    76.27493     0.00143     0.00000     0.00000
  Kinetic   150.85079   144.47738   145.75677     1.62305    -0.84903     0.29135
  Fock        0.00000     0.00000     0.00000     0.00000     0.00000     0.00000
  -------------------------------------------------------------------------------------
  Total      -0.53656    -0.53656    -6.40029    -0.00000     0.00000     0.00000
  in kB     -38.86867   -38.86867  -463.64317    -0.00000     0.00000     0.00000
  external pressure =     -180.46 kB  Pullay stress =        0.00 kB


 VOLUME and BASIS-vectors are now :
 -----------------------------------------------------------------------------
  energy-cutoff  :      280.00
  volume of cell :       22.12
      direct lattice vectors                 reciprocal lattice vectors
     2.423200000  0.000000000  0.000000000     0.412677451  0.238259438  0.000000000
    -1.211600000  2.098552758  0.000000000     0.000000000  0.476518875  0.000000000
     0.000000000  0.000000000  4.349280000     0.000000000  0.000000000  0.229923114

  length of vectors
     2.423200000  2.423200000  4.349280000     0.476518875  0.476518875  0.229923114


 FORCES acting on ions
    electron-ion (+dipol)            ewald-force                    non-local-force                 convergence-correction
 -----------------------------------------------------------------------------------------------
   0.177E-05 -.163E-05 0.109E-13   0.470E-12 -.282E-12 -.234E-13   0.301E-18 0.156E-17 -.705E-19   -.953E-09 0.390E-09 -.414E-13
   0.110E-04 0.561E-05 0.285E-12   -.472E-12 0.279E-12 0.234E-13   0.473E-18 0.483E-18 0.697E-19   0.937E-09 -.376E-09 0.861E-13
 -----------------------------------------------------------------------------------------------
   0.128E-04 0.398E-05 0.296E-12   -.242E-14 -.254E-14 0.992E-17   0.774E-18 0.204E-17 -.856E-21   -.167E-10 0.140E-10 0.447E-13
 
 
 POSITION                                       TOTAL-FORCE (eV/Angst)
 -----------------------------------------------------------------------------------
      0.00000      0.00000      0.00000        -0.000000     -0.000000     -0.000000
      0.00000      1.39904      2.17464         0.000000      0.000000      0.000000
 -----------------------------------------------------------------------------------
    total drift:                                0.000013      0.000004      0.000000


--------------------------------------------------------------------------------------------------------



  FREE ENERGIE OF THE ION-ELECTRON SYSTEM (eV)
  ---------------------------------------------------
  free  energy   TOTEN  =       -15.93971345 eV

  energy  without entropy=      -15.94363743  energy(sigma->0) =      -15.94102145
 


--------------------------------------------------------------------------------------------------------


    POTLOK:  cpu time    0.0054: real time    0.0054


--------------------------------------------------------------------------------------------------------


 writing wavefunctions
     LOOP+:  cpu time   10.1585: real time   10.1793
    4ORBIT:  cpu time    0.0000: real time    0.0000

 total amount of memory used by VASP MPI-rank0    51577. kBytes
=======================================================================

   base      :      30000. kBytes
   nonl-proj :       3408. kBytes
   grid      :        812. kBytes
   one-center:         31. kBytes
   wavefun   :      17326. kBytes
 
  
  
 General timing and accounting informations for this job:
 ========================================================
  
                  Total CPU time used (sec):       10.356
                            User time (sec):       10.316
                          System time (sec):        0.040
                         Elapsed time (sec):       10.366
  
                   Maximum memory used (kb):       57112.
                   Average memory used (kb):          N/A
  
                          Minor page faults:         7740
                          Major page faults:            0
                 Voluntary context switches:           27
