 vasp.6.2.0 18Jan21 (build Mar 17 2021 09:06:54) complex                        
  
 POSCAR found type information on POSCAR Fe
 POSCAR found :  1 types and       2 ions
 LDA part: xc-table for Pade appr. of Perdew
 POSCAR, INCAR and KPOINTS ok, starting setup
 FFT: planning ...
 WAVECAR not read
 WARNING: chargedensity file is incomplete
 entering main loop
       N       E                     dE             d eps       ncg     rms          rms(c)
DAV:   1     0.612673342620E+02    0.61267E+02   -0.28347E+03  9104   0.317E+02
DAV:   2    -0.145586662114E+02   -0.75826E+02   -0.64440E+02  7976   0.941E+01
DAV:   3    -0.191201988494E+02   -0.45615E+01   -0.43017E+01  9424   0.241E+01
DAV:   4    -0.191448171787E+02   -0.24618E-01   -0.24599E-01  9184   0.186E+00
DAV:   5    -0.191448634320E+02   -0.46253E-04   -0.46253E-04  9232   0.758E-02    0.158E+01
DAV:   6    -0.162769211657E+02    0.28679E+01   -0.22211E+00 11096   0.266E+01    0.370E+00
DAV:   7    -0.159744789489E+02    0.30244E+00   -0.19054E-01 10160   0.694E+00    0.997E-01
DAV:   8    -0.159501319643E+02    0.24347E-01   -0.50425E-03 10176   0.474E-01    0.458E-01
DAV:   9    -0.159396923729E+02    0.10440E-01   -0.89327E-04 11352   0.172E-01    0.655E-02
DAV:  10    -0.159397178436E+02   -0.25471E-04   -0.40007E-05  9208   0.249E-02    0.302E-02
DAV:  11    -0.159397137333E+02    0.41103E-05   -0.61502E-07  9240   0.583E-03    0.173E-03
DAV:  12    -0.159397134530E+02    0.28020E-06   -0.33008E-08  5904   0.940E-04
   1 F= -.15939713E+02 E0= -.15941021E+02  d E =0.392398E-02
 writing wavefunctions
