unknown system                          
   1.00000000000000     
     2.390000    0.000000    0.000000
    -1.195000    2.069801    0.000000
     0.000000    0.000000    3.907600
   Fe
     2
Direct
  0.000000  0.000000  0.000000
  0.333333  0.666667  0.500000
 
   20   20   32
  162.06      153.15      129.26      97.415      65.460      39.259      21.611      12.373      9.0834      8.1362    
  7.8250      8.1368      9.0839      12.373      21.610      39.259      65.460      97.415      129.26      153.15    
  153.16      153.15      136.79      109.13      77.678      49.258      28.113      15.486      9.9877      8.4015    
  7.7977      7.7968      8.4005      9.9886      15.487      28.111      49.256      77.683      109.15      136.81    
  129.27      136.76      129.26      109.13      82.224      55.186      33.123      18.512      11.143      8.6434    
  7.7968      7.5080      7.7947      8.6428      11.145      18.512      33.118      55.181      82.228      109.15    
  97.410      109.03      109.04      97.416      77.678      55.185      35.005      20.380      12.144      8.8886    
  7.8163      7.2984      7.2978      7.8155      8.8894      12.145      20.379      35.000      55.176      77.669    
  65.442      77.544      82.043      77.558      65.460      49.257      33.123      20.380      12.541      9.0630    
  7.8408      7.1718      6.9536      7.1724      7.8411      9.0637      12.544      20.385      33.123      49.247    
  39.257      49.167      55.019      55.023      49.175      39.258      28.113      18.513      12.144      9.0629    
  7.8519      7.1151      6.7600      6.7607      7.1156      7.8502      9.0621      12.149      18.524      28.122    
  21.623      28.114      33.074      34.927      33.069      28.104      21.610      15.487      11.144      8.8883    
  7.8409      7.1151      6.6984      6.5686      6.6996      7.1141      7.8360      8.8836      11.145      15.496    
  12.372      15.547      18.591      20.449      20.443      18.579      15.539      12.373      9.9881      8.6430    
  7.8162      7.1720      6.7597      6.5686      6.5695      6.7615      7.1716      7.8107      8.6330      9.9790    
  9.0695      10.056      11.279      12.316      12.720      12.312      11.280      10.065      9.0837      8.4013    
  7.7965      7.2987      6.9535      6.7606      6.6998      6.7616      6.9572      7.3035      7.7962      8.3918    
  8.1361      8.4722      8.7854      9.0901      9.2981      9.2998      9.0961      8.7951      8.4805      8.1363    
  7.7974      7.5082      7.2980      7.1721      7.1157      7.1142      7.1711      7.3034      7.5193      7.8063    
  7.8379      7.8867      7.9519      8.0279      8.0944      8.1234      8.0993      8.0326      7.9506      7.8775    
  7.8249      7.7967      7.7950      7.8153      7.8409      7.8503      7.8357      7.8106      7.7968      7.8065    
  8.1355      7.8865      7.6762      7.5270      7.4441      7.4134      7.4147      7.4447      7.5213      7.6654    
  7.8782      8.1364      8.4006      8.6428      8.8890      9.0639      9.0624      8.8836      8.6335      8.3921    
  9.0691      8.4719      7.9523      7.5271      7.2351      7.0753      7.0263      7.0747      7.2317      7.5220    
  7.9520      8.4812      9.0838      9.9889      11.145      12.146      12.544      12.150      11.145      9.9790    
  12.372      10.056      8.7857      8.0280      7.4437      7.0753      6.9061      6.9053      7.0739      7.4445    
  8.0334      8.7952      10.065      12.373      15.487      18.512      20.380      20.385      18.524      15.496    
  21.624      15.548      11.279      9.0899      8.0942      7.4135      7.0267      6.9052      7.0249      7.4142    
  8.0993      9.0953      11.278      15.538      21.610      28.111      33.118      35.000      33.123      28.122    
  39.258      28.114      18.591      12.316      9.2983      8.1236      7.4150      7.0745      7.0737      7.4144    
  8.1250      9.2990      12.310      18.580      28.106      39.259      49.256      55.181      55.177      49.248    
  65.442      49.166      33.074      20.449      12.721      9.2999      8.0991      7.4446      7.2315      7.4448    
  8.0994      9.2988      12.717      20.444      33.074      49.177      65.460      77.683      82.228      77.669    
  97.409      77.543      55.019      34.928      20.443      12.312      9.0956      8.0327      7.5215      7.5220    
  8.0334      9.0950      12.310      20.444      34.933      55.027      77.552      97.416      109.15      109.15    
  129.27      109.03      82.043      55.024      33.069      18.579      11.279      8.7954      7.9509      7.6651    
  7.9519      8.7952      11.278      18.580      33.074      55.028      82.038      109.02      129.26      136.81    
  153.16      136.76      109.04      77.557      49.175      28.104      15.539      10.066      8.4806      7.8771    
  7.8781      8.4816      10.065      15.538      28.106      49.177      77.552      109.02      136.74      153.15    
  152.71      144.34      121.89      91.892      61.744      37.040      20.485      11.927      8.9340      8.0276    
  7.7250      8.0282      8.9345      11.927      20.484      37.040      61.744      91.892      121.89      144.34    
  144.35      144.34      128.97      102.93      73.259      46.442      26.548      14.774      9.7353      8.2742    
  7.6865      7.6856      8.2733      9.7361      14.775      26.547      46.440      73.264      102.94      128.99    
  121.90      128.94      121.89      102.93      77.543      52.021      31.235      17.564      10.767      8.4952    
  7.6767      7.3973      7.6747      8.4945      10.769      17.564      31.231      52.017      77.547      102.94    
  91.887      102.85      102.86      91.893      73.259      52.020      32.999      19.292      11.668      8.7069    
  7.6894      7.1891      7.1885      7.6887      8.7076      11.669      19.292      32.994      52.012      73.251    
  61.727      73.163      77.414      73.176      61.743      46.441      31.235      19.293      12.027      8.8568    
  7.7094      7.0634      6.8538      7.0640      7.7097      8.8573      12.030      19.297      31.236      46.432    
  37.038      46.393      51.923      51.927      46.400      37.039      26.548      17.565      11.668      8.8567    
  7.7189      7.0070      6.6661      6.6669      7.0075      7.7174      8.8559      11.673      17.575      26.556    
  20.496      26.587      31.257      33.005      31.253      26.578      20.485      14.775      10.767      8.7067    
  7.7095      7.0070      6.6065      6.4821      6.6076      7.0061      7.7051      8.7024      10.769      14.783    
  11.926      14.868      17.706      19.445      19.439      17.695      14.860      11.927      9.7357      8.4949    
  7.6894      7.0636      6.6659      6.4821      6.4830      6.6675      7.0632      7.6844      8.4857      9.7273    
  8.9212      9.8325      10.959      11.916      12.291      11.913      10.959      9.8412      8.9343      8.2740    
  7.6764      7.1894      6.8537      6.6667      6.6079      6.6675      6.8570      7.1937      7.6761      8.2653    
  8.0275      8.3716      8.6887      8.9800      9.1747      9.1763      8.9854      8.6976      8.3792      8.0276    
  7.6861      7.3974      7.1887      7.0637      7.0077      7.0062      7.0628      7.1936      7.4076      7.6943    
  7.7369      7.7997      7.8804      7.9703      8.0463      8.0783      8.0507      7.9746      7.8791      7.7912    
  7.7248      7.6854      7.6750      7.6885      7.7095      7.7175      7.7049      7.6842      7.6767      7.6945    
  8.0270      7.7994      7.6124      7.4849      7.4186      7.3966      7.3978      7.4191      7.4797      7.6025    
  7.7918      8.0277      8.2734      8.4947      8.7073      8.8575      8.8562      8.7024      8.4861      8.2656    
  8.9208      8.3713      7.8808      7.4850      7.2177      7.0741      7.0308      7.0737      7.2147      7.4803    
  7.8805      8.3798      8.9344      9.7366      10.769      11.670      12.030      11.673      10.768      9.7273    
  11.926      9.8326      8.6890      7.9704      7.4182      7.0742      6.9178      6.9171      7.0729      7.4189    
  7.9754      8.6977      9.8404      11.927      14.776      17.564      19.292      19.297      17.574      14.783    
  20.497      14.868      10.959      8.9798      8.0460      7.3967      7.0312      6.9170      7.0294      7.3972    
  8.0507      8.9847      10.958      14.859      20.485      26.546      31.231      32.994      31.235      26.556    
  37.038      26.587      17.706      11.916      9.1749      8.0785      7.3981      7.0736      7.0727      7.3974    
  8.0798      9.1756      11.911      17.696      26.579      37.039      46.439      52.017      52.013      46.432    
  61.727      46.392      31.257      19.445      12.291      9.1763      8.0505      7.4190      7.2146      7.4192    
  8.0508      9.1754      12.288      19.440      31.257      46.402      61.743      73.264      77.547      73.251    
  91.887      73.162      51.923      33.006      19.440      11.912      8.9849      7.9747      7.4799      7.4804    
  7.9754      8.9844      11.911      19.440      33.010      51.931      73.171      91.893      102.94      102.94    
  121.90      102.85      77.414      51.928      31.253      17.695      10.959      8.6978      7.8794      7.6022    
  7.8804      8.6977      10.957      17.696      31.257      51.931      77.409      102.84      121.89      128.99    
  144.35      128.95      102.85      73.175      46.400      26.578      14.860      9.8413      8.3792      7.7909    
  7.7918      8.3802      9.8405      14.859      26.580      46.402      73.171      102.84      128.93      144.34    
  127.75      120.81      102.13      77.046      51.757      31.122      17.544      10.802      8.5496      7.7324    
  7.4554      7.7330      8.5501      10.801      17.543      31.122      51.758      77.046      102.13      120.81    
  120.82      120.81      108.02      86.262      61.376      38.899      22.416      12.948      9.1047      7.9269    
  7.3873      7.3865      7.9260      9.1055      12.949      22.415      38.897      61.380      86.273      108.04    
  102.14      108.02      102.13      86.262      64.956      43.531      26.225      15.103      9.8212      8.1012    
  7.3520      7.0998      7.3502      8.1005      9.8227      15.103      26.222      43.528      64.958      86.272    
  77.042      86.253      86.255      77.047      61.376      43.531      27.665      16.457      10.464      8.2398    
  7.3439      6.8939      6.8934      7.3432      8.2401      10.465      16.456      27.662      43.524      61.370    
  51.745      61.380      64.964      61.390      51.757      38.897      26.225      16.457      10.723      8.3318    
  7.3495      6.7687      6.5831      6.7693      7.3497      8.3320      10.725      16.460      26.225      38.891    
  31.121      38.962      43.617      43.620      38.967      31.121      22.415      15.104      10.464      8.3317    
  7.3537      6.7118      6.4101      6.4108      6.7125      7.3527      8.3310      10.467      15.112      22.422    
  17.552      22.555      26.434      27.893      26.430      22.548      17.544      12.948      9.8216      8.2396    
  7.3496      6.7119      6.3552      6.2454      6.3562      6.7114      7.3464      8.2364      9.8227      12.955    
  10.801      13.125      15.410      16.825      16.821      15.402      13.119      10.802      9.1052      8.1010    
  7.3439      6.7688      6.4099      6.2453      6.2459      6.4110      6.7685      7.3401      8.0939      9.0986    
  8.5397      9.2759      10.156      10.907      11.202      10.904      10.156      9.2828      8.5500      7.9267    
  7.3517      6.8940      6.5829      6.4106      6.3565      6.4110      6.5852      6.8972      7.3515      7.9199    
  7.7324      8.0915      8.4244      8.6919      8.8566      8.8577      8.6959      8.4310      8.0972      7.7324    
  7.3868      7.0998      6.8935      6.7690      6.7126      6.7115      6.7682      6.8972      7.1077      7.3932    
  7.4645      7.5607      7.6755      7.7941      7.8882      7.9258      7.8914      7.7972      7.6744      7.5540    
  7.4551      7.3863      7.3505      7.3431      7.3496      7.3528      7.3461      7.3399      7.3520      7.3934    
  7.7319      7.5605      7.4296      7.3509      7.3195      7.3150      7.3160      7.3200      7.3469      7.4218    
  7.5546      7.7325      7.9262      8.1007      8.2400      8.3322      8.3312      8.2364      8.0943      7.9202    
  8.5394      8.0911      7.6759      7.3509      7.1394      7.0304      6.9986      7.0303      7.1374      7.3474    
  7.6756      8.0978      8.5500      9.1060      9.8228      10.465      10.725      10.467      9.8224      9.0986    
  10.801      9.2760      8.4246      7.7942      7.3191      7.0304      6.9019      6.9014      7.0296      7.3198    
  7.7979      8.4312      9.2820      10.802      12.949      15.103      16.456      16.460      15.111      12.954    
  17.553      13.125      10.156      8.6918      7.8879      7.3151      6.9990      6.9013      6.9974      7.3153    
  7.8914      8.6956      10.155      13.118      17.544      22.415      26.221      27.661      26.225      22.422    
  31.121      22.555      15.410      10.907      8.8568      7.9260      7.3162      7.0302      7.0294      7.3154    
  7.9268      8.8574      10.903      15.402      22.549      31.121      38.897      43.528      43.525      38.892    
  51.745      38.961      26.433      16.825      11.203      8.8577      7.8912      7.3199      7.1373      7.3200    
  7.8915      8.8571      11.200      16.822      26.433      38.968      51.757      61.380      64.959      61.370    
  77.042      61.380      43.617      27.893      16.821      10.904      8.6954      7.7973      7.3471      7.3476    
  7.7979      8.6952      10.903      16.822      27.897      43.623      61.386      77.047      86.274      86.272    
  102.14      86.253      64.964      43.620      26.430      15.401      10.156      8.4312      7.6747      7.4217    
  7.6755      8.4311      10.155      15.402      26.434      43.623      64.961      86.243      102.13      108.04    
  120.82      108.02      86.254      61.390      38.967      22.548      13.119      9.2828      8.0972      7.5538    
  7.5546      8.0981      9.2820      13.118      22.549      38.969      61.386      86.243      108.01      120.81    
  94.806      89.696      75.886      57.267      38.511      23.431      13.894      9.5007      8.0453      7.3299    
  7.0932      7.3304      8.0456      9.5005      13.894      23.431      38.512      57.267      75.886      89.696    
  89.699      89.696      80.233      64.074      45.567      28.988      17.164      10.765      8.3690      7.4477    
  6.9857      6.9852      7.4470      8.3696      10.766      17.164      28.987      45.569      64.081      80.241    
  75.892      80.263      75.886      64.075      48.198      32.330      19.782      12.094      8.7289      7.5565    
  6.9117      6.7006      6.9102      7.5559      8.7300      12.095      19.780      32.327      48.200      64.080    
  57.265      64.148      64.150      57.267      45.567      32.329      20.781      12.952      9.0595      7.6365    
  6.8690      6.4940      6.4936      6.8684      7.6365      9.0600      12.951      20.779      32.325      45.563    
  38.504      45.700      48.383      45.706      38.511      28.987      19.781      12.952      9.1965      7.6780    
  6.8500      6.3652      6.2133      6.3657      6.8501      7.6779      9.1972      12.954      19.782      28.984    
  23.431      29.193      32.648      32.650      29.196      23.430      17.164      12.095      9.0597      7.6781    
  6.8451      6.3048      6.0570      6.0576      6.3055      6.8446      7.6775      9.0619      12.100      17.169    
  13.899      17.429      20.225      21.287      20.223      17.425      13.894      10.766      8.7293      7.6365    
  6.8501      6.3048      6.0072      5.9164      6.0081      6.3047      6.8482      7.6346      8.7300      10.770    
  9.4999      11.047      12.607      13.590      13.588      12.602      11.044      9.5011      8.3695      7.5564    
  6.8690      6.3652      6.0567      5.9164      5.9167      6.0574      6.3650      6.8667      7.5520      8.3652    
  8.0390      8.6326      9.2407      9.7447      9.9425      9.7430      9.2410      8.6372      8.0457      7.4476    
  6.9114      6.4941      6.2131      6.0574      6.0082      6.0574      6.2142      6.4960      6.9112      7.4432    
  7.3300      7.6958      8.0402      8.3089      8.4561      8.4567      8.3113      8.0442      7.6993      7.3299    
  6.9853      6.7006      6.4937      6.3654      6.3056      6.3048      6.3647      6.4959      6.7056      6.9894    
  7.0989      7.2331      7.3811      7.5231      7.6294      7.6700      7.6313      7.5248      7.3802      7.2287    
  7.0928      6.9849      6.9104      6.8684      6.8501      6.8447      6.8481      6.8667      6.9117      6.9896    
  7.3295      7.2329      7.1688      7.1416      7.1427      7.1525      7.1532      7.1431      7.1392      7.1639    
  7.2292      7.3299      7.4472      7.5562      7.6365      7.6781      7.6776      7.6346      7.5524      7.4435    
  8.0387      7.6955      7.3813      7.1417      6.9901      6.9145      6.8932      6.9148      6.9892      7.1396    
  7.3811      7.6997      8.0457      8.3702      8.7303      9.0601      9.1975      9.0618      8.7298      8.3652    
  9.5001      8.6326      8.0404      7.5232      7.1424      6.9145      6.8141      6.8138      6.9141      7.1428    
  7.5255      8.0444      8.6365      9.5011      10.767      12.095      12.951      12.953      12.100      10.770    
  13.900      11.047      9.2406      8.3088      7.6292      7.1526      6.8934      6.8138      6.8922      7.1524    
  7.6313      8.3112      9.2400      11.043      13.894      17.164      19.779      20.778      19.782      17.169    
  23.431      17.429      12.607      9.7446      8.4563      7.6701      7.1534      6.9147      6.9141      7.1525    
  7.6704      8.4568      9.7426      12.602      17.425      23.431      28.987      32.327      32.326      28.984    
  38.504      29.193      20.225      13.591      9.9429      8.4567      7.6311      7.1430      6.9892      7.1431    
  7.6313      8.4565      9.9417      13.589      20.225      29.197      38.511      45.569      48.200      45.563    
  57.264      45.699      32.648      21.288      13.588      9.7427      8.3107      7.5248      7.1394      7.1397    
  7.5254      8.3108      9.7424      13.589      21.290      32.652      45.704      57.267      64.082      64.080    
  75.891      64.148      48.383      32.650      20.223      12.602      9.2406      8.0442      7.3804      7.1639    
  7.3811      8.0443      9.2398      12.602      20.225      32.652      48.381      64.143      75.886      80.241    
  89.699      80.263      64.149      45.705      29.196      17.425      11.044      8.6370      7.6993      7.2287    
  7.2293      7.7000      8.6364      11.042      17.425      29.197      45.704      64.142      80.255      89.695    
  62.300      58.955      49.907      37.738      25.647      16.274      10.768      8.4730      7.4976      6.9157    
  6.7288      6.9160      7.4978      8.4728      10.768      16.274      25.647      37.738      49.907      58.955    
  58.957      58.955      52.737      42.128      30.082      19.566      12.477      8.9986      7.6931      6.9428    
  6.5777      6.5773      6.9423      7.6936      8.9998      12.478      19.566      30.082      42.131      52.740    
  49.910      52.794      49.908      42.129      31.748      21.584      13.905      9.5793      7.8339      6.9703    
  6.4574      6.2943      6.4564      6.9698      7.8348      9.5803      13.905      21.583      31.748      42.131    
  37.737      42.277      42.277      37.738      30.082      21.584      14.461      9.9716      7.9335      6.9894    
  6.3718      6.0823      6.0821      6.3713      6.9892      7.9336      9.9714      14.460      21.582      30.080    
  25.644      30.329      32.089      30.331      25.647      19.565      13.905      9.9718      7.9740      6.9984    
  6.3213      5.9441      5.8282      5.9445      6.3214      6.9980      7.9739      9.9724      13.905      19.564    
  16.274      19.895      22.108      22.109      19.897      16.273      12.477      9.5797      7.9337      6.9984    
  6.3048      5.8765      5.6845      5.6850      5.8772      6.3047      6.9979      7.9346      9.5824      12.480    
  10.771      12.853      14.556      15.214      14.555      12.851      10.768      8.9991      7.8344      6.9895    
  6.3214      5.8765      5.6383      5.5658      5.6388      5.8767      6.3207      6.9887      7.8348      9.0011    
  8.4723      9.3770      10.279      10.855      10.854      10.277      9.3760      8.4733      7.6936      6.9703    
  6.3718      5.9441      5.6843      5.5657      5.5658      5.6845      5.9440      6.3708      6.9682      7.6914    
  7.4945      8.0478      8.5173      8.8500      8.9743      8.8492      8.5176      8.0503      7.4979      6.9427    
  6.4572      6.0823      5.8281      5.6848      5.6389      5.6845      5.8283      6.0831      6.4571      6.9406    
  6.9157      7.2769      7.6183      7.8865      8.0340      8.0342      7.8873      7.6200      7.2784      6.9156    
  6.5773      6.2942      6.0821      5.9443      5.8773      5.8768      5.9438      6.0830      6.2967      6.5794    
  6.7315      6.9037      7.0814      7.2420      7.3563      7.3983      7.3570      7.2425      7.0808      6.9015    
  6.7284      6.5770      6.4565      6.3713      6.3214      6.3048      6.3206      6.3708      6.4574      6.5795    
  6.9154      6.9036      6.9116      6.9375      6.9706      6.9942      6.9945      6.9709      6.9364      6.9092    
  6.9018      6.9156      6.9425      6.9700      6.9893      6.9982      6.9981      6.9887      6.9685      6.9408    
  7.4943      7.2766      7.0816      6.9376      6.8507      6.8100      6.7993      6.8105      6.8506      6.9366    
  7.0814      7.2787      7.4979      7.6941      7.8350      7.9337      7.9741      7.9345      7.8346      7.6914    
  8.4725      8.0479      7.6184      7.2420      6.9704      6.8100      6.7399      6.7399      6.8100      6.9707    
  7.2430      7.6202      8.0498      8.4733      9.0001      9.5802      9.9713      9.9721      9.5819      9.0009    
  10.771      9.3772      8.5172      7.8864      7.3561      6.9942      6.7995      6.7399      6.7987      6.9938    
  7.3570      7.8875      8.5170      9.3750      10.768      12.477      13.904      14.460      13.905      12.480    
  16.274      12.853      10.279      8.8500      8.0341      7.3983      6.9947      6.8105      6.8100      6.9939    
  7.3983      8.0345      8.8493      10.276      12.851      16.273      19.565      21.583      21.582      19.564    
  25.644      19.895      14.556      10.855      8.9746      8.0341      7.3568      6.9709      6.8507      6.9709    
  7.3570      8.0343      8.9744      10.854      14.556      19.897      25.647      30.083      31.748      30.080    
  37.737      30.328      22.108      15.214      10.854      8.8490      7.8869      7.2425      6.9366      6.9368    
  7.2429      7.8871      8.8490      10.854      15.215      22.110      30.330      37.738      42.132      42.131    
  49.910      42.276      32.088      22.109      14.556      10.277      8.5172      7.6199      7.0810      6.9093    
  7.0814      7.6200      8.5167      10.276      14.556      22.110      32.088      42.274      49.908      52.740    
  58.957      52.794      42.277      30.331      19.897      12.852      9.3759      8.0501      7.2784      6.9015    
  6.9020      7.2789      8.0496      9.3747      12.851      19.897      30.330      42.274      52.790      58.955    
  36.350      34.438      29.298      22.506      16.011      11.330      8.8643      7.7539      7.0024      6.5693    
  6.4335      6.5695      7.0025      7.7537      8.8641      11.330      16.012      22.506      29.298      34.438    
  34.439      34.438      30.879      24.881      18.261      12.799      9.4556      7.9363      7.0728      6.5021    
  6.2357      6.2355      6.5018      7.0731      7.9371      9.4562      12.799      18.261      24.881      30.880    
  29.299      30.953      29.299      24.881      19.121      13.736      9.9856      8.0759      7.1190      6.4460    
  6.0681      5.9507      6.0675      6.4457      7.1195      8.0767      9.9858      13.736      19.121      24.881    
  22.506      25.073      25.073      22.506      18.261      13.736      10.200      8.1690      7.1396      6.4027    
  5.9397      5.7296      5.7294      5.9394      6.4025      7.1395      8.1688      10.200      13.735      18.261    
  16.011      18.576      19.555      18.576      16.011      12.799      9.9854      8.1691      7.1445      6.3783    
  5.8584      5.5790      5.4942      5.5793      5.8585      6.3779      7.1440      8.1690      9.9857      12.799    
  11.330      13.205      14.385      14.385      13.205      11.329      9.4553      8.0762      7.1398      6.3784    
  5.8306      5.5027      5.3570      5.3573      5.5032      5.8306      6.3781      7.1398      8.0771      9.4565    
  8.8648      9.9063      10.772      11.112      10.772      9.9059      8.8641      7.9366      7.1193      6.4028    
  5.8585      5.5027      5.3119      5.2533      5.3122      5.5030      5.8585      6.4027      7.1195      7.9372    
  7.7534      8.3910      8.9160      9.2316      9.2315      8.9158      8.3912      7.7541      7.0732      6.4460    
  5.9397      5.5790      5.3569      5.2533      5.2532      5.3568      5.5790      5.9395      6.4455      7.0724    
  7.0014      7.5119      7.9562      8.2582      8.3650      8.2581      7.9564      7.5129      7.0026      6.5020    
  6.0679      5.7296      5.4941      5.3572      5.3123      5.3568      5.4938      5.7296      6.0679      6.5013    
  6.5693      6.9248      7.2611      7.5265      7.6733      7.6732      7.5265      7.2613      6.9251      6.5692    
  6.2354      5.9506      5.7294      5.5792      5.5033      5.5031      5.5789      5.7296      5.9513      6.2361    
  6.4342      6.6498      6.8646      7.0523      7.1822      7.2288      7.1821      7.0521      6.8642      6.6491    
  6.4332      6.2352      6.0675      5.9394      5.8585      5.8308      5.8584      5.9395      6.0681      6.2362    
  6.5691      6.6497      6.7409      6.8335      6.9117      6.9571      6.9573      6.9118      6.8332      6.7402    
  6.6492      6.5692      6.5019      6.4458      6.4026      6.3781      6.3782      6.4027      6.4457      6.5015    
  7.0013      6.9247      6.8647      6.8335      6.8284      6.8357      6.8406      6.8362      6.8287      6.8334    
  6.8646      6.9253      7.0026      7.0735      7.1197      7.1396      7.1441      7.1398      7.1194      7.0724    
  7.7535      7.5120      7.2612      7.0523      6.9115      6.8357      6.8060      6.8061      6.8359      6.9116    
  7.0524      7.2615      7.5125      7.7541      7.9373      8.0767      8.1688      8.1688      8.0767      7.9371    
  8.8650      8.3912      7.9561      7.5264      7.1821      6.9571      6.8408      6.8061      6.8403      6.9567    
  7.1821      7.5267      7.9560      8.3905      8.8641      9.4559      9.9854      10.199      9.9856      9.4565    
  11.330      9.9064      8.9159      8.2582      7.6733      7.2288      6.9573      6.8363      6.8359      6.9568    
  7.2286      7.6736      8.2583      8.9153      9.9053      11.329      12.799      13.736      13.736      12.799    
  16.011      13.205      10.772      9.2318      8.3652      7.6731      7.1820      6.9118      6.8288      6.9118    
  7.1821      7.6734      8.3654      9.2318      10.772      13.205      16.011      18.261      19.121      18.261    
  22.506      18.575      14.385      11.112      9.2317      8.2579      7.5261      7.0521      6.8334      6.8335    
  7.0524      7.5264      8.2581      9.2318      11.112      14.385      18.576      22.506      24.882      24.882    
  29.299      25.073      19.554      14.385      10.772      8.9157      7.9561      7.2613      6.8643      6.7403    
  6.8646      7.2614      7.9558      8.9152      10.772      14.385      19.555      25.073      29.299      30.880    
  34.439      30.953      25.073      18.576      13.205      9.9061      8.3912      7.5127      6.9251      6.6491    
  6.6494      6.9254      7.5124      8.3902      9.9055      13.206      18.576      25.073      30.952      34.438    
  19.549      18.653      16.290      13.297      10.642      8.9110      7.9326      7.1747      6.6396      6.3436    
  6.2520      6.3437      6.6396      7.1746      7.9325      8.9110      10.642      13.297      16.290      18.653    
  18.653      18.653      16.988      14.265      11.431      9.2953      8.0591      7.2253      6.5843      6.1838    
  6.0013      6.0012      6.1836      6.5844      7.2258      8.0596      9.2953      11.431      14.265      16.987    
  16.290      17.064      16.290      14.265      11.744      9.5582      8.1453      7.2515      6.5386      6.0519    