unknown system                          
   1.00000000000000     
     2.390000    0.000000    0.000000
    -1.195000    2.069801    0.000000
     0.000000    0.000000    3.907600
   Fe
     2
Direct
  0.000000  0.000000  0.000000
  0.333333  0.666667  0.500000
 
   20   20   32
 0.16206444069E+03 0.15315045279E+03 0.12925979792E+03 0.97414884525E+02 0.65459669524E+02
 0.39259288801E+02 0.21610761528E+02 0.12373222290E+02 0.90834190215E+01 0.81361858930E+01
 0.78250149659E+01 0.81368362882E+01 0.90839116224E+01 0.12372958614E+02 0.21610074285E+02
 0.39258974249E+02 0.65460000360E+02 0.97415383753E+02 0.12925996026E+03 0.15315035250E+03
 0.15315906065E+03 0.15315000400E+03 0.13679299857E+03 0.10913145824E+03 0.77677835088E+02
 0.49258341025E+02 0.28113087719E+02 0.15486067144E+02 0.99877016455E+01 0.84014792317E+01
 0.77977179729E+01 0.77968454871E+01 0.84005027484E+01 0.99885511098E+01 0.15487051827E+02
 0.28111355762E+02 0.49256206124E+02 0.77682930893E+02 0.10914772141E+03 0.13681285087E+03
 0.12927288673E+03 0.13675994445E+03 0.12926009265E+03 0.10913203999E+03 0.82223507182E+02
 0.55185800676E+02 0.33122989844E+02 0.18512219235E+02 0.11143308684E+02 0.86434074869E+01
 0.77967905223E+01 0.75079877799E+01 0.77946881563E+01 0.86427673537E+01 0.11145025704E+02
 0.18512149931E+02 0.33118301394E+02 0.55181367461E+02 0.82227793421E+02 0.10914587263E+03
 0.97409742696E+02 0.10903457653E+03 0.10903673640E+03 0.97416019148E+02 0.77677656021E+02
 0.55185239416E+02 0.35005371993E+02 0.20379979783E+02 0.12143885548E+02 0.88885859392E+01
 0.78162521715E+01 0.72984310519E+01 0.72978293505E+01 0.78155388118E+01 0.88893554757E+01
 0.12145462344E+02 0.20379360395E+02 0.35000226926E+02 0.55176451584E+02 0.77668581686E+02
 0.65442028059E+02 0.77543615921E+02 0.82043187179E+02 0.77557844153E+02 0.65459601579E+02
 0.49257164743E+02 0.33122901600E+02 0.20380308301E+02 0.12540769338E+02 0.90630050754E+01
 0.78407848589E+01 0.71718249067E+01 0.69536324069E+01 0.71723909231E+01 0.78410788504E+01
 0.90637027807E+01 0.12543869049E+02 0.20385001452E+02 0.33123347231E+02 0.49247497973E+02
 0.39257367240E+02 0.49167132985E+02 0.55018666741E+02 0.55023368761E+02 0.49175340162E+02
 0.39258484096E+02 0.28112827741E+02 0.18512960648E+02 0.12143993264E+02 0.90629016076E+01
 0.78518658185E+01 0.71151008559E+01 0.67599627720E+01 0.67607441308E+01 0.71155826129E+01
 0.78501555989E+01 0.90620957715E+01 0.12149496391E+02 0.18524313873E+02 0.28121670922E+02
 0.21623000748E+02 0.28114348952E+02 0.33073823009E+02 0.34927335479E+02 0.33068713164E+02
 0.28104127510E+02 0.21610415389E+02 0.15486704232E+02 0.11143601997E+02 0.88882947626E+01
 0.78408754210E+01 0.71151404847E+01 0.66983521161E+01 0.65685995826E+01 0.66995615158E+01
 0.71140793276E+01 0.78360330132E+01 0.88836106953E+01 0.11145025704E+02 0.15495863702E+02
 0.12372128374E+02 0.15547494645E+02 0.18591377449E+02 0.20448686655E+02 0.20443059902E+02
 0.18579315890E+02 0.15538966273E+02 0.12373398692E+02 0.99881172091E+01 0.86430366459E+01
 0.78162090225E+01 0.71719905218E+01 0.67597433195E+01 0.65685517750E+01 0.65695335458E+01
 0.67615209007E+01 0.71715606839E+01 0.78107279947E+01 0.86330406604E+01 0.99790127199E+01
 0.90694943125E+01 0.10055989910E+02 0.11279485080E+02 0.12315851530E+02 0.12720015856E+02
 0.12311976598E+02 0.11279529567E+02 0.10065321573E+02 0.90836871158E+01 0.84012521566E+01
 0.77964936252E+01 0.72987251478E+01 0.69535112896E+01 0.67605735588E+01 0.66998429622E+01
 0.67615697812E+01 0.69571873979E+01 0.73034704070E+01 0.77961790025E+01 0.83917945978E+01
 0.81361269104E+01 0.84722413476E+01 0.87854077090E+01 0.90901047108E+01 0.92980696745E+01
 0.92998220771E+01 0.90960776012E+01 0.87950698793E+01 0.84804944872E+01 0.81362848324E+01
 0.77973542730E+01 0.75081989820E+01 0.72980157700E+01 0.71721113833E+01 0.71157461386E+01
 0.71142032246E+01 0.71711155289E+01 0.73033627306E+01 0.75192540903E+01 0.78062630155E+01
 0.78379414296E+01 0.78866843814E+01 0.79518542069E+01 0.80278620183E+01 0.80944398802E+01
 0.81233794925E+01 0.80993064927E+01 0.80326151499E+01 0.79505735328E+01 0.78774773419E+01
 0.78248700004E+01 0.77967000717E+01 0.77950027791E+01 0.78153236067E+01 0.78408754210E+01
 0.78503139859E+01 0.78357390217E+01 0.78105559385E+01 0.77967905223E+01 0.78064813000E+01
 0.81355473741E+01 0.78864517863E+01 0.76762122104E+01 0.75269610236E+01 0.74441439835E+01
 0.74134215158E+01 0.74147442178E+01 0.74446700306E+01 0.75213178535E+01 0.76653519147E+01
 0.78781710372E+01 0.81363556913E+01 0.84006136377E+01 0.86428449255E+01 0.88890370054E+01
 0.90638700978E+01 0.90623665566E+01 0.88835834016E+01 0.86334890731E+01 0.83921325622E+01
 0.90690736560E+01 0.84718998040E+01 0.79522984402E+01 0.75270677218E+01 0.72350820761E+01
 0.70752595333E+01 0.70263087474E+01 0.70747244080E+01 0.72316711676E+01 0.75219563724E+01
 0.79519924347E+01 0.84812038650E+01 0.90837590601E+01 0.99889474484E+01 0.11145020899E+02
 0.12145600274E+02 0.12544396274E+02 0.12149526605E+02 0.11144727586E+02 0.99789934949E+01
 0.12372414382E+02 0.10056067547E+02 0.87857088709E+01 0.80279609391E+01 0.74437420917E+01
 0.70752848895E+01 0.69061113202E+01 0.69053064664E+01 0.70739164994E+01 0.74445006409E+01
 0.80333678820E+01 0.87951684101E+01 0.10064513665E+02 0.12373421022E+02 0.15487408417E+02
 0.18512161547E+02 0.20379500392E+02 0.20384812930E+02 0.18523584077E+02 0.15495583204E+02
 0.21623687992E+02 0.15547860458E+02 0.11279231531E+02 0.90899238218E+01 0.80941536195E+01
 0.74135436291E+01 0.70266826835E+01 0.69052119973E+01 0.70248898455E+01 0.74141971133E+01
 0.80993064927E+01 0.90952768091E+01 0.11278038721E+02 0.15538227448E+02 0.21610415389E+02
 0.28111129317E+02 0.33117855762E+02 0.34999822351E+02 0.33122989844E+02 0.28121704456E+02
 0.39257717477E+02 0.28114333702E+02 0.18590846389E+02 0.12315620647E+02 0.92982792041E+01
 0.81235788656E+01 0.74150235383E+01 0.70745214746E+01 0.70736882098E+01 0.74143543204E+01
 0.81250059924E+01 0.92989601314E+01 0.12310405274E+02 0.18580056974E+02 0.28105802558E+02
 0.39258519781E+02 0.49255593419E+02 0.55181169683E+02 0.55176815067E+02 0.49248061550E+02
 0.65441772181E+02 0.49166498663E+02 0.33073583889E+02 0.20448915752E+02 0.12720506354E+02
 0.92998505276E+01 0.80991244981E+01 0.74445500002E+01 0.72315300994E+01 0.74447825024E+01
 0.80994107588E+01 0.92987790523E+01 0.12716535824E+02 0.20443890142E+02 0.33073684043E+02
 0.49176947171E+02 0.65459676537E+02 0.77683297077E+02 0.82228478060E+02 0.77669126937E+02
 0.97409300670E+02 0.77543011215E+02 0.55018839561E+02 0.34928013813E+02 0.20443331897E+02
 0.12311608115E+02 0.90955990912E+01 0.80327368857E+01 0.75214838666E+01 0.75220156874E+01
 0.80333906970E+01 0.90949791882E+01 0.12310267675E+02 0.20443933039E+02 0.34932815611E+02
 0.55027345607E+02 0.77552260298E+02 0.97416076349E+02 0.10914818078E+03 0.10914575024E+03
 0.12927272438E+03 0.10903475500E+03 0.82043351106E+02 0.55023745152E+02 0.33068613010E+02
 0.18578785619E+02 0.11279231531E+02 0.87953904089E+01 0.79508795383E+01 0.76650842450E+01
 0.79518542070E+01 0.87951877778E+01 0.11277994234E+02 0.18580057763E+02 0.33073823009E+02
 0.55027549179E+02 0.82038141341E+02 0.10902060590E+03 0.12926009265E+03 0.13681219617E+03
 0.15315913393E+03 0.13676073658E+03 0.10903656331E+03 0.77557276208E+02 0.49175179802E+02
 0.28104081240E+02 0.15539087906E+02 0.10065556593E+02 0.84805809421E+01 0.78771321294E+01
 0.78780584198E+01 0.84816318635E+01 0.10064671048E+02 0.15537983268E+02 0.28105771537E+02
 0.49177421132E+02 0.77552297060E+02 0.10902025434E+03 0.13674070638E+03 0.15314997698E+03
 0.15271263468E+03 0.14434424304E+03 0.12188698284E+03 0.91891634574E+02 0.61743507534E+02
 0.37039838003E+02 0.20485010931E+02 0.11926958160E+02 0.89340220305E+01 0.80275738394E+01
 0.77250293181E+01 0.80281992531E+01 0.89344954027E+01 0.11926703070E+02 0.20484346286E+02
 0.37039529807E+02 0.61743820301E+02 0.91892112231E+02 0.12188713986E+03 0.14434414839E+03
 0.14435213656E+03 0.14434383234E+03 0.12896936329E+03 0.10292618234E+03 0.73259122075E+02
 0.46441775031E+02 0.26548061869E+02 0.14774253897E+02 0.97352943552E+01 0.82741971237E+01
 0.76864507164E+01 0.76856133298E+01 0.82732542398E+01 0.97361220083E+01 0.14775303149E+02
 0.26546600403E+02 0.46439823565E+02 0.73263704299E+02 0.10294100860E+03 0.12898753766E+03
 0.12189900257E+03 0.12894495573E+03 0.12188731579E+03 0.10292675490E+03 0.77542925446E+02
 0.52020996905E+02 0.31235419359E+02 0.17563787297E+02 0.10766897949E+02 0.84951840897E+01
 0.76766859536E+01 0.73972767464E+01 0.76746582353E+01 0.84945343824E+01 0.10768548016E+02
 0.17563875647E+02 0.31231196358E+02 0.52016862373E+02 0.77546711432E+02 0.10293932702E+03
 0.91886962023E+02 0.10285318089E+03 0.10285517643E+03 0.91892755373E+02 0.73258930344E+02
 0.52020432366E+02 0.32999120764E+02 0.19292493746E+02 0.11667997400E+02 0.87069018819E+01
 0.76894059514E+01 0.71891247830E+01 0.71885479753E+01 0.76886932913E+01 0.87075503492E+01
 0.11669410343E+02 0.19291912416E+02 0.32994387886E+02 0.52012342825E+02 0.73250565914E+02
 0.61727384663E+02 0.73162639368E+02 0.77414058267E+02 0.73175647511E+02 0.61743407607E+02
 0.46440582492E+02 0.31235298331E+02 0.19292808465E+02 0.12027007348E+02 0.88567740239E+01
 0.77094431522E+01 0.70634316424E+01 0.68538484752E+01 0.70639960403E+01 0.77097210107E+01
 0.88573315417E+01 0.12029730783E+02 0.19297062624E+02 0.31235769285E+02 0.46431835388E+02
 0.37038106848E+02 0.46392891719E+02 0.51923116450E+02 0.51927408193E+02 0.46400342797E+02
 0.37038996547E+02 0.26547765951E+02 0.17564502794E+02 0.11668129909E+02 0.88566919349E+01
 0.77189088053E+01 0.70069870271E+01 0.66661182035E+01 0.66668885477E+01 0.70075286806E+01
 0.77173786951E+01 0.88559085830E+01 0.11673137592E+02 0.17574968361E+02 0.26556011539E+02
 0.20496208997E+02 0.26587454851E+02 0.31257397436E+02 0.33005355911E+02 0.31252725966E+02
 0.26578088635E+02 0.20484654535E+02 0.14774884941E+02 0.10767226713E+02 0.87066617355E+01
 0.77095433183E+01 0.70070225942E+01 0.66064616016E+01 0.64821309345E+01 0.66076280560E+01
 0.70061209083E+01 0.77051480834E+01 0.87023849551E+01 0.10768548016E+02 0.14783306513E+02
 0.11925887969E+02 0.14867972441E+02 0.17706372683E+02 0.19444553584E+02 0.19439411913E+02
 0.17695373071E+02 0.14860255868E+02 0.11927167293E+02 0.97357424282E+01 0.84948621526E+01
 0.76893731373E+01 0.70635803680E+01 0.66658931314E+01 0.64820767882E+01 0.64829612218E+01
 0.66674964054E+01 0.70631809393E+01 0.76843581846E+01 0.84856797275E+01 0.97273187303E+01
 0.89212059388E+01 0.98325211808E+01 0.10958869469E+02 0.11916340371E+02 0.12290641706E+02
 0.11912788247E+02 0.10958951033E+02 0.98411703622E+01 0.89343165236E+01 0.82739857114E+01
 0.76763843660E+01 0.71893835962E+01 0.68537107612E+01 0.66667082324E+01 0.66078883551E+01
 0.66675411622E+01 0.68569946489E+01 0.71936981831E+01 0.76760849889E+01 0.82652660627E+01
 0.80275254131E+01 0.83716117322E+01 0.86887308177E+01 0.89799633391E+01 0.91747089207E+01
 0.91762892343E+01 0.89853875050E+01 0.86975561780E+01 0.83791671660E+01 0.80276453124E+01
 0.76860547993E+01 0.73974419396E+01 0.71887097563E+01 0.70637216291E+01 0.70076812478E+01
 0.70062379084E+01 0.70627578025E+01 0.71936011509E+01 0.74076203423E+01 0.76942753467E+01
 0.77368920285E+01 0.77996722184E+01 0.78803636030E+01 0.79703200675E+01 0.80462943894E+01
 0.80783337285E+01 0.80507137560E+01 0.79746133295E+01 0.78791225225E+01 0.77911635733E+01
 0.77248301471E+01 0.76854321186E+01 0.76749576125E+01 0.76885068770E+01 0.77095433183E+01
 0.77175370059E+01 0.77048702249E+01 0.76842045843E+01 0.76766859535E+01 0.76944900528E+01
 0.80269656736E+01 0.77994418133E+01 0.76124490436E+01 0.74848987862E+01 0.74186104730E+01
 0.73966112354E+01 0.73978452289E+01 0.74191272395E+01 0.74797249705E+01 0.76024566520E+01
 0.77918228984E+01 0.80277109865E+01 0.82733775455E+01 0.84946552174E+01 0.87072850877E+01
 0.88575067278E+01 0.88561658581E+01 0.87023598400E+01 0.84861224995E+01 0.82656007807E+01
 0.89207991358E+01 0.83712695993E+01 0.78807788423E+01 0.74849978395E+01 0.72177468650E+01
 0.70741288055E+01 0.70307972172E+01 0.70737387866E+01 0.72147185699E+01 0.74803331363E+01
 0.78804827068E+01 0.83798410060E+01 0.89343830928E+01 0.97365575292E+01 0.10768586898E+02
 0.11669552868E+02 0.12030220090E+02 0.11673147608E+02 0.10768258134E+02 0.97273061781E+01
 0.11926163568E+02 0.98325877247E+01 0.86890091951E+01 0.79704092175E+01 0.74182231477E+01
 0.70741548520E+01 0.69178160121E+01 0.69171007195E+01 0.70729441944E+01 0.74189408132E+01
 0.79753567624E+01 0.86976769302E+01 0.98403757700E+01 0.11927187802E+02 0.14775664347E+02
 0.17563874428E+02 0.19292013873E+02 0.19296849361E+02 0.17574251645E+02 0.14783036667E+02
 0.20496873641E+02 0.14868326336E+02 0.10958627215E+02 0.89797909586E+01 0.80460189733E+01
 0.73967300081E+01 0.70311644653E+01 0.69170180689E+01 0.70294370328E+01 0.73972404141E+01
 0.80507137560E+01 0.89847103140E+01 0.10957524280E+02 0.14859444118E+02 0.20484654535E+02
 0.26546339642E+02 0.31230725404E+02 0.32993973907E+02 0.31235419359E+02 0.26556046696E+02
 0.37038448509E+02 0.26587442479E+02 0.17705873655E+02 0.11916133428E+02 0.91749147590E+01
 0.80785199881E+01 0.73981161507E+01 0.70735599505E+01 0.70727393118E+01 0.73973925633E+01
 0.80797743814E+01 0.91755735805E+01 0.11911398753E+02 0.17695947464E+02 0.26579493315E+02
 0.37039030012E+02 0.46439192998E+02 0.52016671652E+02 0.52012716643E+02 0.46432397360E+02
 0.61727141978E+02 0.46392266846E+02 0.31257170344E+02 0.19444797149E+02 0.12291127363E+02
 0.91763042527E+01 0.80505218186E+01 0.74190177398E+01 0.72146042041E+01 0.74192186388E+01
 0.80507972347E+01 0.91753827607E+01 0.12287565615E+02 0.19440227014E+02 0.31257228812E+02
 0.46401765756E+02 0.61743477689E+02 0.73264080552E+02 0.77547428291E+02 0.73251133898E+02
 0.91886537788E+02 0.73162016519E+02 0.51923255860E+02 0.33006024583E+02 0.19439700363E+02
 0.11912426135E+02 0.89848910960E+01 0.79747114117E+01 0.74799010531E+01 0.74804101656E+01
 0.79753656945E+01 0.89843862855E+01 0.11911243585E+02 0.19440271899E+02 0.33010437511E+02
 0.51931082021E+02 0.73170550725E+02 0.91892808794E+02 0.10294152145E+03 0.10293926731E+03
 0.12189884555E+03 0.10285329372E+03 0.77414155709E+02 0.51927765835E+02 0.31252667498E+02
 0.17694877400E+02 0.10958627215E+02 0.86978213644E+01 0.78794186579E+01 0.76022341164E+01
 0.78803636030E+01 0.86976637392E+01 0.10957442716E+02 0.17695950820E+02 0.31257397436E+02
 0.51931300253E+02 0.77409485340E+02 0.10284041946E+03 0.12188731579E+03 0.12898695823E+03
 0.14435220601E+03 0.12894566523E+03 0.10285493752E+03 0.73175076274E+02 0.46400229815E+02
 0.26578090017E+02 0.14860360016E+02 0.98413452851E+01 0.83792325676E+01 0.77908706792E+01
 0.77917604094E+01 0.83802485405E+01 0.98404841491E+01 0.14859194372E+02 0.26579507069E+02
 0.46402277646E+02 0.73170602337E+02 0.10284006772E+03 0.12892732301E+03 0.14434380713E+03
 0.12775443438E+03 0.12081469485E+03 0.10212884249E+03 0.77045808570E+02 0.51757263238E+02
 0.31122217553E+02 0.17543940789E+02 0.10801540371E+02 0.85496384927E+01 0.77324354764E+01
 0.74553912885E+01 0.77329895269E+01 0.85500565457E+01 0.10801310113E+02 0.17543344294E+02
 0.31121935329E+02 0.51757533199E+02 0.77046229376E+02 0.10212898345E+03 0.12081461357E+03
 0.12082073108E+03 0.12081438101E+03 0.10802173097E+03 0.86261891185E+02 0.61376427443E+02
 0.38898661252E+02 0.22415693030E+02 0.12947613131E+02 0.91047107846E+01 0.79268609011E+01
 0.73872757173E+01 0.73865393180E+01 0.79260184406E+01 0.91054712495E+01 0.12948795025E+02
 0.22414903529E+02 0.38897185290E+02 0.61379698622E+02 0.86273007077E+02 0.10803555465E+03
 0.10213808044E+03 0.10802072580E+03 0.10212925924E+03 0.86262431910E+02 0.64955532981E+02
 0.43531290573E+02 0.26224994181E+02 0.15103001020E+02 0.98211955606E+01 0.81011882621E+01
 0.73520132845E+01 0.70997747909E+01 0.73502062815E+01 0.81005325123E+01 0.98226557984E+01
 0.15103461732E+02 0.26221958803E+02 0.43527944818E+02 0.64958051559E+02 0.86271755615E+02
 0.77042347372E+02 0.86252961855E+02 0.86254526759E+02 0.77046876678E+02 0.61376210213E+02
 0.43530728914E+02 0.27665262601E+02 0.16456597260E+02 0.10463518765E+02 0.82397563960E+01
 0.73438639681E+01 0.68938564646E+01 0.68933522233E+01 0.73431713842E+01 0.82401074914E+01
 0.10464514247E+02 0.16456115192E+02 0.27661600126E+02 0.43524457855E+02 0.61369699114E+02
 0.51745076075E+02 0.61380399847E+02 0.64963865303E+02 0.61390245423E+02 0.51757090158E+02
 0.38897452835E+02 0.26224798395E+02 0.16456874020E+02 0.10723121311E+02 0.83317562567E+01
 0.73495096324E+01 0.67687358103E+01 0.65830580618E+01 0.67692853121E+01 0.73497435473E+01
 0.83319684065E+01 0.10724893750E+02 0.16459997195E+02 0.26225318940E+02 0.38891067785E+02
 0.31120976171E+02 0.38961595862E+02 0.43616730909E+02 0.43619960078E+02 0.38967097388E+02
 0.31121305368E+02 0.22415318718E+02 0.15103643139E+02 0.10463707387E+02 0.83317252735E+01
 0.73537464001E+01 0.67118463816E+01 0.64100876007E+01 0.64108141984E+01 0.67125147982E+01
 0.73526708923E+01 0.83310092482E+01 0.10467437093E+02 0.15111789857E+02 0.22421980191E+02
 0.17552441281E+02 0.22554929801E+02 0.26433652760E+02 0.27892770167E+02 0.26430116514E+02
 0.22547783682E+02 0.17543568057E+02 0.12948219157E+02 0.98216014604E+01 0.82396390352E+01
 0.73496286189E+01 0.67118713721E+01 0.63552057506E+01 0.62453631640E+01 0.63562431826E+01
 0.67113629561E+01 0.73463834104E+01 0.82364181715E+01 0.98226557985E+01 0.12954719845E+02
 0.10800548944E+02 0.13124922613E+02 0.15410101241E+02 0.16825047712E+02 0.16821163290E+02
 0.15401848722E+02 0.13119291697E+02 0.10801822935E+02 0.91052260863E+01 0.81009856964E+01
 0.73438543683E+01 0.67688416548E+01 0.64098546010E+01 0.62452960886E+01 0.62459316494E+01
 0.64110121874E+01 0.67685241429E+01 0.73400505497E+01 0.80939247153E+01 0.90985925758E+01
 0.85397151292E+01 0.92759275019E+01 0.10155783980E+02 0.10906978996E+02 0.11202301746E+02
 0.10904269095E+02 0.10155955652E+02 0.92827814041E+01 0.85499882830E+01 0.79266897911E+01
 0.73517069096E+01 0.68940282895E+01 0.65828848659E+01 0.64106157703E+01 0.63564501798E+01
 0.64110467589E+01 0.65851737695E+01 0.68972342270E+01 0.73514507107E+01 0.79199009362E+01
 0.77324139039E+01 0.80914711551E+01 0.84243729017E+01 0.86919252771E+01 0.88565641304E+01
 0.88577055245E+01 0.86959401897E+01 0.84310350966E+01 0.80972177294E+01 0.77324418914E+01
 0.73868145148E+01 0.70998310002E+01 0.68934526665E+01 0.67690272011E+01 0.67126396790E+01
 0.67114628463E+01 0.67681601873E+01 0.68971628453E+01 0.71077193802E+01 0.73932324454E+01
 0.74644882758E+01 0.75606809530E+01 0.76755359422E+01 0.77941199760E+01 0.78881742966E+01
 0.79258037747E+01 0.78914411701E+01 0.77972343052E+01 0.76744165571E+01 0.75540074173E+01
 0.74550720895E+01 0.73862801575E+01 0.73504624803E+01 0.73430519334E+01 0.73496286189E+01
 0.73528285075E+01 0.73461494955E+01 0.73399406986E+01 0.73520132845E+01 0.73934344873E+01
 0.77319127152E+01 0.75604612860E+01 0.74295664811E+01 0.73508663988E+01 0.73194959382E+01
 0.73149848817E+01 0.73159804002E+01 0.73199745930E+01 0.73469088722E+01 0.74218388854E+01
 0.75545714441E+01 0.77324947532E+01 0.79261670300E+01 0.81007472883E+01 0.82399691125E+01
 0.83321616706E+01 0.83312334955E+01 0.82363971534E+01 0.80943420570E+01 0.79202206356E+01
 0.85393501782E+01 0.80911373349E+01 0.76758772989E+01 0.73509459724E+01 0.71394255068E+01
 0.70303640280E+01 0.69986237020E+01 0.70303218708E+01 0.71373609176E+01 0.73474316334E+01
 0.76756078844E+01 0.80977933524E+01 0.85500413850E+01 0.91059872556E+01 0.98227927877E+01
 0.10464666546E+02 0.10725290120E+02 0.10467400769E+02 0.98223868879E+01 0.90985932802E+01
 0.10800794896E+02 0.92759705178E+01 0.84245960816E+01 0.77941853435E+01 0.73191483211E+01
 0.70303892714E+01 0.69018620860E+01 0.69013736013E+01 0.70295763956E+01 0.73197518790E+01
 0.77979385147E+01 0.84312049488E+01 0.92820359289E+01 0.10801838629E+02 0.12949157316E+02
 0.15103429456E+02 0.16456128545E+02 0.16459733789E+02 0.15111115462E+02 0.12954476110E+02
 0.17553037776E+02 0.13125244229E+02 0.10155576886E+02 0.86917772605E+01 0.78879264968E+01
 0.73150888136E+01 0.69989658349E+01 0.69013206677E+01 0.69974323748E+01 0.73152535820E+01
 0.78914411701E+01 0.86955686237E+01 0.10154711223E+02 0.13118326470E+02 0.17543568057E+02
 0.22414563617E+02 0.26221438258E+02 0.27661176540E+02 0.26224994181E+02 0.22422014591E+02
 0.31121287021E+02 0.22554924184E+02 0.15409690198E+02 0.10906833750E+02 0.88567544085E+01
 0.79259504776E+01 0.73162234019E+01 0.70302042153E+01 0.70294334967E+01 0.73153926518E+01
 0.79267755717E+01 0.88573506162E+01 0.10903338564E+02 0.15402018084E+02 0.22548521530E+02
 0.31121333995E+02 0.38896522303E+02 0.43527777441E+02 0.43524852138E+02 0.38891613217E+02
 0.51744865157E+02 0.38961002622E+02 0.26433460008E+02 0.16825322904E+02 0.11202765421E+02
 0.88576849398E+01 0.78912275907E+01 0.73198937963E+01 0.71373157402E+01 0.73200186994E+01
 0.78914753905E+01 0.88571397534E+01 0.11200245081E+02 0.16821924460E+02 0.26433417608E+02
 0.38968056546E+02 0.51757149201E+02 0.61380092216E+02 0.64958834075E+02 0.61370309938E+02
 0.77041971322E+02 0.61379743614E+02 0.43616789526E+02 0.27893406034E+02 0.16821485656E+02
 0.10903927033E+02 0.86954104515E+01 0.77972771163E+01 0.73471087244E+01 0.73475519120E+01
 0.77979159583E+01 0.86951869021E+01 0.10903141748E+02 0.16821971633E+02 0.27896800098E+02
 0.43622838168E+02 0.61386408175E+02 0.77046921434E+02 0.86273638125E+02 0.86271845938E+02
 0.10213793948E+03 0.86252917315E+02 0.64963804250E+02 0.43620268605E+02 0.26430158914E+02
 0.15401443339E+02 0.10155576886E+02 0.84311669340E+01 0.76746859716E+01 0.74217273923E+01
 0.76755359422E+01 0.84311136063E+01 0.10154539551E+02 0.15402023744E+02 0.26433652760E+02
 0.43623088079E+02 0.64960505166E+02 0.86243328428E+02 0.10212925924E+03 0.10803516480E+03
 0.12082079132E+03 0.10802122816E+03 0.86254137178E+02 0.61389677327E+02 0.38967099088E+02
 0.22547897187E+02 0.13119351820E+02 0.92828124585E+01 0.80972338004E+01 0.75538420593E+01
 0.75546257531E+01 0.80981432437E+01 0.92820239674E+01 0.13118064978E+02 0.22548640652E+02
 0.38968651485E+02 0.61386496312E+02 0.86242983386E+02 0.10800726037E+03 0.12081435997E+03
 0.94805628119E+02 0.89695702418E+02 0.75885776461E+02 0.57266506299E+02 0.38511347366E+02
 0.23431409620E+02 0.13894049358E+02 0.95007271590E+01 0.80452831902E+01 0.73299437222E+01
 0.70932193294E+01 0.73303901316E+01 0.80456163331E+01 0.95005337387E+01 0.13893562624E+02
 0.23431184241E+02 0.38511573764E+02 0.57266853211E+02 0.75885891559E+02 0.89695634880E+02
 0.89699433358E+02 0.89695503045E+02 0.80233037139E+02 0.64074268023E+02 0.45567211050E+02
 0.28988376407E+02 0.17164458891E+02 0.10765111453E+02 0.83689584261E+01 0.74476923715E+01
 0.69857491844E+01 0.69851644967E+01 0.74470092287E+01 0.83696046968E+01 0.10766359225E+02
 0.17164416717E+02 0.28987487617E+02 0.45568923160E+02 0.64080849865E+02 0.80241493614E+02
 0.75891554969E+02 0.80262813758E+02 0.75886252531E+02 0.64074746084E+02 0.48198480946E+02
 0.32329670717E+02 0.19781514083E+02 0.12094480733E+02 0.87288600461E+01 0.75564956764E+01
 0.69117008399E+01 0.67006462427E+01 0.69102410864E+01 0.75558837328E+01 0.87300400915E+01
 0.12095299430E+02 0.19779891472E+02 0.32327340033E+02 0.48199520974E+02 0.64080119810E+02
 0.57264523833E+02 0.64148487572E+02 0.64149507916E+02 0.57267460341E+02 0.45566983121E+02
 0.32329145225E+02 0.20781105071E+02 0.12951798014E+02 0.90594510039E+01 0.76364948195E+01
 0.68690396603E+01 0.64940282938E+01 0.64936355273E+01 0.68684219022E+01 0.76365245991E+01
 0.90599521231E+01 0.12951440590E+02 0.20778768605E+02 0.32325140878E+02 0.45562795304E+02
 0.38504010027E+02 0.45699936930E+02 0.48383117546E+02 0.45705884471E+02 0.38511111892E+02
 0.28987223698E+02 0.19781254948E+02 0.12952021440E+02 0.91965311070E+01 0.76780419984E+01
 0.68499657938E+01 0.63651561512E+01 0.62132540861E+01 0.63656575603E+01 0.68501398323E+01
 0.76778789534E+01 0.91971994738E+01 0.12953769968E+02 0.19781791799E+02 0.28983689139E+02
 0.23430760544E+02 0.29193036454E+02 0.32648124934E+02 0.32650048042E+02 0.29196166493E+02
 0.23430480629E+02 0.17164029728E+02 0.12095014026E+02 0.90596858388E+01 0.76780622096E+01
 0.68451032909E+01 0.63047625752E+01 0.60569661030E+01 0.60575971388E+01 0.63055094651E+01
 0.68445555416E+01 0.76774552565E+01 0.90618578040E+01 0.12100251660E+02 0.17168638893E+02
 0.13899226034E+02 0.17429040032E+02 0.20224992190E+02 0.21287150088E+02 0.20222854644E+02
 0.17424642970E+02 0.13893685693E+02 0.10765659364E+02 0.87293191716E+01 0.76365028100E+01
 0.68500912738E+01 0.63047745022E+01 0.60072365001E+01 0.59164325750E+01 0.60080666073E+01
 0.63046963042E+01 0.68482395050E+01 0.76345846853E+01 0.87300400915E+01 0.10769768239E+02
 0.94998796675E+01 0.11046805912E+02 0.12606862346E+02 0.13590253695E+02 0.13587918873E+02
 0.12601981033E+02 0.11043694682E+02 0.95010675977E+01 0.83695079158E+01 0.75564198829E+01
 0.68690490696E+01 0.63652118354E+01 0.60567420953E+01 0.59163591268E+01 0.59166971822E+01
 0.60573667646E+01 0.63650034892E+01 0.68667465955E+01 0.75520092708E+01 0.83651521471E+01
 0.80389783432E+01 0.86325948849E+01 0.92407397488E+01 0.97446836380E+01 0.99425293463E+01
 0.97430242052E+01 0.92410019824E+01 0.86371603377E+01 0.80456636114E+01 0.74475697982E+01
 0.69114093399E+01 0.64941054340E+01 0.62130586896E+01 0.60573961664E+01 0.60082110803E+01
 0.60573897999E+01 0.62141798332E+01 0.64959649051E+01 0.69112156666E+01 0.74432107502E+01
 0.73299529077E+01 0.76957882967E+01 0.80402278525E+01 0.83089431317E+01 0.84561124856E+01
 0.84567304444E+01 0.83112519973E+01 0.80442349863E+01 0.76993017890E+01 0.73298864482E+01
 0.69852581061E+01 0.67005967264E+01 0.64936682101E+01 0.63654286827E+01 0.63056011900E+01
 0.63047761021E+01 0.63647189273E+01 0.64959204477E+01 0.67056119997E+01 0.69894001991E+01
 0.70988827391E+01 0.72330680231E+01 0.73810921258E+01 0.75231429384E+01 0.76294136414E+01
 0.76699838640E+01 0.76312778958E+01 0.75248388284E+01 0.73801741373E+01 0.72287248338E+01
 0.70928086090E+01 0.69848504630E+01 0.69104347597E+01 0.68683654177E+01 0.68500912738E+01
 0.68447091747E+01 0.68480654665E+01 0.68666807017E+01 0.69117008399E+01 0.69895772437E+01
 0.73295440419E+01 0.72328749980E+01 0.71687812575E+01 0.71416298498E+01 0.71426890286E+01
 0.71525442612E+01 0.71532240070E+01 0.71430860188E+01 0.71391747929E+01 0.71638893362E+01
 0.72291540949E+01 0.73299239917E+01 0.74471701178E+01 0.75561654922E+01 0.76365130264E+01
 0.76780862262E+01 0.76776423180E+01 0.76345651221E+01 0.75523668237E+01 0.74434942127E+01
 0.80386814069E+01 0.76954901344E+01 0.73813437125E+01 0.71416861681E+01 0.69901211508E+01
 0.69144763131E+01 0.68931517854E+01 0.69147886249E+01 0.69891727078E+01 0.71395744733E+01
 0.73811125109E+01 0.76997390128E+01 0.80456998180E+01 0.83701619869E+01 0.87302575452E+01
 0.90601095357E+01 0.91974930607E+01 0.90617803817E+01 0.87297984197E+01 0.83651599476E+01
 0.95000816801E+01 0.86326207804E+01 0.80403906012E+01 0.75231828821E+01 0.71423980220E+01
 0.69144945642E+01 0.68140525840E+01 0.68138296225E+01 0.69141431459E+01 0.71428402203E+01
 0.75254547265E+01 0.80444432413E+01 0.86365148588E+01 0.95010761899E+01 0.10766694307E+02
 0.12095235808E+02 0.12951375961E+02 0.12953481913E+02 0.12099654746E+02 0.10769555410E+02
 0.13899712768E+02 0.11047082019E+02 0.92405897653E+01 0.83088309700E+01 0.76292012690E+01
 0.71526156731E+01 0.68934420346E+01 0.68138104427E+01 0.68922134119E+01 0.71524209891E+01
 0.76312778958E+01 0.83112181110E+01 0.92400274022E+01 0.11042637274E+02 0.13893685693E+02
 0.17164009368E+02 0.19779354621E+02 0.20778372355E+02 0.19781514083E+02 0.17168660707E+02
 0.23431011561E+02 0.17429041193E+02 0.12606572030E+02 0.97446121960E+01 0.84562683255E+01
 0.76700696507E+01 0.71534170698E+01 0.69147419840E+01 0.69140782540E+01 0.71525426398E+01
 0.76704115038E+01 0.84567696092E+01 0.97426261462E+01 0.12601725021E+02 0.17424651565E+02
 0.23430506267E+02 0.28986825639E+02 0.32327213906E+02 0.32325540243E+02 0.28984179870E+02
 0.38503833827E+02 0.29192504689E+02 0.20224849962E+02 0.13590549254E+02 0.99429392171E+01
 0.84566663845E+01 0.76310513977E+01 0.71430435009E+01 0.69892093956E+01 0.71430887090E+01
 0.76312637701E+01 0.84565497095E+01 0.99416537978E+01 0.13588572944E+02 0.20224704773E+02
 0.29196590190E+02 0.38511162090E+02 0.45569312499E+02 0.48200331075E+02 0.45563412571E+02
 0.57264214220E+02 0.45699280481E+02 0.32648100339E+02 0.21287721340E+02 0.13588257175E+02
 0.97427181763E+01 0.83107197111E+01 0.75248294819E+01 0.71393940893E+01 0.71397374515E+01
 0.75254054363E+01 0.83107979865E+01 0.97423915593E+01 0.13588615688E+02 0.21289831630E+02
 0.32651916424E+02 0.45703592392E+02 0.57267497640E+02 0.64081566696E+02 0.64080358580E+02
 0.75891439871E+02 0.64148286090E+02 0.48382900819E+02 0.32650293339E+02 0.20222999834E+02
 0.12601688892E+02 0.92405897653E+01 0.80442302009E+01 0.73804053389E+01 0.71638964985E+01
 0.73810921258E+01 0.80442757073E+01 0.92397651687E+01 0.12601723196E+02 0.20224992190E+02
 0.32652186316E+02 0.48381217219E+02 0.64142693459E+02 0.75886252531E+02 0.80241320696E+02
 0.89699483607E+02 0.80263080247E+02 0.64148989980E+02 0.45705353748E+02 0.29196285878E+02
 0.17424861946E+02 0.11043704169E+02 0.86370474476E+01 0.76992713227E+01 0.72286941292E+01
 0.72293164156E+01 0.77000067090E+01 0.86363760733E+01 0.11042370653E+02 0.17424869380E+02
 0.29197241339E+02 0.45703718118E+02 0.64142377006E+02 0.80254504037E+02 0.89695485755E+02
 0.62300419957E+02 0.58955368434E+02 0.49907192613E+02 0.37737676330E+02 0.25646801424E+02
 0.16274243807E+02 0.10768379644E+02 0.84729682647E+01 0.74975804803E+01 0.69156830193E+01
 0.67288050630E+01 0.69160005562E+01 0.74978088082E+01 0.84728144597E+01 0.10768027533E+02
 0.16274103359E+02 0.25646998952E+02 0.37737949320E+02 0.49907276003E+02 0.58955310528E+02
 0.58957076854E+02 0.58955261381E+02 0.52736657001E+02 0.42128141512E+02 0.30081889377E+02
 0.19565974889E+02 0.12477262711E+02 0.89986479707E+01 0.76931380962E+01 0.69428280279E+01