   2   2   0   0
  0.9665104E+01  0.2390000E-09  0.2390000E-09  0.3907600E-09  0.5000000E-15
  1.000000000000000E-004
  CAR 
 unknown system                          
     74.17679140     -5.31529212  301      7.53327436      1.00000000
     -5.315  0.0000E+00  0.0000E+00
     -5.050  0.0000E+00  0.0000E+00
     -4.785  0.0000E+00  0.0000E+00
     -4.520  0.0000E+00  0.0000E+00
     -4.255  0.0000E+00  0.0000E+00
     -3.990  0.0000E+00  0.0000E+00
     -3.725  0.0000E+00  0.0000E+00
     -3.460 -0.2290E-35 -0.6069E-36
     -3.196 -0.4445E-26 -0.1178E-26
     -2.931 -0.2524E-18 -0.6688E-19
     -2.666 -0.4013E-12 -0.1063E-12
     -2.401 -0.1878E-07 -0.4975E-08
     -2.136 -0.2368E-04 -0.6280E-05
     -1.871 -0.4996E-03 -0.1387E-03
     -1.606  0.7202E-02  0.1770E-02
     -1.341  0.6090E-01  0.1791E-01
     -1.076  0.6080E-01  0.3402E-01
     -0.811  0.1196E+00  0.6570E-01
     -0.546  0.1297E+00  0.1001E+00
     -0.281  0.1027E+00  0.1273E+00
     -0.016  0.1874E+00  0.1769E+00
      0.249  0.2097E+00  0.2325E+00
      0.514  0.1886E+00  0.2825E+00
      0.779  0.1956E+00  0.3343E+00
      1.044  0.2831E+00  0.4093E+00
      1.309  0.3768E+00  0.5092E+00
      1.574  0.3114E+00  0.5917E+00
      1.839  0.3306E+00  0.6793E+00
      2.104  0.6721E+00  0.8573E+00
      2.369  0.1402E+01  0.1229E+01
      2.634  0.1589E+01  0.1650E+01
      2.899  0.2272E+01  0.2252E+01
      3.164  0.2537E+01  0.2924E+01
      3.429  0.2819E+01  0.3671E+01
      3.694  0.2224E+01  0.4260E+01
      3.959  0.2444E+01  0.4908E+01
      4.224  0.2713E+01  0.5627E+01
      4.489  0.3067E+01  0.6440E+01
      4.754  0.3042E+01  0.7246E+01
      5.019  0.1662E+01  0.7686E+01
      5.284  0.2499E+01  0.8348E+01
      5.549  0.3872E+01  0.9374E+01
      5.814  0.3941E+01  0.1042E+02
      6.079  0.3984E+01  0.1147E+02
      6.344  0.4705E+01  0.1272E+02
      6.609  0.3689E+01  0.1370E+02
      6.873  0.2633E+01  0.1440E+02
      7.138  0.2613E+01  0.1509E+02
      7.403  0.2273E+01  0.1569E+02
      7.668  0.2630E+01  0.1639E+02
      7.933  0.2733E+01  0.1711E+02
      8.198  0.3769E+01  0.1811E+02
      8.463  0.5809E+01  0.1965E+02
      8.728  0.4854E+01  0.2094E+02
      8.993  0.9251E+00  0.2118E+02
      9.258  0.4914E+00  0.2131E+02
      9.523  0.3562E+00  0.2141E+02
      9.788  0.8601E+00  0.2163E+02
     10.053  0.7924E+00  0.2184E+02
     10.318  0.2997E+00  0.2192E+02
     10.583  0.5643E+00  0.2207E+02
     10.848  0.3970E+00  0.2218E+02
     11.113  0.5192E+00  0.2231E+02
     11.378  0.5912E+00  0.2247E+02
     11.643  0.5513E+00  0.2262E+02
     11.908  0.3711E+00  0.2272E+02
     12.173  0.3079E+00  0.2280E+02
     12.438  0.2845E+00  0.2287E+02
     12.703  0.6207E+00  0.2304E+02
     12.968  0.4197E+00  0.2315E+02
     13.233  0.3147E+00  0.2323E+02
     13.498  0.3077E+00  0.2331E+02
     13.763  0.5676E+00  0.2346E+02
     14.028  0.5105E+00  0.2360E+02
     14.293  0.2355E+00  0.2366E+02
     14.558  0.1310E+00  0.2370E+02
     14.823  0.2359E+00  0.2376E+02
     15.088  0.2396E+00  0.2382E+02
     15.353  0.1643E+00  0.2387E+02
     15.618  0.3420E+00  0.2396E+02
     15.883  0.1586E+00  0.2400E+02
     16.148  0.1100E+00  0.2403E+02
     16.413  0.1521E+00  0.2407E+02
     16.678  0.1971E+00  0.2412E+02
     16.942  0.2176E+00  0.2418E+02
     17.207  0.1701E+00  0.2422E+02
     17.472  0.4979E+00  0.2435E+02
     17.737  0.1262E+01  0.2469E+02
     18.002  0.1060E+01  0.2497E+02
     18.267  0.5562E+00  0.2512E+02
     18.532  0.5756E+00  0.2527E+02
     18.797  0.5209E+00  0.2541E+02
     19.062  0.5386E+00  0.2555E+02
     19.327  0.7488E+00  0.2575E+02
     19.592  0.8173E+00  0.2597E+02
     19.857  0.6204E+00  0.2613E+02
     20.122  0.6675E+00  0.2631E+02
     20.387  0.6788E+00  0.2649E+02
     20.652  0.8062E+00  0.2670E+02
     20.917  0.7839E+00  0.2691E+02
     21.182  0.7237E+00  0.2710E+02
     21.447  0.7070E+00  0.2729E+02
     21.712  0.6450E+00  0.2746E+02
     21.977  0.5570E+00  0.2761E+02
     22.242  0.4244E+00  0.2772E+02
     22.507  0.5206E+00  0.2786E+02
     22.772  0.6232E+00  0.2802E+02
     23.037  0.5696E+00  0.2817E+02
     23.302  0.6469E+00  0.2834E+02
     23.567  0.6179E+00  0.2851E+02
     23.832  0.6934E+00  0.2869E+02
     24.097  0.8243E+00  0.2891E+02
     24.362  0.7304E+00  0.2910E+02
     24.627  0.8837E+00  0.2934E+02
     24.892  0.4277E+00  0.2945E+02
     25.157  0.1015E+01  0.2972E+02
     25.422  0.1031E+01  0.2999E+02
     25.687  0.8832E+00  0.3023E+02
     25.952  0.8832E+00  0.3046E+02
     26.217  0.7856E+00  0.3067E+02
     26.482  0.8336E+00  0.3089E+02
     26.747  0.7054E+00  0.3108E+02
     27.011  0.9411E+00  0.3133E+02
     27.276  0.8476E+00  0.3155E+02
     27.541  0.8244E+00  0.3177E+02
     27.806  0.9455E+00  0.3202E+02
     28.071  0.9361E+00  0.3227E+02
     28.336  0.8220E+00  0.3249E+02
     28.601  0.8247E+00  0.3270E+02
     28.866  0.6231E+00  0.3287E+02
     29.131  0.8017E+00  0.3308E+02
     29.396  0.1108E+01  0.3337E+02
     29.661  0.1038E+01  0.3365E+02
     29.926  0.7963E+00  0.3386E+02
     30.191  0.5860E+00  0.3402E+02
     30.456  0.8137E+00  0.3423E+02
     30.721  0.8127E+00  0.3445E+02
     30.986  0.8195E+00  0.3466E+02
     31.251  0.8802E+00  0.3490E+02
     31.516  0.6101E+00  0.3506E+02
     31.781  0.6328E+00  0.3523E+02
     32.046  0.9172E+00  0.3547E+02
     32.311  0.6459E+00  0.3564E+02
     32.576  0.5984E+00  0.3580E+02
     32.841  0.6720E+00  0.3598E+02
     33.106  0.5407E+00  0.3612E+02
     33.371  0.1091E+01  0.3641E+02
     33.636  0.7349E+00  0.3660E+02
     33.901  0.6784E+00  0.3678E+02
     34.166  0.9159E+00  0.3703E+02
     34.431  0.1016E+01  0.3730E+02
     34.696  0.1406E+01  0.3767E+02
     34.961  0.7332E+00  0.3786E+02
     35.226  0.7638E+00  0.3807E+02
     35.491  0.6817E+00  0.3825E+02
     35.756  0.7964E+00  0.3846E+02
     36.021  0.6569E+00  0.3863E+02
     36.286  0.6372E+00  0.3880E+02
     36.551  0.7837E+00  0.3901E+02
     36.816  0.7714E+00  0.3921E+02
     37.080  0.7277E+00  0.3941E+02
     37.345  0.8913E+00  0.3964E+02
     37.610  0.8901E+00  0.3988E+02
     37.875  0.9105E+00  0.4012E+02
     38.140  0.6465E+00  0.4029E+02
     38.405  0.7443E+00  0.4049E+02
     38.670  0.1231E+01  0.4081E+02
     38.935  0.1187E+01  0.4113E+02
     39.200  0.6041E+00  0.4129E+02
     39.465  0.5054E+00  0.4142E+02
     39.730  0.8424E+00  0.4165E+02
     39.995  0.9185E+00  0.4189E+02
     40.260  0.8316E+00  0.4211E+02
     40.525  0.9896E+00  0.4237E+02
     40.790  0.8433E+00  0.4259E+02
     41.055  0.1200E+01  0.4291E+02
     41.320  0.1125E+01  0.4321E+02
     41.585  0.6822E+00  0.4339E+02
     41.850  0.6789E+00  0.4357E+02
     42.115  0.5343E+00  0.4371E+02
     42.380  0.7987E+00  0.4392E+02
     42.645  0.9855E+00  0.4419E+02
     42.910  0.7176E+00  0.4438E+02
     43.175  0.7945E+00  0.4459E+02
     43.440  0.1368E+01  0.4495E+02
     43.705  0.1384E+01  0.4532E+02
     43.970  0.9039E+00  0.4555E+02
     44.235  0.1052E+01  0.4583E+02
     44.500  0.1060E+01  0.4611E+02
     44.765  0.8460E+00  0.4634E+02
     45.030  0.8464E+00  0.4656E+02
     45.295  0.1278E+01  0.4690E+02
     45.560  0.6773E+00  0.4708E+02
     45.825  0.1136E+01  0.4738E+02
     46.090  0.1015E+01  0.4765E+02
     46.355  0.9473E+00  0.4790E+02
     46.620  0.1030E+01  0.4817E+02
     46.885  0.6425E+00  0.4835E+02
     47.149  0.9770E+00  0.4860E+02
     47.414  0.9706E+00  0.4886E+02
     47.679  0.9415E+00  0.4911E+02
     47.944  0.7073E+00  0.4930E+02
     48.209  0.9363E+00  0.4955E+02
     48.474  0.1089E+01  0.4983E+02
     48.739  0.9404E+00  0.5008E+02
     49.004  0.9670E+00  0.5034E+02
     49.269  0.6107E+00  0.5050E+02
     49.534  0.7964E+00  0.5071E+02
     49.799  0.8557E+00  0.5094E+02
     50.064  0.1102E+01  0.5123E+02
     50.329  0.1008E+01  0.5150E+02
     50.594  0.1241E+01  0.5183E+02
     50.859  0.9706E+00  0.5208E+02
     51.124  0.1056E+01  0.5236E+02
     51.389  0.1026E+01  0.5264E+02
     51.654  0.1018E+01  0.5291E+02
     51.919  0.1259E+01  0.5324E+02
     52.184  0.1004E+01  0.5351E+02
     52.449  0.9856E+00  0.5377E+02
     52.714  0.1350E+01  0.5412E+02
     52.979  0.1198E+01  0.5444E+02
     53.244  0.1091E+01  0.5473E+02
     53.509  0.1026E+01  0.5500E+02
     53.774  0.1257E+01  0.5534E+02
     54.039  0.1108E+01  0.5563E+02
     54.304  0.1123E+01  0.5593E+02
     54.569  0.1179E+01  0.5624E+02
     54.834  0.1096E+01  0.5653E+02
     55.099  0.1147E+01  0.5683E+02
     55.364  0.9877E+00  0.5710E+02
     55.629  0.1286E+01  0.5744E+02
     55.894  0.1164E+01  0.5775E+02
     56.159  0.1218E+01  0.5807E+02
     56.424  0.1026E+01  0.5834E+02
     56.689  0.1508E+01  0.5874E+02
     56.954  0.1406E+01  0.5911E+02
     57.218  0.1380E+01  0.5948E+02
     57.483  0.1342E+01  0.5983E+02
     57.748  0.1711E+01  0.6029E+02
     58.013  0.1442E+01  0.6067E+02
     58.278  0.1381E+01  0.6103E+02
     58.543  0.1425E+01  0.6141E+02
     58.808  0.1244E+01  0.6174E+02
     59.073  0.1824E+01  0.6223E+02
     59.338  0.1946E+01  0.6274E+02
     59.603  0.1327E+01  0.6309E+02
     59.868  0.1541E+01  0.6350E+02
     60.133  0.1853E+01  0.6399E+02
     60.398  0.1576E+01  0.6441E+02
     60.663  0.1595E+01  0.6483E+02
     60.928  0.1866E+01  0.6533E+02
     61.193  0.2160E+01  0.6590E+02
     61.458  0.1601E+01  0.6632E+02
     61.723  0.1756E+01  0.6679E+02
     61.988  0.1779E+01  0.6726E+02
     62.253  0.2390E+01  0.6789E+02
     62.518  0.1813E+01  0.6837E+02
     62.783  0.1805E+01  0.6885E+02
     63.048  0.1690E+01  0.6930E+02
     63.313  0.1507E+01  0.6970E+02
     63.578  0.1590E+01  0.7012E+02
     63.843  0.1475E+01  0.7051E+02
     64.108  0.1905E+01  0.7102E+02
     64.373  0.1637E+01  0.7145E+02
     64.638  0.1918E+01  0.7196E+02
     64.903  0.1743E+01  0.7242E+02
     65.168  0.1261E+01  0.7275E+02
     65.433  0.1502E+01  0.7315E+02
     65.698  0.1134E+01  0.7345E+02
     65.963  0.1559E+01  0.7387E+02
     66.228  0.1977E+01  0.7439E+02
     66.493  0.1521E+01  0.7479E+02
     66.758  0.1610E+01  0.7522E+02
     67.023  0.2156E+01  0.7579E+02
     67.287  0.1635E+01  0.7622E+02
     67.552  0.1456E+01  0.7661E+02
     67.817  0.1807E+01  0.7709E+02
     68.082  0.1797E+01  0.7756E+02
     68.347  0.1458E+01  0.7795E+02
     68.612  0.1350E+01  0.7831E+02
     68.877  0.1376E+01  0.7867E+02
     69.142  0.1259E+01  0.7901E+02
     69.407  0.1245E+01  0.7934E+02
     69.672  0.1006E+01  0.7960E+02
     69.937  0.8147E+00  0.7982E+02
     70.202  0.3705E+00  0.7992E+02
     70.467  0.2439E+00  0.7998E+02
     70.732  0.7286E-01  0.8000E+02
     70.997 -0.2061E-02  0.8000E+02
     71.262 -0.3045E-03  0.8000E+02
     71.527 -0.2727E-06  0.8000E+02
     71.792 -0.5905E-11  0.8000E+02
     72.057  0.0000E+00  0.8000E+02
     72.322  0.0000E+00  0.8000E+02
     72.587  0.0000E+00  0.8000E+02
     72.852  0.0000E+00  0.8000E+02
     73.117  0.0000E+00  0.8000E+02
     73.382  0.0000E+00  0.8000E+02
     73.647  0.0000E+00  0.8000E+02
     73.912  0.0000E+00  0.8000E+02
     74.177  0.0000E+00  0.8000E+02
