    2    2    1    1
  0.9665104E+01  0.2390000E-09  0.2390000E-09  0.3907600E-09  0.5000000E-15
  1.000000000000000E-004
  CAR 
 unknown system                          
     16    147     40
 
  0.0000000E+00  0.0000000E+00  0.0000000E+00  0.4551661E-03
    1       -1.702016   1.000000
    2        2.258200   1.000000
    3        5.642812   1.000000
    4        5.758546   1.000000
    5        5.758680   1.000000
    6        6.206430   1.000000
    7        6.206577   1.000000
    8        6.784993   1.000001
    9        6.785024   1.000001
   10        7.646316   0.096209
   11        8.288517  -0.000001
   12        8.288551  -0.000001
   13       16.351527   0.000000
   14       30.314967   0.000000
   15       33.710971   0.000000
   16       33.926175   0.000000
   17       35.463921   0.000000
   18       35.463985   0.000000
   19       36.291832   0.000000
   20       36.292095   0.000000
   21       39.823140   0.000000
   22       39.823173   0.000000
   23       41.032190   0.000000
   24       41.212999   0.000000
   25       44.000196   0.000000
   26       44.000215   0.000000
   27       46.278155   0.000000
   28       47.498264   0.000000
   29       47.498688   0.000000
   30       49.425839   0.000000
   31       49.426035   0.000000
   32       53.226566   0.000000
   33       61.876920   0.000000
   34       63.315789   0.000000
   35       63.372255   0.000000
   36       63.373951   0.000000
   37       65.022776   0.000000
   38       66.288711   0.000000
   39       66.290328   0.000000
   40       69.092126   0.000000
 
  0.7692308E-01 -0.1060527E-16  0.0000000E+00  0.2730997E-02
    1       -1.467173   1.000000
    2        2.419510   1.000000
    3        5.414922   1.000000
    4        5.896322   1.000000
    5        5.936992   1.000000
    6        6.135141   1.000000
    7        6.329431   1.000000
    8        6.461011   1.000000
    9        6.694443   1.000000
   10        6.852080   1.000008
   11        8.327837  -0.000000
   12        9.519319  -0.000000
   13       16.362106   0.000000
   14       29.489066   0.000000
   15       32.226700   0.000000
   16       33.188169   0.000000
   17       33.799679   0.000000
   18       35.301047   0.000000
   19       36.694195   0.000000
   20       38.699296   0.000000
   21       39.311903   0.000000
   22       39.523407   0.000000
   23       40.991121   0.000000
   24       41.945527   0.000000
   25       44.601169   0.000000
   26       44.730835   0.000000
   27       45.503164   0.000000
   28       45.678909   0.000000
   29       48.837399   0.000000
   30       50.856944   0.000000
   31       51.368248   0.000000
   32       54.373120   0.000000
   33       61.096615   0.000000
   34       62.716073   0.000000
   35       63.094267   0.000000
   36       63.235166   0.000000
   37       63.959638   0.000000
   38       66.720577   0.000000
   39       67.723739   0.000000
   40       69.016046   0.000000
 
  0.1538462E+00  0.2208815E-16  0.0000000E+00  0.2730997E-02
    1       -0.789982   1.000000
    2        2.832430   1.000000
    3        5.053422   1.000000
    4        5.395129   1.000000
    5        5.884582   1.000000
    6        6.288793   1.000000
    7        6.308638   1.000000
    8        6.467042   1.000000
    9        6.604183   1.000000
   10        6.678035   1.000000
   11        8.411979  -0.000000
   12       11.186131  -0.000000
   13       16.405955   0.000000
   14       26.694813   0.000000
   15       30.732463   0.000000
   16       31.036519   0.000000
   17       32.992757   0.000000
   18       34.161651   0.000000
   19       36.255843   0.000000
   20       38.953087   0.000000
   21       39.645570   0.000000
   22       40.355840   0.000000
   23       40.865095   0.000000
   24       42.746680   0.000000
   25       43.988103   0.000000
   26       44.482061   0.000000
   27       46.544859   0.000000
   28       48.447484   0.000000
   29       51.999869   0.000000
   30       52.914003   0.000000
   31       53.909970   0.000000
   32       56.999763   0.000000
   33       59.588992   0.000000
   34       61.417194   0.000000
   35       61.641753   0.000000
   36       62.654333   0.000000
   37       63.622120   0.000000
   38       67.357865   0.000000
   39       68.811256   0.000000
   40       69.502938   0.000000
 
  0.2307692E+00  0.3229956E-16  0.0000000E+00  0.2730997E-02
    1        0.234465   1.000000
    2        3.227654   1.000000
    3        4.470376   1.000000
    4        4.761495   1.000000
    5        5.700520   1.000000
    6        6.186225   1.000000
    7        6.347183   1.000000
    8        6.814880   1.000002
    9        6.877409   1.000018
   10        7.194752   1.018871
   11        8.494987  -0.000000
   12       13.001720   0.000000
   13       16.502307   0.000000
   14       23.350326   0.000000
   15       28.524902   0.000000
   16       29.981294   0.000000
   17       30.168877   0.000000
   18       33.569679   0.000000
   19       35.877455   0.000000
   20       38.458070   0.000000
   21       38.983644   0.000000
   22       39.846387   0.000000
   23       40.208002   0.000000
   24       43.658463   0.000000
   25       45.837068   0.000000
   26       47.656429   0.000000
   27       49.083662   0.000000
   28       52.284902   0.000000
   29       52.808940   0.000000
   30       56.131134   0.000000
   31       56.799300   0.000000
   32       58.607896   0.000000
   33       59.566245   0.000000
   34       59.976649   0.000000
   35       60.253429   0.000000
   36       61.848021   0.000000
   37       63.920173   0.000000
   38       67.764807   0.000000
   39       68.583231   0.000000
   40       69.287470   0.000000
 
  0.3076923E+00  0.4417630E-16  0.0000000E+00  0.2730997E-02
    1        1.390684   1.000000
    2        3.224920   1.000000
    3        3.761715   1.000000
    4        4.769382   1.000000
    5        5.764084   1.000000
    6        5.919983   1.000000
    7        6.087750   1.000000
    8        7.553371   0.415438
    9        7.576347   0.322347
   10        7.784199  -0.035326
   11        8.553748  -0.000000
   12       14.924632   0.000000
   13       16.498812   0.000000
   14       20.416254   0.000000
   15       26.657742   0.000000
   16       27.154666   0.000000
   17       28.637047   0.000000
   18       32.597795   0.000000
   19       34.258451   0.000000
   20       37.978393   0.000000
   21       38.110611   0.000000
   22       39.856188   0.000000
   23       41.503547   0.000000
   24       44.518326   0.000000
   25       48.987967   0.000000
   26       51.064152   0.000000
   27       52.187480   0.000000
   28       53.852613   0.000000
   29       55.170316   0.000000
   30       56.212963   0.000000
   31       57.187438   0.000000
   32       58.764130   0.000000
   33       60.045995   0.000000
   34       60.975097   0.000000
   35       61.411875   0.000000
   36       63.578685   0.000000
   37       63.806214   0.000000
   38       67.805804   0.000000
   39       68.108287   0.000000
   40       68.853709   0.000000
 
  0.3846154E+00  0.1275434E-16  0.0000000E+00  0.2730997E-02
    1        2.279116   1.000000
    2        2.990822   1.000000
    3        3.283630   1.000000
    4        5.047820   1.000000
    5        5.716005   1.000000
    6        5.878839   1.000000
    7        6.039402   1.000000
    8        8.145216  -0.000067
    9        8.327657  -0.000000
   10        8.587511  -0.000000
   11        8.672662  -0.000000
   12       15.341286   0.000000
   13       16.894054   0.000000
   14       19.257221   0.000000
   15       24.614690   0.000000
   16       25.256005   0.000000
   17       26.423920   0.000000
   18       31.706805   0.000000
   19       33.419344   0.000000
   20       36.510654   0.000000
   21       37.866367   0.000000
   22       40.633101   0.000000
   23       43.617349   0.000000
   24       45.056114   0.000000
   25       52.114929   0.000000
   26       52.456299   0.000000
   27       52.792511   0.000000
   28       55.784124   0.000000
   29       56.427242   0.000000
   30       57.009589   0.000000
   31       59.450149   0.000000
   32       59.822011   0.000000
   33       60.394265   0.000000
   34       60.754223   0.000000
   35       62.169330   0.000000
   36       64.220086   0.000000
   37       66.906571   0.000000
   38       67.192006   0.000000
   39       67.197540   0.000000
   40       67.600113   0.000000
 
  0.4615385E+00  0.5340961E-17  0.0000000E+00  0.2730997E-02
    1        2.622602   1.000000
    2        2.840871   1.000000
    3        3.043018   1.000000
    4        5.438838   1.000000
    5        5.606438   1.000000
    6        5.763710   1.000000
    7        6.223288   1.000000
    8        8.480361  -0.000000
    9        8.601790  -0.000000
   10        8.676823  -0.000000
   11       10.060223  -0.000000
   12       13.262823   0.000000
   13       18.650471   0.000000
   14       19.765684   0.000000
   15       22.594257   0.000000
   16       24.490123   0.000000
   17       24.535366   0.000000
   18       31.209860   0.000000
   19       33.126618   0.000000
   20       35.719610   0.000000
   21       37.756946   0.000000
   22       41.105747   0.000000
   23       45.047962   0.000000
   24       46.025674   0.000000
   25       49.696100   0.000000
   26       53.848816   0.000000
   27       54.366435   0.000000
   28       57.017947   0.000000
   29       57.971073   0.000000
   30       59.761903   0.000000
   31       59.766547   0.000000
   32       60.698321   0.000000
   33       60.736178   0.000000
   34       62.837685   0.000000
   35       63.412637   0.000000
   36       63.871218   0.000000
   37       65.852520   0.000000
   38       65.970016   0.000000
   39       66.269417   0.000000
   40       67.038757   0.000000
 
  0.7692308E-01  0.7692308E-01  0.0000000E+00  0.2730997E-02
    1       -1.010296   1.000000
    2        2.711743   1.000000
    3        5.140479   1.000000
    4        5.697227   1.000000
    5        5.991916   1.000000
    6        6.124184   1.000000
    7        6.177467   1.000000
    8        6.414743   1.000000
    9        6.594659   1.000000
   10        6.775309   1.000001
   11        8.376958  -0.000000
   12       10.726412  -0.000000
   13       16.391897   0.000000
   14       27.952188   0.000000
   15       29.485828   0.000000
   16       33.742791   0.000000
   17       33.788782   0.000000
   18       34.298341   0.000000
   19       34.765819   0.000000
   20       38.375981   0.000000
   21       40.274298   0.000000
   22       40.961518   0.000000
   23       41.782618   0.000000
   24       42.567668   0.000000
   25       43.859352   0.000000
   26       43.947810   0.000000
   27       44.445559   0.000000
   28       48.528877   0.000000
   29       51.580661   0.000000
   30       52.396477   0.000000
   31       52.581984   0.000000
   32       56.323118   0.000000
   33       60.005419   0.000000
   34       62.007801   0.000000
   35       62.484974   0.000000
   36       62.644083   0.000000
   37       63.174261   0.000000
   38       67.424084   0.000000
   39       68.876594   0.000000
   40       69.219189   0.000000
 
  0.1538462E+00  0.7692308E-01  0.0000000E+00  0.5461994E-02
    1       -0.152052   1.000000
    2        3.158491   1.000000
    3        4.764718   1.000000
    4        4.805854   1.000000
    5        5.792584   1.000000
    6        6.101591   1.000000
    7        6.446617   1.000000
    8        6.611517   1.000000
    9        6.699375   1.000000
   10        7.098685   1.004396
   11        8.438595  -0.000000
   12       12.356011  -0.000000
   13       16.477490   0.000000
   14       25.048106   0.000000
   15       27.320311   0.000000
   16       31.400033   0.000000
   17       32.681496   0.000000
   18       33.258181   0.000000
   19       35.473449   0.000000
   20       37.924086   0.000000
   21       38.397617   0.000000
   22       42.066071   0.000000
   23       42.177021   0.000000
   24       42.564813   0.000000
   25       44.782444   0.000000
   26       45.890525   0.000000
   27       45.964316   0.000000
   28       52.448753   0.000000
   29       53.161639   0.000000
   30       54.769551   0.000000
   31       55.416802   0.000000
   32       58.738206   0.000000
   33       58.980407   0.000000
   34       60.403728   0.000000
   35       60.913998   0.000000
   36       61.808736   0.000000
   37       63.452077   0.000000
   38       68.101112   0.000000
   39       68.562437   0.000000
   40       68.963030   0.000000
 
  0.2307692E+00  0.7692308E-01  0.0000000E+00  0.5461994E-02
    1        0.967663   1.000000
    2        3.394903   1.000000
    3        4.052919   1.000000
    4        4.568907   1.000000
    5        5.714989   1.000000
    6        5.827418   1.000000
    7        6.352204   1.000000
    8        6.951495   1.000154
    9        7.358870   1.006248
   10        7.768708  -0.035086
   11        8.492158  -0.000000
   12       14.180732   0.000000
   13       16.619493   0.000000
   14       21.822528   0.000000
   15       25.698770   0.000000
   16       28.569047   0.000000
   17       30.686354   0.000000
   18       32.180070   0.000000
   19       35.574429   0.000000
   20       36.488547   0.000000
   21       38.422349   0.000000
   22       41.944612   0.000000
   23       42.060517   0.000000
   24       43.502892   0.000000
   25       46.719763   0.000000
   26       48.833277   0.000000
   27       50.063926   0.000000
   28       53.331245   0.000000
   29       56.072832   0.000000
   30       56.763672   0.000000
   31       56.940905   0.000000
   32       58.760924   0.000000
   33       59.708838   0.000000
   34       60.805472   0.000000
   35       61.202009   0.000000
   36       61.498318   0.000000
   37       63.380324   0.000000
   38       67.748513   0.000000
   39       68.034807   0.000000
   40       69.486271   0.000000
 
  0.3076923E+00  0.7692308E-01  0.0000000E+00  0.5461994E-02
    1        2.045786   1.000000
    2        3.217828   1.000000
    3        3.497170   1.000000
    4        4.715863   1.000000
    5        5.633473   1.000000
    6        5.909811   1.000000
    7        6.068808   1.000000
    8        7.625821   0.151051
    9        7.990844  -0.002833
   10        8.526963  -0.000000
   11        8.589789  -0.000000
   12       16.119061   0.000000
   13       16.313855   0.000000
   14       19.528012   0.000000
   15       24.313803   0.000000
   16       25.938688   0.000000
   17       28.159552   0.000000
   18       31.141044   0.000000
   19       34.975937   0.000000
   20       35.248985   0.000000
   21       38.775662   0.000000
   22       42.192770   0.000000
   23       43.044817   0.000000
   24       44.871298   0.000000
   25       48.790012   0.000000
   26       52.096075   0.000000
   27       53.588077   0.000000
   28       54.145912   0.000000
   29       54.214279   0.000000
   30       57.616045   0.000000
   31       59.449724   0.000000
   32       59.471414   0.000000
   33       60.271042   0.000000
   34       60.523521   0.000000
   35       61.720134   0.000000
   36       63.590489   0.000000
   37       66.039032   0.000000
   38       67.157708   0.000000
   39       67.370958   0.000000
   40       68.866919   0.000000
 
  0.3846154E+00  0.7692308E-01  0.0000000E+00  0.5461994E-02
    1        2.654566   1.000000
    2        2.998676   1.000000
    3        3.158505   1.000000
    4        5.097053   1.000000
    5        5.545224   1.000000
    6        5.831087   1.000000
    7        6.167926   1.000000
    8        8.264188  -0.000002
    9        8.433704  -0.000000
   10        8.544701  -0.000000
   11        9.689453  -0.000000
   12       14.452950   0.000000
   13       18.055372   0.000000
   14       19.527671   0.000000
   15       23.284206   0.000000
   16       23.608907   0.000000
   17       25.799168   0.000000
   18       30.448003   0.000000
   19       34.370394   0.000000
   20       34.619474   0.000000
   21       38.806988   0.000000
   22       42.555092   0.000000
   23       45.101317   0.000000
   24       45.197269   0.000000
   25       51.213448   0.000000
   26       51.361916   0.000000
   27       54.040686   0.000000
   28       55.599180   0.000000
   29       56.694465   0.000000
   30       58.139208   0.000000
   31       59.528295   0.000000
   32       59.881252   0.000000
   33       60.964439   0.000000
   34       62.908336   0.000000
   35       63.093204   0.000000
   36       64.454106   0.000000
   37       65.254394   0.000000
   38       66.800197   0.000000
   39       67.610607   0.000000
   40       68.143741   0.000000
 
  0.4615385E+00  0.7692308E-01  0.0000000E+00  0.2730997E-02
    1        2.768839   1.000000
    2        2.945930   1.000000
    3        3.044816   1.000000
    4        5.338648   1.000000
    5        5.537216   1.000000
    6        5.723664   1.000000
    7        6.266925   1.000000
    8        8.521156  -0.000000
    9        8.549858  -0.000000
   10        8.584777  -0.000000
   11       10.700855  -0.000000
   12       12.953368  -0.000000
   13       19.259392   0.000000
   14       20.077572   0.000000
   15       22.274476   0.000000
   16       22.799295   0.000000
   17       24.715148   0.000000
   18       30.206845   0.000000
   19       34.071475   0.000000
   20       34.491012   0.000000
   21       38.791056   0.000000
   22       42.770513   0.000000
   23       45.070173   0.000000
   24       46.822778   0.000000
   25       49.276818   0.000000
   26       53.548113   0.000000
   27       53.604119   0.000000
   28       57.097035   0.000000
   29       57.391043   0.000000
   30       57.613777   0.000000
   31       60.639417   0.000000
   32       60.910962   0.000000
   33       60.993119   0.000000
   34       61.350495   0.000000
   35       64.122644   0.000000
   36       65.940471   0.000000
   37       66.103227   0.000000
   38       66.458738   0.000000
   39       66.468124   0.000000
   40       68.467987   0.000000
 
  0.1538462E+00  0.1538462E+00  0.0000000E+00  0.2730997E-02
    1        0.822633   1.000000
    2        3.551640   1.000000
    3        4.196818   1.000000
    4        4.368298   1.000000
    5        5.729462   1.000000
    6        5.744052   1.000000
    7        6.497193   1.000000
    8        6.663005   1.000000
    9        7.326852   1.028147
   10        7.785590  -0.035259
   11        8.439531  -0.000000
   12       13.930166   0.000000
   13       16.665519   0.000000
   14       23.245912   0.000000
   15       24.125798   0.000000
   16       29.572970   0.000000
   17       31.329755   0.000000
   18       32.849427   0.000000
   19       33.641300   0.000000
   20       38.087934   0.000000
   21       38.377262   0.000000
   22       41.659822   0.000000
   23       43.724705   0.000000
   24       44.660715   0.000000
   25       45.163605   0.000000
   26       46.388205   0.000000
   27       48.519398   0.000000
   28       53.923253   0.000000
   29       56.304229   0.000000
   30       56.974367   0.000000
   31       57.376428   0.000000
   32       59.141518   0.000000
   33       59.349465   0.000000
   34       60.036490   0.000000
   35       60.573568   0.000000
   36       61.592641   0.000000
   37       62.903699   0.000000
   38       67.787020   0.000000
   39       67.976168   0.000000
   40       69.481610   0.000000
 
  0.2307692E+00  0.1538462E+00  0.0000000E+00  0.5461994E-02
    1        1.946139   1.000000
    2        3.627984   1.000000
    3        3.687467   1.000000
    4        4.222323   1.000000
    5        5.475828   1.000000
    6        5.850507   1.000000
    7        6.247236   1.000000
    8        7.063657   1.002222
    9        7.969241  -0.004286
   10        8.435980  -0.000000
   11        8.651348  -0.000000
   12       15.741174   0.000000
   13       16.914601   0.000000
   14       20.505263   0.000000
   15       22.455875   0.000000
   16       27.383453   0.000000
   17       29.740235   0.000000
   18       30.204607   0.000000
   19       32.723916   0.000000
   20       38.095542   0.000000
   21       39.581411   0.000000
   22       43.083788   0.000000
   23       44.169607   0.000000
   24       44.590343   0.000000
   25       47.740363   0.000000
   26       48.001715   0.000000
   27       50.890618   0.000000
   28       54.934799   0.000000
   29       55.818898   0.000000
   30       57.728747   0.000000
   31       58.231465   0.000000
   32       59.635394   0.000000
   33       60.298557   0.000000
   34       61.626934   0.000000
   35       61.879883   0.000000
   36       63.040068   0.000000
   37       64.025777   0.000000
   38       66.896854   0.000000
   39       67.479557   0.000000
   40       70.133431   0.000000
 
  0.3076923E+00  0.1538462E+00  0.0000000E+00  0.5461994E-02
    1        2.825839   1.000000
    2        3.330693   1.000000
    3        3.361026   1.000000
    4        4.496579   1.000000
    5        5.366382   1.000000
    6        5.944893   1.000000
    7        6.112385   1.000000
    8        7.620813   0.166017
    9        8.407398  -0.000000
   10        8.431230  -0.000000
   11        9.715840  -0.000000
   12       16.022170   0.000000
   13       17.683491   0.000000
   14       19.297688   0.000000
   15       21.384805   0.000000
   16       25.027858   0.000000
   17       27.384233   0.000000
   18       28.782897   0.000000
   19       31.913967   0.000000
   20       37.769968   0.000000
   21       40.604908   0.000000
   22       44.163688   0.000000
   23       45.208588   0.000000
   24       45.973680   0.000000
   25       48.030753   0.000000
   26       51.079625   0.000000
   27       52.465071   0.000000
   28       53.341017   0.000000
   29       56.740851   0.000000
   30       57.698036   0.000000
   31       58.433438   0.000000
   32       59.126583   0.000000
   33       61.098343   0.000000
   34       62.334300   0.000000
   35       63.825717   0.000000
   36       64.579643   0.000000
   37       65.309510   0.000000
   38       67.368606   0.000000
   39       68.507794   0.000000
   40       68.740882   0.000000
 
  0.3846154E+00  0.1538462E+00  0.0000000E+00  0.5461994E-02
    1        3.098921   1.000000
    2        3.148439   1.000000
    3        3.241883   1.000000
    4        4.871671   1.000000
    5        5.387591   1.000000
    6        5.694093   1.000000
    7        6.311171   1.000000
    8        8.159368  -0.000044
    9        8.427047  -0.000000
   10        8.511329  -0.000000
   11       11.013241  -0.000000
   12       13.925845   0.000000
   13       19.518802   0.000000
   14       20.055459   0.000000
   15       20.721907   0.000000
   16       22.966157   0.000000
   17       25.311888   0.000000
   18       28.321071   0.000000
   19       31.436045   0.000000
   20       37.553994   0.000000
   21       41.004492   0.000000
   22       44.880283   0.000000
   23       45.808539   0.000000
   24       46.706699   0.000000
   25       50.569649   0.000000
   26       50.694357   0.000000
   27       52.853493   0.000000
   28       53.812631   0.000000
   29       56.250200   0.000000
   30       57.261452   0.000000
   31       57.982173   0.000000
   32       60.549933   0.000000
   33       61.063883   0.000000
   34       61.413872   0.000000
   35       64.884365   0.000000
   36       65.915818   0.000000
   37       67.349892   0.000000
   38       67.557310   0.000000
   39       67.723324   0.000000
   40       69.795660   0.000000
 
  0.2307692E+00  0.2307692E+00  0.0000000E+00  0.2730997E-02
    1        2.940079   1.000000
    2        3.420984   1.000000
    3        3.864567   1.000000
    4        3.879729   1.000000
    5        5.267195   1.000000
    6        5.999912   1.000000
    7        6.096603   1.000000
    8        7.314540   1.032316
    9        8.372109  -0.000000
   10        8.411965  -0.000000
   11        9.756227  -0.000000
   12       17.184677   0.000000
   13       17.561547   0.000000
   14       18.857377   0.000000
   15       20.423681   0.000000
   16       26.304896   0.000000
   17       27.390185   0.000000
   18       29.012974   0.000000
   19       29.931587   0.000000
   20       40.362659   0.000000
   21       41.298749   0.000000
   22       43.376120   0.000000
   23       45.286165   0.000000
   24       47.048453   0.000000
   25       47.826630   0.000000
   26       49.578202   0.000000
   27       49.880212   0.000000
   28       55.011371   0.000000
   29       55.966909   0.000000
   30       57.540618   0.000000
   31       57.568425   0.000000
   32       59.254487   0.000000
   33       61.203366   0.000000
   34       62.054506   0.000000
   35       63.921300   0.000000
   36       64.254692   0.000000
   37       66.347256   0.000000
   38       67.795982   0.000000
   39       67.962491   0.000000
   40       68.611733   0.000000
 
  0.3076923E+00  0.2307692E+00  0.0000000E+00  0.5461994E-02
    1        3.263078   1.000000
    2        3.495000   1.000000
    3        3.622017   1.000000
    4        4.244308   1.000000
    5        5.229019   1.000000
    6        5.702035   1.000000
    7        6.359836   1.000000
    8        7.712241  -0.010492
    9        8.326850  -0.000000
   10        8.504823  -0.000000
   11       11.140400  -0.000000
   12       15.669586   0.000000
   13       17.886504   0.000000
   14       19.528298   0.000000
   15       20.609152   0.000000
   16       24.433165   0.000000
   17       26.336731   0.000000
   18       26.665606   0.000000
   19       28.974056   0.000000
   20       40.938930   0.000000
   21       42.953709   0.000000
   22       44.859016   0.000000
   23       47.221247   0.000000
   24       47.275058   0.000000
   25       48.249250   0.000000
   26       50.011950   0.000000
   27       51.470529   0.000000
   28       53.065971   0.000000
   29       55.488696   0.000000
   30       55.760113   0.000000
   31       57.467653   0.000000
   32       59.867612   0.000000
   33       60.873311   0.000000
   34       61.625873   0.000000
   35       64.563294   0.000000
   36       65.937744   0.000000
   37       66.822026   0.000000
   38       68.324649   0.000000
   39       69.023769   0.000000
   40       70.051864   0.000000
 
  0.3846154E+00  0.2307692E+00  0.0000000E+00  0.2730997E-02
    1        3.211047   1.000000
    2        3.526998   1.000000
    3        3.601340   1.000000
    4        4.485566   1.000000
    5        5.288402   1.000000
    6        5.519231   1.000000
    7        6.471284   1.000000
    8        8.039539  -0.001006
    9        8.310609  -0.000000
   10        8.361055  -0.000000
   11       12.390577  -0.000000
   12       13.991945   0.000000
   13       17.755618   0.000000
   14       20.990088   0.000000
   15       21.221636   0.000000
   16       22.870002   0.000000
   17       25.365703   0.000000
   18       26.113389   0.000000
   19       28.725963   0.000000
   20       40.938978   0.000000
   21       43.657713   0.000000
   22       45.496169   0.000000
   23       47.493062   0.000000
   24       47.557297   0.000000
   25       49.823813   0.000000
   26       51.191338   0.000000
   27       51.326055   0.000000
   28       51.560349   0.000000
   29       53.642801   0.000000
   30       56.447891   0.000000
   31       57.474352   0.000000
   32       58.655573   0.000000
   33       60.868993   0.000000
   34       61.455315   0.000000
   35       66.107599   0.000000
   36       66.134177   0.000000
   37       67.708396   0.000000
   38       68.783411   0.000000
   39       68.990100   0.000000
   40       69.978353   0.000000
 
  0.3076923E+00  0.3076923E+00  0.0000000E+00  0.2730997E-02
    1        3.251762   1.000000
    2        3.754805   1.000000
    3        3.912502   1.000000
    4        4.113745   1.000000
    5        5.247590   1.000000
    6        5.442931   1.000000
    7        6.566435   1.000000
    8        7.930980  -0.008295
    9        8.262880  -0.000002
   10        8.287594  -0.000001
   11       12.877778  -0.000000
   12       15.342716   0.000000
   13       15.504718   0.000000
   14       21.550026   0.000000
   15       21.641902   0.000000
   16       23.841613   0.000000
   17       24.298282   0.000000
   18       26.148140   0.000000
   19       26.926877   0.000000
   20       42.970701   0.000000
   21       45.440038   0.000000
   22       46.098852   0.000000
   23       47.451277   0.000000
   24       47.906481   0.000000
   25       48.675928   0.000000
   26       49.098808   0.000000
   27       51.492712   0.000000
   28       52.296836   0.000000
   29       52.704246   0.000000
   30       55.288905   0.000000
   31       57.754323   0.000000
   32       57.808172   0.000000
   33       60.795110   0.000000
   34       61.448212   0.000000
   35       66.175088   0.000000
   36       66.413304   0.000000
   37       67.007548   0.000000
   38       68.681391   0.000000
   39       69.362404   0.000000
   40       69.864402   0.000000
 
  0.0000000E+00  0.0000000E+00  0.7692308E-01  0.9103323E-03
    1       -1.635728   1.000000
    2        2.248954   1.000000
    3        5.619762   1.000000
    4        5.737823   1.000000
    5        5.737954   1.000000
    6        6.183716   1.000000
    7        6.183861   1.000000
    8        6.835636   1.000005
    9        6.835670   1.000005
   10        7.440115   0.850739
   11        8.285289  -0.000001
   12        8.285325  -0.000001
   13       16.671544   0.000000
   14       30.258951   0.000000
   15       33.404714   0.000000
   16       33.768881   0.000000
   17       35.508920   0.000000
   18       35.508979   0.000000
   19       36.304027   0.000000
   20       36.304284   0.000000
   21       39.733073   0.000000