Automatically generated mesh
     147
Reciprocal lattice
    0.00000000000000    0.00000000000000    0.00000000000000             1
    0.07692307692308   -0.00000000000000    0.00000000000000             6
    0.15384615384615    0.00000000000000    0.00000000000000             6
    0.23076923076923    0.00000000000000    0.00000000000000             6
    0.30769230769231    0.00000000000000    0.00000000000000             6
    0.38461538461539    0.00000000000000    0.00000000000000             6
    0.46153846153846    0.00000000000000    0.00000000000000             6
    0.07692307692308    0.07692307692308    0.00000000000000             6
    0.15384615384615    0.07692307692308    0.00000000000000            12
    0.23076923076923    0.07692307692308    0.00000000000000            12
    0.30769230769231    0.07692307692308    0.00000000000000            12
    0.38461538461539    0.07692307692308    0.00000000000000            12
    0.46153846153846    0.07692307692308    0.00000000000000             6
    0.15384615384615    0.15384615384615    0.00000000000000             6
    0.23076923076923    0.15384615384615    0.00000000000000            12
    0.30769230769231    0.15384615384615    0.00000000000000            12
    0.38461538461539    0.15384615384615    0.00000000000000            12
    0.23076923076923    0.23076923076923    0.00000000000000             6
    0.30769230769231    0.23076923076923    0.00000000000000            12
    0.38461538461539    0.23076923076923    0.00000000000000             6
    0.30769230769231    0.30769230769231    0.00000000000000             6
    0.00000000000000    0.00000000000000    0.07692307692308             2
    0.07692307692308   -0.00000000000000    0.07692307692308            12
    0.15384615384615    0.00000000000000    0.07692307692308            12
    0.23076923076923    0.00000000000000    0.07692307692308            12
    0.30769230769231    0.00000000000000    0.07692307692308            12
    0.38461538461539    0.00000000000000    0.07692307692308            12
    0.46153846153846    0.00000000000000    0.07692307692308            12
    0.07692307692308    0.07692307692308    0.07692307692308            12
    0.15384615384615    0.07692307692308    0.07692307692308            24
    0.23076923076923    0.07692307692308    0.07692307692308            24
    0.30769230769231    0.07692307692308    0.07692307692308            24
    0.38461538461539    0.07692307692308    0.07692307692308            24
    0.46153846153846    0.07692307692308    0.07692307692308            12
    0.15384615384615    0.15384615384615    0.07692307692308            12
    0.23076923076923    0.15384615384615    0.07692307692308            24
    0.30769230769231    0.15384615384615    0.07692307692308            24
    0.38461538461539    0.15384615384615    0.07692307692308            24
    0.23076923076923    0.23076923076923    0.07692307692308            12
    0.30769230769231    0.23076923076923    0.07692307692308            24
    0.38461538461539    0.23076923076923    0.07692307692308            12
    0.30769230769231    0.30769230769231    0.07692307692308            12
    0.00000000000000    0.00000000000000    0.15384615384615             2
    0.07692307692308   -0.00000000000000    0.15384615384615            12
    0.15384615384615    0.00000000000000    0.15384615384615            12
    0.23076923076923    0.00000000000000    0.15384615384615            12
    0.30769230769231    0.00000000000000    0.15384615384615            12
    0.38461538461539    0.00000000000000    0.15384615384615            12
    0.46153846153846    0.00000000000000    0.15384615384615            12
    0.07692307692308    0.07692307692308    0.15384615384615            12
    0.15384615384615    0.07692307692308    0.15384615384615            24
    0.23076923076923    0.07692307692308    0.15384615384615            24
    0.30769230769231    0.07692307692308    0.15384615384615            24
    0.38461538461539    0.07692307692308    0.15384615384615            24
    0.46153846153846    0.07692307692308    0.15384615384615            12
    0.15384615384615    0.15384615384615    0.15384615384615            12
    0.23076923076923    0.15384615384615    0.15384615384615            24
    0.30769230769231    0.15384615384615    0.15384615384615            24
    0.38461538461539    0.15384615384615    0.15384615384615            24
    0.23076923076923    0.23076923076923    0.15384615384615            12
    0.30769230769231    0.23076923076923    0.15384615384615            24
    0.38461538461539    0.23076923076923    0.15384615384615            12
    0.30769230769231    0.30769230769231    0.15384615384615            12
    0.00000000000000    0.00000000000000    0.23076923076923             2
    0.07692307692308   -0.00000000000000    0.23076923076923            12
    0.15384615384615    0.00000000000000    0.23076923076923            12
    0.23076923076923    0.00000000000000    0.23076923076923            12
    0.30769230769231    0.00000000000000    0.23076923076923            12
    0.38461538461539    0.00000000000000    0.23076923076923            12
    0.46153846153846    0.00000000000000    0.23076923076923            12
    0.07692307692308    0.07692307692308    0.23076923076923            12
    0.15384615384615    0.07692307692308    0.23076923076923            24
    0.23076923076923    0.07692307692308    0.23076923076923            24
    0.30769230769231    0.07692307692308    0.23076923076923            24
    0.38461538461539    0.07692307692308    0.23076923076923            24
    0.46153846153846    0.07692307692308    0.23076923076923            12
    0.15384615384615    0.15384615384615    0.23076923076923            12
    0.23076923076923    0.15384615384615    0.23076923076923            24
    0.30769230769231    0.15384615384615    0.23076923076923            24
    0.38461538461539    0.15384615384615    0.23076923076923            24
    0.23076923076923    0.23076923076923    0.23076923076923            12
    0.30769230769231    0.23076923076923    0.23076923076923            24
    0.38461538461539    0.23076923076923    0.23076923076923            12
    0.30769230769231    0.30769230769231    0.23076923076923            12
    0.00000000000000    0.00000000000000    0.30769230769231             2
    0.07692307692308   -0.00000000000000    0.30769230769231            12
    0.15384615384615    0.00000000000000    0.30769230769231            12
    0.23076923076923    0.00000000000000    0.30769230769231            12
    0.30769230769231    0.00000000000000    0.30769230769231            12
    0.38461538461539    0.00000000000000    0.30769230769231            12
    0.46153846153846    0.00000000000000    0.30769230769231            12
    0.07692307692308    0.07692307692308    0.30769230769231            12
    0.15384615384615    0.07692307692308    0.30769230769231            24
    0.23076923076923    0.07692307692308    0.30769230769231            24
    0.30769230769231    0.07692307692308    0.30769230769231            24
    0.38461538461539    0.07692307692308    0.30769230769231            24
    0.46153846153846    0.07692307692308    0.30769230769231            12
    0.15384615384615    0.15384615384615    0.30769230769231            12
    0.23076923076923    0.15384615384615    0.30769230769231            24
    0.30769230769231    0.15384615384615    0.30769230769231            24
    0.38461538461539    0.15384615384615    0.30769230769231            24
    0.23076923076923    0.23076923076923    0.30769230769231            12
    0.30769230769231    0.23076923076923    0.30769230769231            24
    0.38461538461539    0.23076923076923    0.30769230769231            12
    0.30769230769231    0.30769230769231    0.30769230769231            12
    0.00000000000000    0.00000000000000    0.38461538461539             2
    0.07692307692308   -0.00000000000000    0.38461538461539            12
    0.15384615384615    0.00000000000000    0.38461538461539            12
    0.23076923076923    0.00000000000000    0.38461538461539            12
    0.30769230769231    0.00000000000000    0.38461538461539            12
    0.38461538461539    0.00000000000000    0.38461538461539            12
    0.46153846153846    0.00000000000000    0.38461538461539            12
    0.07692307692308    0.07692307692308    0.38461538461539            12
    0.15384615384615    0.07692307692308    0.38461538461539            24
    0.23076923076923    0.07692307692308    0.38461538461539            24
    0.30769230769231    0.07692307692308    0.38461538461539            24
    0.38461538461539    0.07692307692308    0.38461538461539            24
    0.46153846153846    0.07692307692308    0.38461538461539            12
    0.15384615384615    0.15384615384615    0.38461538461539            12
    0.23076923076923    0.15384615384615    0.38461538461539            24
    0.30769230769231    0.15384615384615    0.38461538461539            24
    0.38461538461539    0.15384615384615    0.38461538461539            24
    0.23076923076923    0.23076923076923    0.38461538461539            12
    0.30769230769231    0.23076923076923    0.38461538461539            24
    0.38461538461539    0.23076923076923    0.38461538461539            12
    0.30769230769231    0.30769230769231    0.38461538461539            12
    0.00000000000000    0.00000000000000    0.46153846153846             2
    0.07692307692308   -0.00000000000000    0.46153846153846            12
    0.15384615384615    0.00000000000000    0.46153846153846            12
    0.23076923076923    0.00000000000000    0.46153846153846            12
    0.30769230769231    0.00000000000000    0.46153846153846            12
    0.38461538461539    0.00000000000000    0.46153846153846            12
    0.46153846153846    0.00000000000000    0.46153846153846            12
    0.07692307692308    0.07692307692308    0.46153846153846            12
    0.15384615384615    0.07692307692308    0.46153846153846            24
    0.23076923076923    0.07692307692308    0.46153846153846            24
    0.30769230769231    0.07692307692308    0.46153846153846            24
    0.38461538461539    0.07692307692308    0.46153846153846            24
    0.46153846153846    0.07692307692308    0.46153846153846            12
    0.15384615384615    0.15384615384615    0.46153846153846            12
    0.23076923076923    0.15384615384615    0.46153846153846            24
    0.30769230769231    0.15384615384615    0.46153846153846            24
    0.38461538461539    0.15384615384615    0.46153846153846            24
    0.23076923076923    0.23076923076923    0.46153846153846            12
    0.30769230769231    0.23076923076923    0.46153846153846            24
    0.38461538461539    0.23076923076923    0.46153846153846            12
    0.30769230769231    0.30769230769231    0.46153846153846            12
