unknown system                          
           1
     2.390000    0.000000    0.000000
    -1.195000    2.069801    0.000000
     0.000000    0.000000    3.907600
   Fe
     2
Direct configuration=     1
   0.00000000  0.00000000  0.00000000
   0.33333333  0.66666667  0.50000000
