unknown system                          
   1.00000000000000     
     3.556291    0.000000    0.000000
     0.000000    3.556291    0.000000
     0.000000    0.000000    3.556291
   Fe
     4
Direct
  0.000000  0.000000  0.000000
  0.500000  0.500000  0.000000
  0.500000  0.000000  0.500000
  0.000000  0.500000  0.500000
 
   32   32   32
  378.71      360.52      311.26      244.02      173.55      111.47      64.595      35.125      20.834      15.697    
  13.022      11.207      10.088      9.4308      9.0209      8.7520      8.6496      8.7520      9.0209      9.4308    
  10.088      11.207      13.022      15.697      20.834      35.125      64.595      111.47      173.55      244.02    
  311.26      360.52      360.52      343.20      296.26      232.15      164.96      105.86      61.411      33.682    
  20.398      15.617      13.009      11.246      10.158      9.5161      9.1147      8.8519      8.7520      8.8519    
  9.1147      9.5161      10.158      11.246      13.009      15.617      20.398      33.682      61.411      105.86    
  164.96      232.15      296.26      343.20      311.26      296.26      255.57      199.94      141.70      90.742    
  52.938      29.936      19.315      15.388      12.973      11.353      10.348      9.7459      9.3638      9.1147    
  9.0209      9.1147      9.3638      9.7459      10.348      11.353      12.973      15.388      19.315      29.936    
  52.938      90.742      141.70      199.94      255.57      296.26      244.02      232.15      199.94      155.93    
  110.07      70.476      41.897      25.309      18.082      15.052      12.935      11.527      10.644      10.100    
  9.7459      9.5161      9.4308      9.5161      9.7459      10.100      10.644      11.527      12.935      15.052    
  18.082      25.309      41.897      70.476      110.07      155.93      199.94      232.15      173.55      164.96    
  141.70      110.07      77.535      50.201      31.406      21.291      17.072      14.677      12.947      11.810    
  11.094      10.644      10.348      10.158      10.088      10.158      10.348      10.644      11.094      11.810    
  12.947      14.677      17.072      21.291      31.406      50.201      77.535      110.07      141.70      164.96    
  111.47      105.86      90.742      70.476      50.201      33.985      23.695      18.671      16.209      14.362    
  13.090      12.290      11.810      11.527      11.353      11.246      11.207      11.246      11.353      11.527    
  11.810      12.290      13.090      14.362      16.209      18.671      23.695      33.985      50.201      70.476    
  90.742      105.86      64.595      61.411      52.938      41.897      31.406      23.695      19.331      17.113    
  15.434      14.219      13.473      13.090      12.947      12.935      12.973      13.009      13.022      13.009    
  12.973      12.935      12.947      13.090      13.473      14.219      15.434      17.113      19.331      23.695    
  31.406      41.897      52.938      61.411      35.125      33.682      29.936      25.309      21.291      18.671    
  17.113      15.838      14.894      14.364      14.219      14.362      14.677      15.052      15.388      15.617    
  15.697      15.617      15.388      15.052      14.677      14.362      14.219      14.364      14.894      15.838    
  17.113      18.671      21.291      25.309      29.936      33.682      20.834      20.398      19.315      18.082    
  17.072      16.209      15.434      14.894      14.700      14.894      15.434      16.209      17.072      18.082    
  19.315      20.398      20.834      20.398      19.315      18.082      17.072      16.209      15.434      14.894    
  14.700      14.894      15.434      16.209      17.072      18.082      19.315      20.398      15.697      15.617    
  15.388      15.052      14.677      14.362      14.219      14.364      14.894      15.838      17.113      18.671    
  21.291      25.309      29.936      33.682      35.125      33.682      29.936      25.309      21.291      18.671    
  17.113      15.838      14.894      14.364      14.219      14.362      14.677      15.052      15.388      15.617    
  13.022      13.009      12.973      12.935      12.947      13.090      13.473      14.219      15.434      17.113    
  19.331      23.695      31.406      41.897      52.938      61.411      64.595      61.411      52.938      41.897    
  31.406      23.695      19.331      17.113      15.434      14.219      13.473      13.090      12.947      12.935    
  12.973      13.009      11.207      11.246      11.353      11.527      11.810      12.290      13.090      14.362    
  16.209      18.671      23.695      33.985      50.201      70.476      90.742      105.86      111.47      105.86    
  90.742      70.476      50.201      33.985      23.695      18.671      16.209      14.362      13.090      12.290    
  11.810      11.527      11.353      11.246      10.088      10.158      10.348      10.644      11.094      11.810    
  12.947      14.677      17.072      21.291      31.406      50.201      77.535      110.07      141.70      164.96    
  173.55      164.96      141.70      110.07      77.535      50.201      31.406      21.291      17.072      14.677    
  12.947      11.810      11.094      10.644      10.348      10.158      9.4308      9.5161      9.7459      10.100    
  10.644      11.527      12.935      15.052      18.082      25.309      41.897      70.476      110.07      155.93    
  199.94      232.15      244.02      232.15      199.94      155.93      110.07      70.476      41.897      25.309    
  18.082      15.052      12.935      11.527      10.644      10.100      9.7459      9.5161      9.0209      9.1147    
  9.3638      9.7459      10.348      11.353      12.973      15.388      19.315      29.936      52.938      90.742    
  141.70      199.94      255.57      296.26      311.26      296.26      255.57      199.94      141.70      90.742    
  52.938      29.936      19.315      15.388      12.973      11.353      10.348      9.7459      9.3638      9.1147    
  8.7520      8.8519      9.1147      9.5161      10.158      11.246      13.009      15.617      20.398      33.682    
  61.411      105.86      164.96      232.15      296.26      343.20      360.52      343.20      296.26      232.15    
  164.96      105.86      61.411      33.682      20.398      15.617      13.009      11.246      10.158      9.5161    
  9.1147      8.8519      8.6496      8.7520      9.0209      9.4308      10.088      11.207      13.022      15.697    
  20.834      35.125      64.595      111.47      173.55      244.02      311.26      360.52      378.71      360.52    
  311.26      244.02      173.55      111.47      64.595      35.125      20.834      15.697      13.022      11.207    
  10.088      9.4308      9.0209      8.7520      8.7520      8.8519      9.1147      9.5161      10.158      11.246    
  13.009      15.617      20.398      33.682      61.411      105.86      164.96      232.15      296.26      343.20    
  360.52      343.20      296.26      232.15      164.96      105.86      61.411      33.682      20.398      15.617    
  13.009      11.246      10.158      9.5161      9.1147      8.8519      9.0209      9.1147      9.3638      9.7459    
  10.348      11.353      12.973      15.388      19.315      29.936      52.938      90.742      141.70      199.94    
  255.57      296.26      311.26      296.26      255.57      199.94      141.70      90.742      52.938      29.936    
  19.315      15.388      12.973      11.353      10.348      9.7459      9.3638      9.1147      9.4308      9.5161    
  9.7459      10.100      10.644      11.527      12.935      15.052      18.082      25.309      41.897      70.476    
  110.07      155.93      199.94      232.15      244.02      232.15      199.94      155.93      110.07      70.476    
  41.897      25.309      18.082      15.052      12.935      11.527      10.644      10.100      9.7459      9.5161    
  10.088      10.158      10.348      10.644      11.094      11.810      12.947      14.677      17.072      21.291    
  31.406      50.201      77.535      110.07      141.70      164.96      173.55      164.96      141.70      110.07    
  77.535      50.201      31.406      21.291      17.072      14.677      12.947      11.810      11.094      10.644    
  10.348      10.158      11.207      11.246      11.353      11.527      11.810      12.290      13.090      14.362    
  16.209      18.671      23.695      33.985      50.201      70.476      90.742      105.86      111.47      105.86    
  90.742      70.476      50.201      33.985      23.695      18.671      16.209      14.362      13.090      12.290    
  11.810      11.527      11.353      11.246      13.022      13.009      12.973      12.935      12.947      13.090    
  13.473      14.219      15.434      17.113      19.331      23.695      31.406      41.897      52.938      61.411    
  64.595      61.411      52.938      41.897      31.406      23.695      19.331      17.113      15.434      14.219    
  13.473      13.090      12.947      12.935      12.973      13.009      15.697      15.617      15.388      15.052    
  14.677      14.362      14.219      14.364      14.894      15.838      17.113      18.671      21.291      25.309    
  29.936      33.682      35.125      33.682      29.936      25.309      21.291      18.671      17.113      15.838    
  14.894      14.364      14.219      14.362      14.677      15.052      15.388      15.617      20.834      20.398    
  19.315      18.082      17.072      16.209      15.434      14.894      14.700      14.894      15.434      16.209    
  17.072      18.082      19.315      20.398      20.834      20.398      19.315      18.082      17.072      16.209    
  15.434      14.894      14.700      14.894      15.434      16.209      17.072      18.082      19.315      20.398    
  35.125      33.682      29.936      25.309      21.291      18.671      17.113      15.838      14.894      14.364    
  14.219      14.362      14.677      15.052      15.388      15.617      15.697      15.617      15.388      15.052    
  14.677      14.362      14.219      14.364      14.894      15.838      17.113      18.671      21.291      25.309    
  29.936      33.682      64.595      61.411      52.938      41.897      31.406      23.695      19.331      17.113    
  15.434      14.219      13.473      13.090      12.947      12.935      12.973      13.009      13.022      13.009    
  12.973      12.935      12.947      13.090      13.473      14.219      15.434      17.113      19.331      23.695    
  31.406      41.897      52.938      61.411      111.47      105.86      90.742      70.476      50.201      33.985    
  23.695      18.671      16.209      14.362      13.090      12.290      11.810      11.527      11.353      11.246    
  11.207      11.246      11.353      11.527      11.810      12.290      13.090      14.362      16.209      18.671    
  23.695      33.985      50.201      70.476      90.742      105.86      173.55      164.96      141.70      110.07    
  77.535      50.201      31.406      21.291      17.072      14.677      12.947      11.810      11.094      10.644    
  10.348      10.158      10.088      10.158      10.348      10.644      11.094      11.810      12.947      14.677    
  17.072      21.291      31.406      50.201      77.535      110.07      141.70      164.96      244.02      232.15    
  199.94      155.93      110.07      70.476      41.897      25.309      18.082      15.052      12.935      11.527    
  10.644      10.100      9.7459      9.5161      9.4308      9.5161      9.7459      10.100      10.644      11.527    
  12.935      15.052      18.082      25.309      41.897      70.476      110.07      155.93      199.94      232.15    
  311.26      296.26      255.57      199.94      141.70      90.742      52.938      29.936      19.315      15.388    
  12.973      11.353      10.348      9.7459      9.3638      9.1147      9.0209      9.1147      9.3638      9.7459    
  10.348      11.353      12.973      15.388      19.315      29.936      52.938      90.742      141.70      199.94    
  255.57      296.26      360.52      343.20      296.26      232.15      164.96      105.86      61.411      33.682    
  20.398      15.617      13.009      11.246      10.158      9.5161      9.1147      8.8519      8.7520      8.8519    
  9.1147      9.5161      10.158      11.246      13.009      15.617      20.398      33.682      61.411      105.86    
  164.96      232.15      296.26      343.20      360.52      343.20      296.26      232.15      164.96      105.86    
  61.411      33.682      20.398      15.617      13.009      11.246      10.158      9.5161      9.1147      8.8519    
  8.7520      8.8519      9.1147      9.5161      10.158      11.246      13.009      15.617      20.398      33.682    
  61.411      105.86      164.96      232.15      296.26      343.20      343.20      326.70      281.96      220.84    
  156.79      100.53      58.404      32.335      19.998      15.535      12.995      11.282      10.225      9.5990    
  9.2060      8.9491      8.8519      8.9491      9.2060      9.5990      10.225      11.282      12.995      15.535    
  19.998      32.335      58.404      100.53      156.79      220.84      281.96      326.70      296.26      281.96    
  243.18      190.14      134.64      86.187      50.416      28.843      19.003      15.305      12.956      11.385    
  10.409      9.8227      9.4492      9.2060      9.1147      9.2060      9.4492      9.8227      10.409      11.385    
  12.956      15.305      19.003      28.843      50.416      86.187      134.64      190.14      243.18      281.96    
  232.15      220.84      190.14      148.21      104.56      66.991      40.036      24.546      17.869      14.968    
  12.914      11.552      10.697      10.168      9.8227      9.5990      9.5161      9.5990      9.8227      10.168    
  10.697      11.552      12.914      14.968      17.869      24.546      40.036      66.991      104.56      148.21    
  190.14      220.84      164.96      156.79      134.64      104.56      73.681      47.849      30.219      20.839    
  16.919      14.594      12.920      11.823      11.132      10.697      10.409      10.225      10.158      10.225    
  10.409      10.697      11.132      11.823      12.920      14.594      16.919      20.839      30.219      47.849    
  73.681      104.56      134.64      156.79      105.86      100.53      86.187      66.991      47.849      32.629    
  23.061      18.426      16.067      14.279      13.054      12.284      11.823      11.552      11.385      11.282    
  11.246      11.282      11.385      11.552      11.823      12.284      13.054      14.279      16.067      18.426    
  23.061      32.629      47.849      66.991      86.187      100.53      61.411      58.404      50.416      40.036    
  30.219      23.061      19.040      16.936      15.306      14.134      13.418      13.054      12.920      12.914    
  12.956      12.995      13.009      12.995      12.956      12.914      12.920      13.054      13.418      14.134    
  15.306      16.936      19.040      23.061      30.219      40.036      50.416      58.404      33.682      32.335    
  28.843      24.546      20.839      18.426      16.936      15.692      14.778      14.269      14.134      14.279    
  14.594      14.968      15.305      15.535      15.617      15.535      15.305      14.968      14.594      14.279    
  14.134      14.269      14.778      15.692      16.936      18.426      20.839      24.546      28.843      32.335    
  20.398      19.998      19.003      17.869      16.919      16.067      15.306      14.778      14.589      14.778    
  15.306      16.067      16.919      17.869      19.003      19.998      20.398      19.998      19.003      17.869    
  16.919      16.067      15.306      14.778      14.589      14.778      15.306      16.067      16.919      17.869    
  19.003      19.998      15.617      15.535      15.305      14.968      14.594      14.279      14.134      14.269    
  14.778      15.692      16.936      18.426      20.839      24.546      28.843      32.335      33.682      32.335    
  28.843      24.546      20.839      18.426      16.936      15.692      14.778      14.269      14.134      14.279    
  14.594      14.968      15.305      15.535      13.009      12.995      12.956      12.914      12.920      13.054    
  13.418      14.134      15.306      16.936      19.040      23.061      30.219      40.036      50.416      58.404    
  61.411      58.404      50.416      40.036      30.219      23.061      19.040      16.936      15.306      14.134    
  13.418      13.054      12.920      12.914      12.956      12.995      11.246      11.282      11.385      11.552    
  11.823      12.284      13.054      14.279      16.067      18.426      23.061      32.629      47.849      66.991    
  86.187      100.53      105.86      100.53      86.187      66.991      47.849      32.629      23.061      18.426    
  16.067      14.279      13.054      12.284      11.823      11.552      11.385      11.282      10.158      10.225    
  10.409      10.697      11.132      11.823      12.920      14.594      16.919      20.839      30.219      47.849    
  73.681      104.56      134.64      156.79      164.96      156.79      134.64      104.56      73.681      47.849    
  30.219      20.839      16.919      14.594      12.920      11.823      11.132      10.697      10.409      10.225    
  9.5161      9.5990      9.8227      10.168      10.697      11.552      12.914      14.968      17.869      24.546    
  40.036      66.991      104.56      148.21      190.14      220.84      232.15      220.84      190.14      148.21    
  104.56      66.991      40.036      24.546      17.869      14.968      12.914      11.552      10.697      10.168    
  9.8227      9.5990      9.1147      9.2060      9.4492      9.8227      10.409      11.385      12.956      15.305    
  19.003      28.843      50.416      86.187      134.64      190.14      243.18      281.96      296.26      281.96    
  243.18      190.14      134.64      86.187      50.416      28.843      19.003      15.305      12.956      11.385    
  10.409      9.8227      9.4492      9.2060      8.8519      8.9491      9.2060      9.5990      10.225      11.282    
  12.995      15.535      19.998      32.335      58.404      100.53      156.79      220.84      281.96      326.70    
  343.20      326.70      281.96      220.84      156.79      100.53      58.404      32.335      19.998      15.535    
  12.995      11.282      10.225      9.5990      9.2060      8.9491      8.7520      8.8519      9.1147      9.5161    
  10.158      11.246      13.009      15.617      20.398      33.682      61.411      105.86      164.96      232.15    
  296.26      343.20      360.52      343.20      296.26      232.15      164.96      105.86      61.411      33.682    
  20.398      15.617      13.009      11.246      10.158      9.5161      9.1147      8.8519      8.8519      8.9491    
  9.2060      9.5990      10.225      11.282      12.995      15.535      19.998      32.335      58.404      100.53    
  156.79      220.84      281.96      326.70      343.20      326.70      281.96      220.84      156.79      100.53    
  58.404      32.335      19.998      15.535      12.995      11.282      10.225      9.5990      9.2060      8.9491    
  9.1147      9.2060      9.4492      9.8227      10.409      11.385      12.956      15.305      19.003      28.843    
  50.416      86.187      134.64      190.14      243.18      281.96      296.26      281.96      243.18      190.14    
  134.64      86.187      50.416      28.843      19.003      15.305      12.956      11.385      10.409      9.8227    
  9.4492      9.2060      9.5161      9.5990      9.8227      10.168      10.697      11.552      12.914      14.968    
  17.869      24.546      40.036      66.991      104.56      148.21      190.14      220.84      232.15      220.84    
  190.14      148.21      104.56      66.991      40.036      24.546      17.869      14.968      12.914      11.552    
  10.697      10.168      9.8227      9.5990      10.158      10.225      10.409      10.697      11.132      11.823    
  12.920      14.594      16.919      20.839      30.219      47.849      73.681      104.56      134.64      156.79    
  164.96      156.79      134.64      104.56      73.681      47.849      30.219      20.839      16.919      14.594    
  12.920      11.823      11.132      10.697      10.409      10.225      11.246      11.282      11.385      11.552    
  11.823      12.284      13.054      14.279      16.067      18.426      23.061      32.629      47.849      66.991    
  86.187      100.53      105.86      100.53      86.187      66.991      47.849      32.629      23.061      18.426    
  16.067      14.279      13.054      12.284      11.823      11.552      11.385      11.282      13.009      12.995    
  12.956      12.914      12.920      13.054      13.418      14.134      15.306      16.936      19.040      23.061    
  30.219      40.036      50.416      58.404      61.411      58.404      50.416      40.036      30.219      23.061    
  19.040      16.936      15.306      14.134      13.418      13.054      12.920      12.914      12.956      12.995    
  15.617      15.535      15.305      14.968      14.594      14.279      14.134      14.269      14.778      15.692    
  16.936      18.426      20.839      24.546      28.843      32.335      33.682      32.335      28.843      24.546    
  20.839      18.426      16.936      15.692      14.778      14.269      14.134      14.279      14.594      14.968    
  15.305      15.535      20.398      19.998      19.003      17.869      16.919      16.067      15.306      14.778    
  14.589      14.778      15.306      16.067      16.919      17.869      19.003      19.998      20.398      19.998    
  19.003      17.869      16.919      16.067      15.306      14.778      14.589      14.778      15.306      16.067    
  16.919      17.869      19.003      19.998      33.682      32.335      28.843      24.546      20.839      18.426    
  16.936      15.692      14.778      14.269      14.134      14.279      14.594      14.968      15.305      15.535    
  15.617      15.535      15.305      14.968      14.594      14.279      14.134      14.269      14.778      15.692    
  16.936      18.426      20.839      24.546      28.843      32.335      61.411      58.404      50.416      40.036    
  30.219      23.061      19.040      16.936      15.306      14.134      13.418      13.054      12.920      12.914    
  12.956      12.995      13.009      12.995      12.956      12.914      12.920      13.054      13.418      14.134    
  15.306      16.936      19.040      23.061      30.219      40.036      50.416      58.404      105.86      100.53    
  86.187      66.991      47.849      32.629      23.061      18.426      16.067      14.279      13.054      12.284    
  11.823      11.552      11.385      11.282      11.246      11.282      11.385      11.552      11.823      12.284    
  13.054      14.279      16.067      18.426      23.061      32.629      47.849      66.991      86.187      100.53    
  164.96      156.79      134.64      104.56      73.681      47.849      30.219      20.839      16.919      14.594    
  12.920      11.823      11.132      10.697      10.409      10.225      10.158      10.225      10.409      10.697    
  11.132      11.823      12.920      14.594      16.919      20.839      30.219      47.849      73.681      104.56    
  134.64      156.79      232.15      220.84      190.14      148.21      104.56      66.991      40.036      24.546    
  17.869      14.968      12.914      11.552      10.697      10.168      9.8227      9.5990      9.5161      9.5990    
  9.8227      10.168      10.697      11.552      12.914      14.968      17.869      24.546      40.036      66.991    
  104.56      148.21      190.14      220.84      296.26      281.96      243.18      190.14      134.64      86.187    
  50.416      28.843      19.003      15.305      12.956      11.385      10.409      9.8227      9.4492      9.2060    
  9.1147      9.2060      9.4492      9.8227      10.409      11.385      12.956      15.305      19.003      28.843    
  50.416      86.187      134.64      190.14      243.18      281.96      343.20      326.70      281.96      220.84    
  156.79      100.53      58.404      32.335      19.998      15.535      12.995      11.282      10.225      9.5990    
  9.2060      8.9491      8.8519      8.9491      9.2060      9.5990      10.225      11.282      12.995      15.535    
  19.998      32.335      58.404      100.53      156.79      220.84      281.96      326.70      311.26      296.26    
  255.57      199.94      141.70      90.742      52.938      29.936      19.315      15.388      12.973      11.353    
  10.348      9.7459      9.3638      9.1147      9.0209      9.1147      9.3638      9.7459      10.348      11.353    
  12.973      15.388      19.315      29.936      52.938      90.742      141.70      199.94      255.57      296.26    
  296.26      281.96      243.18      190.14      134.64      86.187      50.416      28.843      19.003      15.305    
  12.956      11.385      10.409      9.8227      9.4492      9.2060      9.1147      9.2060      9.4492      9.8227    
  10.409      11.385      12.956      15.305      19.003      28.843      50.416      86.187      134.64      190.14    
  243.18      281.96      255.57      243.18      209.55      163.55      115.55      73.956      43.742      26.025    
  18.228      15.072      12.911      11.474      10.578      10.031      9.6783      9.4492      9.3638      9.4492    
  9.6783      10.031      10.578      11.474      12.911      15.072      18.228      26.025      43.742      73.956    
  115.55      163.55      209.55      243.18      199.94      190.14      163.55      127.28      89.695      57.677    
  35.144      22.600      17.329      14.734      12.859      11.622      10.842      10.353      10.031      9.8227    
  9.7459      9.8227      10.031      10.353      10.842      11.622      12.859      14.734      17.329      22.600    
  35.144      57.677      89.695      127.28      163.55      190.14      141.70      134.64      115.55      89.695    
  63.352      41.618      27.141      19.694      16.497      14.364      12.851      11.864      11.239      10.842    
  10.578      10.409      10.348      10.409      10.578      10.842      11.239      11.864      12.851      14.364    
  16.497      19.694      27.141      41.618      63.352      89.695      115.55      134.64      90.742      86.187    
  73.956      57.677      41.618      29.091      21.442      17.788      15.675      14.054      12.957      12.273    
  11.864      11.622      11.474      11.385      11.353      11.385      11.474      11.622      11.864      12.273    
  12.957      14.054      15.675      17.788      21.442      29.091      41.618      57.677      73.956      86.187    
  52.938      50.416      43.742      35.144      27.141      21.442      18.289      16.443      14.955      13.903    
  13.271      12.957      12.851      12.859      12.911      12.956      12.973      12.956      12.911      12.859    
  12.851      12.957      13.271      13.903      14.955      16.443      18.289      21.442      27.141      35.144    
  43.742      50.416      29.936      28.843      26.025      22.600      19.694      17.788      16.443      15.291    
  14.462      14.011      13.903      14.054      14.364      14.734      15.072      15.305      15.388      15.305    
  15.072      14.734      14.364      14.054      13.903      14.011      14.462      15.291      16.443      17.788    
  19.694      22.600      26.025      28.843      19.315      19.003      18.228      17.329      16.497      15.675    
  14.955      14.462      14.287      14.462      14.955      15.675      16.497      17.329      18.228      19.003    
  19.315      19.003      18.228      17.329      16.497      15.675      14.955      14.462      14.287      14.462    
  14.955      15.675      16.497      17.329      18.228      19.003      15.388      15.305      15.072      14.734    
  14.364      14.054      13.903      14.011      14.462      15.291      16.443      17.788      19.694      22.600    
  26.025      28.843      29.936      28.843      26.025      22.600      19.694      17.788      16.443      15.291    
  14.462      14.011      13.903      14.054      14.364      14.734      15.072      15.305      12.973      12.956    
  12.911      12.859      12.851      12.957      13.271      13.903      14.955      16.443      18.289      21.442    
  27.141      35.144      43.742      50.416      52.938      50.416      43.742      35.144      27.141      21.442    
  18.289      16.443      14.955      13.903      13.271      12.957      12.851      12.859      12.911      12.956    
  11.353      11.385      11.474      11.622      11.864      12.273      12.957      14.054      15.675      17.788    
  21.442      29.091      41.618      57.677      73.956      86.187      90.742      86.187      73.956      57.677    
  41.618      29.091      21.442      17.788      15.675      14.054      12.957      12.273      11.864      11.622    
  11.474      11.385      10.348      10.409      10.578      10.842      11.239      11.864      12.851      14.364    
  16.497      19.694      27.141      41.618      63.352      89.695      115.55      134.64      141.70      134.64    