       N       E                     dE             d eps       ncg     rms          rms(c)
DAV:   1     0.158859809634E+03    0.15886E+03   -0.84765E+03  4880   0.673E+02
DAV:   2    -0.261881198458E+02   -0.18505E+03   -0.16299E+03  4632   0.182E+02
DAV:   3    -0.384037205902E+02   -0.12216E+02   -0.10982E+02  5160   0.568E+01
DAV:   4    -0.385646448716E+02   -0.16092E+00   -0.16059E+00  4840   0.783E+00
DAV:   5    -0.385660972766E+02   -0.14524E-02   -0.14524E-02  5080   0.555E-01    0.221E+01
DAV:   6    -0.327012461571E+02    0.58649E+01   -0.15711E+01  5080   0.562E+01    0.587E+00
DAV:   7    -0.321026277460E+02    0.59862E+00   -0.17905E+00  5408   0.170E+01    0.135E+00
DAV:   8    -0.320543784861E+02    0.48249E-01   -0.15610E-02  6064   0.111E+00    0.625E-01
DAV:   9    -0.320335917165E+02    0.20787E-01   -0.33491E-03  5920   0.385E-01    0.105E-01
DAV:  10    -0.320336577270E+02   -0.66011E-04   -0.95131E-04  4960   0.214E-01    0.488E-02
DAV:  11    -0.320336746186E+02   -0.16892E-04   -0.27749E-05  5120   0.665E-02    0.252E-02
DAV:  12    -0.320336638785E+02    0.10740E-04   -0.16487E-05  5440   0.441E-02    0.309E-03
DAV:  13    -0.320336653649E+02   -0.14864E-05   -0.18630E-07  2848   0.221E-03    0.872E-04
DAV:  14    -0.320336656165E+02   -0.25164E-06   -0.29812E-08  2520   0.150E-03
   1 F= -.32033666E+02 E0= -.32035773E+02  d E =0.632261E-02
