unknown system                          
   1.00000000000000     
     2.330000    0.000000    0.000000
    -1.165000    2.017839    0.000000
     0.000000    0.000000    4.100000
   Fe
     2
Direct
  0.000000  0.000000  0.000000
  0.333333  0.666667  0.500000
 
   20   20   36
 0.16207536863E+03 0.15359167883E+03 0.13075467732E+03 0.10003078895E+03 0.68724306048E+02
 0.42441951789E+02 0.24080636424E+02 0.13884441698E+02 0.98922063193E+01 0.88044613430E+01
 0.84689381415E+01 0.88046131096E+01 0.98923262810E+01 0.13884389815E+02 0.24080480339E+02
 0.42441868427E+02 0.68724363760E+02 0.10003089119E+03 0.13075471432E+03 0.15359166078E+03
 0.15359788894E+03 0.15359176060E+03 0.13796644283E+03 0.11136465159E+03 0.80752017323E+02
 0.52561261603E+02 0.30958514196E+02 0.17437491202E+02 0.11068456358E+02 0.90991532343E+01
 0.84607356011E+01 0.84603554168E+01 0.90987451736E+01 0.11068698928E+02 0.17437219210E+02
 0.30956477411E+02 0.52559635051E+02 0.80755868483E+02 0.11137608895E+03 0.13798002516E+03
 0.13076392786E+03 0.13794740658E+03 0.13075503238E+03 0.11136479042E+03 0.85201071762E+02
 0.58497796130E+02 0.36161185622E+02 0.20775202589E+02 0.12494180686E+02 0.94068121795E+01
 0.84742444862E+01 0.81586886491E+01 0.84733764747E+01 0.94067345857E+01 0.12494908737E+02
 0.20774208912E+02 0.36157362979E+02 0.58494894622E+02 0.85204548541E+02 0.11137467483E+03
 0.10002669977E+03 0.11130241551E+03 0.11130391124E+03 0.10003107376E+03 0.80751804685E+02
 0.58497560256E+02 0.38099626870E+02 0.22797837007E+02 0.13681188831E+02 0.97462310045E+01
 0.85008130780E+01 0.79366706886E+01 0.79362964008E+01 0.85004920348E+01 0.97471188382E+01
 0.13682739809E+02 0.22797780479E+02 0.38096214992E+02 0.58491443765E+02 0.80745448907E+02
 0.68711183201E+02 0.80657362424E+02 0.85076446211E+02 0.80667577505E+02 0.68724016329E+02
 0.52560720707E+02 0.36161043108E+02 0.22797923276E+02 0.14143356378E+02 0.99824077344E+01
 0.85264316716E+01 0.78022520444E+01 0.75526476934E+01 0.78022150867E+01 0.85264695565E+01
 0.99835181331E+01 0.14146626322E+02 0.22801971897E+02 0.36161330001E+02 0.52553406893E+02
 0.42440389369E+02 0.52485012588E+02 0.58365349632E+02 0.58368639226E+02 0.52490850514E+02
 0.42441458092E+02 0.30958306495E+02 0.20775416570E+02 0.13681342634E+02 0.99824481473E+01
 0.85370252399E+01 0.77423006301E+01 0.73339552082E+01 0.73342058042E+01 0.77420588775E+01
 0.85355294371E+01 0.99820390753E+01 0.13685452169E+02 0.20783330245E+02 0.30964184627E+02
 0.24089693875E+02 0.30937237181E+02 0.36091540992E+02 0.38005884849E+02 0.36087472985E+02
 0.30929431535E+02 0.24080497673E+02 0.17437737958E+02 0.12494453501E+02 0.97463232843E+01
 0.85265067869E+01 0.77423087030E+01 0.72643352718E+01 0.71091097983E+01 0.72650039780E+01
 0.77411704988E+01 0.85225025341E+01 0.97423367409E+01 0.12494908737E+02 0.17444038047E+02
 0.13884143027E+02 0.17455656649E+02 0.20785423085E+02 0.22790429102E+02 0.22786281960E+02
 0.20776424036E+02 0.17449026368E+02 0.13884650552E+02 0.11068757716E+02 0.94068905342E+01
 0.85008379780E+01 0.78022514678E+01 0.73338421760E+01 0.71090551712E+01 0.71099472659E+01
 0.73354380735E+01 0.78019682982E+01 0.84965474052E+01 0.93993390992E+01 0.11062223981E+02
 0.98824330600E+01 0.11094686755E+02 0.12547217379E+02 0.13745164060E+02 0.14207624778E+02
 0.13742594196E+02 0.12547400552E+02 0.11101296611E+02 0.98924143312E+01 0.90991613165E+01
 0.84741067346E+01 0.79366070996E+01 0.75525219587E+01 0.73340889646E+01 0.72650149568E+01
 0.73354342661E+01 0.75559350308E+01 0.79404878190E+01 0.84740561597E+01 0.90925170153E+01
 0.88042598834E+01 0.91311116824E+01 0.94720509950E+01 0.98400792529E+01 0.10092780092E+02
 0.10094306889E+02 0.98449648073E+01 0.94795086876E+01 0.91372675744E+01 0.88043877599E+01
 0.84604561758E+01 0.81585278383E+01 0.79362538734E+01 0.78021450302E+01 0.77420712501E+01
 0.77411747985E+01 0.78018988182E+01 0.79405088805E+01 0.81666841505E+01 0.84669368013E+01
 0.84781516774E+01 0.85074422543E+01 0.85536190039E+01 0.86098158262E+01 0.86591587234E+01
 0.86806505010E+01 0.86630941428E+01 0.86137385033E+01 0.85529102382E+01 0.85007263685E+01
 0.84686479182E+01 0.84601299972E+01 0.84734270496E+01 0.85005641417E+01 0.85265067869E+01
 0.85355732297E+01 0.85224646492E+01 0.84965946121E+01 0.84742444862E+01 0.84669908071E+01
 0.88041423945E+01 0.85073786235E+01 0.82487675992E+01 0.80623860693E+01 0.79560828937E+01
 0.79136549334E+01 0.79145210611E+01 0.79562805167E+01 0.80581465656E+01 0.82407280037E+01
 0.85010723646E+01 0.88044220377E+01 0.90988423681E+01 0.94069626940E+01 0.97472329118E+01
 0.99836082568E+01 0.99820887860E+01 0.97423585347E+01 0.93994888529E+01 0.90926061276E+01
 0.98823459348E+01 0.91310080689E+01 0.85536210809E+01 0.80623623551E+01 0.77167995069E+01
 0.75245549041E+01 0.74646049284E+01 0.75233801935E+01 0.77135368962E+01 0.80584655141E+01
 0.85535570867E+01 0.91376208006E+01 0.98924471676E+01 0.11069004505E+02 0.12495100350E+02
 0.13682821692E+02 0.14146676552E+02 0.13685380249E+02 0.12494827534E+02 0.11062228200E+02
 0.13884202380E+02 0.11094689222E+02 0.94720316665E+01 0.86097471152E+01 0.79560135025E+01
 0.75246015090E+01 0.73197876400E+01 0.73189634559E+01 0.75231408757E+01 0.79563601473E+01
 0.86139507734E+01 0.94793947791E+01 0.11101057293E+02 0.13884658023E+02 0.17437386597E+02
 0.20774176830E+02 0.22797683958E+02 0.22801789108E+02 0.20783084182E+02 0.17443958679E+02
 0.24089849960E+02 0.17455771301E+02 0.12547184653E+02 0.98400011629E+01 0.86591061257E+01
 0.79137599909E+01 0.74647490277E+01 0.73189711588E+01 0.74639580799E+01 0.79147792760E+01
 0.86630941428E+01 0.98440344176E+01 0.12546720867E+02 0.17449356742E+02 0.24080497673E+02
 0.30956250274E+02 0.36157076085E+02 0.38096012615E+02 0.36161185622E+02 0.30964165191E+02
 0.42440496916E+02 0.30937301665E+02 0.20785417236E+02 0.13745162574E+02 0.10092812514E+02
 0.86807248192E+01 0.79146377005E+01 0.75233859538E+01 0.75231000312E+01 0.79147908580E+01
 0.86821324216E+01 0.10093205242E+02 0.13741139323E+02 0.20777632120E+02 0.30931477087E+02
 0.42441482277E+02 0.52559265834E+02 0.58494823711E+02 0.58491608727E+02 0.52553578571E+02
 0.68711172532E+02 0.52484872293E+02 0.36091547851E+02 0.22790561499E+02 0.14207725666E+02
 0.10094267387E+02 0.86630261057E+01 0.79562528203E+01 0.77135263755E+01 0.79564018421E+01
 0.86630787034E+01 0.10093133318E+02 0.14204384483E+02 0.22786528748E+02 0.36091392965E+02
 0.52492329572E+02 0.68724063371E+02 0.80755996104E+02 0.85204991742E+02 0.80745789165E+02
 0.10002663239E+03 0.80657034278E+02 0.58365252460E+02 0.38006072690E+02 0.22786404942E+02
 0.13742460890E+02 0.98447348827E+01 0.86136643538E+01 0.80582057988E+01 0.80585484615E+01
 0.86139453349E+01 0.98438825830E+01 0.13741007503E+02 0.22786519334E+02 0.38009450726E+02
 0.58371316725E+02 0.80663420948E+02 0.10003110862E+03 0.11137658925E+03 0.11137503630E+03
 0.13076389085E+03 0.11130205728E+03 0.85076132816E+02 0.58368697615E+02 0.36087627871E+02
 0.20776360651E+02 0.12547184653E+02 0.94793940605E+01 0.85529742324E+01 0.82408469391E+01
 0.85536190039E+01 0.94792994803E+01 0.12546537693E+02 0.20777574584E+02 0.36091540992E+02
 0.58371472286E+02 0.85072479188E+02 0.11129211811E+03 0.13075503237E+03 0.13798027270E+03
 0.15359789086E+03 0.13794716216E+03 0.11130344697E+03 0.80667402863E+02 0.52491084322E+02
 0.30929634763E+02 0.17448982109E+02 0.11101140568E+02 0.91372200972E+01 0.85008476468E+01
 0.85012572737E+01 0.91376769369E+01 0.11100898783E+02 0.17449197832E+02 0.30931615832E+02
 0.52492703674E+02 0.80663574453E+02 0.11129201206E+03 0.13793355228E+03 0.15359174447E+03
 0.15385285840E+03 0.14582001750E+03 0.12417608404E+03 0.95013565747E+02 0.65263252286E+02
 0.40300886498E+02 0.22931791552E+02 0.13379297879E+02 0.96995491011E+01 0.86713399263E+01
 0.83431725156E+01 0.86714894001E+01 0.96996681085E+01 0.13379247653E+02 0.22931635663E+02
 0.40300797500E+02 0.65263300415E+02 0.95013661318E+02 0.12417612102E+03 0.14582000237E+03
 0.14582582380E+03 0.14582011561E+03 0.13101230161E+03 0.10577136917E+03 0.76686185324E+02
 0.49894441065E+02 0.29411940010E+02 0.16680600741E+02 0.10765530904E+02 0.89529662677E+01
 0.83286229300E+01 0.83282492668E+01 0.89525612213E+01 0.10765781596E+02 0.16680421683E+02
 0.29410104818E+02 0.49892923745E+02 0.76689720460E+02 0.10578197484E+03 0.13102493708E+03
 0.12418473608E+03 0.13099825254E+03 0.12417647230E+03 0.10577151496E+03 0.80911192042E+02
 0.55526943151E+02 0.34326203361E+02 0.19799318742E+02 0.12067675123E+02 0.92306853038E+01
 0.83377130391E+01 0.80305441510E+01 0.83368504499E+01 0.92305787490E+01 0.12068391881E+02
 0.19798468815E+02 0.34322673156E+02 0.55524191927E+02 0.80914346271E+02 0.10578066135E+03
 0.95009757512E+02 0.10572317894E+03 0.10572458522E+03 0.95013867375E+02 0.76685960827E+02
 0.55526692591E+02 0.36159129186E+02 0.21694821988E+02 0.13158796019E+02 0.95311525282E+01
 0.83614813085E+01 0.78130502228E+01 0.78126811199E+01 0.83611389566E+01 0.95319481174E+01
 0.13160236568E+02 0.21694775902E+02 0.36155941632E+02 0.55520960816E+02 0.76679995226E+02
 0.65251008736E+02 0.76614341663E+02 0.80817550797E+02 0.76623858034E+02 0.65262940205E+02
 0.49893862616E+02 0.34326034464E+02 0.21694904707E+02 0.13584967180E+02 0.97409161237E+01
 0.83855347639E+01 0.76820023524E+01 0.74408664494E+01 0.76819829785E+01 0.83855679796E+01
 0.97419156804E+01 0.13587975933E+02 0.21698679709E+02 0.34326349777E+02 0.49887102317E+02
 0.40299443598E+02 0.49844715229E+02 0.55437524122E+02 0.55440579879E+02 0.49850111405E+02
 0.40300348525E+02 0.29411698879E+02 0.19799528487E+02 0.13158969517E+02 0.97409706888E+01
 0.83956208154E+01 0.76237045032E+01 0.72298170388E+01 0.72300824209E+01 0.76235365155E+01
 0.83942449518E+01 0.97405617780E+01 0.13162786473E+02 0.19806957636E+02 0.29417280147E+02
 0.22940250720E+02 0.29415495204E+02 0.34302285244E+02 0.36119292319E+02 0.34298477096E+02
 0.29408183710E+02 0.22931635489E+02 0.16680855659E+02 0.12067980128E+02 0.95312776460E+01
 0.83856211206E+01 0.76237105315E+01 0.71627553981E+01 0.70135607946E+01 0.71634209657E+01
 0.76226903665E+01 0.83818913586E+01 0.95275365572E+01 0.12068391881E+02 0.16686750864E+02
 0.13378987468E+02 0.16720077543E+02 0.19851103514E+02 0.21741655584E+02 0.21737788803E+02
 0.19842725122E+02 0.16713939668E+02 0.13379534222E+02 0.10765866651E+02 0.92307932892E+01
 0.83615150935E+01 0.76819929632E+01 0.72296931765E+01 0.70134997330E+01 0.70143287324E+01
 0.72311761389E+01 0.76817227941E+01 0.83574953342E+01 0.92237040149E+01 0.10759699984E+02
 0.96903853021E+01 0.10810168894E+02 0.12156442455E+02 0.13271552357E+02 0.13703007034E+02
 0.13269159065E+02 0.12156652406E+02 0.10816418690E+02 0.96997847516E+01 0.89529820432E+01
 0.83375654546E+01 0.78129665083E+01 0.74407236616E+01 0.72299533610E+01 0.71634231468E+01
 0.72311709413E+01 0.74438753218E+01 0.78165849268E+01 0.83375181986E+01 0.89467397938E+01
 0.86711466665E+01 0.90008614277E+01 0.93268128682E+01 0.96676864367E+01 0.99005089436E+01
 0.99019253535E+01 0.96722351019E+01 0.93337791867E+01 0.90066181028E+01 0.86712486151E+01
 0.83283097637E+01 0.80303526631E+01 0.78126237747E+01 0.76819104140E+01 0.76235455118E+01
 0.76226933343E+01 0.76816596187E+01 0.78166112960E+01 0.80380218032E+01 0.83344134279E+01
 0.83517875733E+01 0.83892747366E+01 0.84444197719E+01 0.85084539063E+01 0.85629172392E+01
 0.85860513695E+01 0.85665814618E+01 0.85120908880E+01 0.84437115547E+01 0.83829373810E+01
 0.83428368225E+01 0.83279924694E+01 0.83368977059E+01 0.83612294696E+01 0.83856211206E+01
 0.83942923523E+01 0.83818581429E+01 0.83575520623E+01 0.83377130391E+01 0.83344697969E+01
 0.86710295165E+01 0.83892070753E+01 0.81463309528E+01 0.79735284312E+01 0.78765911634E+01
 0.78387010887E+01 0.78395255869E+01 0.78767983406E+01 0.79695582955E+01 0.81387755644E+01
 0.83832732303E+01 0.86712809389E+01 0.89526716333E+01 0.92308435146E+01 0.95320958092E+01
 0.97420141814E+01 0.97406057138E+01 0.95275591313E+01 0.92238607951E+01 0.89468344304E+01
 0.96902976259E+01 0.90007486687E+01 0.84444115032E+01 0.79735019597E+01 0.76440657069E+01
 0.74615671547E+01 0.74048204426E+01 0.74605154981E+01 0.76410608333E+01 0.79698687054E+01
 0.84443479722E+01 0.90069608364E+01 0.96998160828E+01 0.10766126835E+02 0.12068616545E+02
 0.13160323420E+02 0.13588007384E+02 0.13162699826E+02 0.12068311540E+02 0.10759709477E+02
 0.13379045360E+02 0.10810163614E+02 0.93267839741E+01 0.85083812105E+01 0.78765229176E+01
 0.74616146064E+01 0.72651858472E+01 0.72644224196E+01 0.74602629797E+01 0.78768562321E+01
 0.85123179671E+01 0.93336889714E+01 0.10816166172E+02 0.13379541888E+02 0.16680600424E+02
 0.19798427103E+02 0.21694652189E+02 0.21698473277E+02 0.19806706179E+02 0.16686674687E+02
 0.22940406610E+02 0.16720190120E+02 0.12156410896E+02 0.96676112306E+01 0.85628664586E+01
 0.78388061097E+01 0.74049683867E+01 0.72644369110E+01 0.74041840251E+01 0.78397115948E+01
 0.85665814618E+01 0.96713959505E+01 0.12155984658E+02 0.16714175901E+02 0.22931635489E+02
 0.29409848559E+02 0.34322357843E+02 0.36155721797E+02 0.34326203361E+02 0.29417265020E+02
 0.40299554111E+02 0.29415559905E+02 0.19851106509E+02 0.13271563332E+02 0.99005452746E+01
 0.85861207866E+01 0.78396420787E+01 0.74605347381E+01 0.74602347680E+01 0.78397230656E+01
 0.85874091956E+01 0.99009357003E+01 0.13267826678E+02 0.19843797325E+02 0.29410023850E+02
 0.40300370040E+02 0.49892530230E+02 0.55524121171E+02 0.55521140619E+02 0.49887287251E+02
 0.65251002958E+02 0.49844566845E+02 0.34302293370E+02 0.21741803383E+02 0.13703117908E+02
 0.99018776614E+01 0.85665007290E+01 0.78767754361E+01 0.76410678540E+01 0.78769015733E+01
 0.85665515096E+01 0.99008516771E+01 0.13700040513E+02 0.21738048987E+02 0.34302111366E+02
 0.49851465307E+02 0.65262982556E+02 0.76689864634E+02 0.80914826312E+02 0.76680363897E+02
 0.95009693474E+02 0.76613987697E+02 0.55437406112E+02 0.36119487704E+02 0.21737931110E+02
 0.13269023446E+02 0.96719799214E+01 0.85120009650E+01 0.79696296868E+01 0.79699665681E+01
 0.85123007399E+01 0.96712159760E+01 0.13267680084E+02 0.21738043496E+02 0.36122656839E+02
 0.55443098250E+02 0.76619985761E+02 0.95013898909E+02 0.10578252215E+03 0.10578106287E+03
 0.12418469910E+03 0.10572277962E+03 0.80817193955E+02 0.55440631982E+02 0.34298659099E+02
 0.19842675978E+02 0.12156410896E+02 0.93336295993E+01 0.84437750857E+01 0.81389223993E+01
 0.84444197719E+01 0.93335682782E+01 0.12155774706E+02 0.19843745186E+02 0.34302285244E+02
 0.55443268364E+02 0.80813874176E+02 0.10571358327E+03 0.12417647230E+03 0.13102522118E+03
 0.14582582429E+03 0.13099796877E+03 0.10572407098E+03 0.76623666758E+02 0.49850373633E+02
 0.29408420730E+02 0.16713886914E+02 0.10816222921E+02 0.90065554567E+01 0.83830898774E+01
 0.83834933880E+01 0.90070109493E+01 0.10815975682E+02 0.16714010571E+02 0.29410196169E+02
 0.49851875920E+02 0.76620148451E+02 0.10571346834E+03 0.13098531084E+03 0.14582010097E+03
 0.13163003540E+03 0.12479712443E+03 0.10634031858E+03 0.81379277395E+02 0.55857564692E+02
 0.34514099404E+02 0.19871313151E+02 0.12067057373E+02 0.92004217553E+01 0.83069998613E+01
 0.80015254440E+01 0.83071413161E+01 0.92005364583E+01 0.12067012366E+02 0.19871161900E+02
 0.34514001188E+02 0.55857591945E+02 0.81379356827E+02 0.10634035453E+03 0.12479711562E+03
 0.12480184666E+03 0.12479726122E+03 0.11217097925E+03 0.90581821321E+02 0.65631284112E+02
 0.42663021162E+02 0.25259588833E+02 0.14688610561E+02 0.99853300347E+01 0.85509860408E+01
 0.79676003948E+01 0.79672490062E+01 0.85505961639E+01 0.99855994492E+01 0.14688666172E+02
 0.25258280773E+02 0.42661797234E+02 0.65633986330E+02 0.90590214817E+02 0.11218108781E+03
 0.10634736423E+03 0.11217096906E+03 0.10634078383E+03 0.90581982621E+02 0.69246886770E+02
 0.47461465567E+02 0.29380549788E+02 0.17210665247E+02 0.10962052183E+02 0.87645347867E+01
 0.79619472025E+01 0.76797025180E+01 0.79611125372E+01 0.87643609443E+01 0.10962732648E+02
 0.17210183517E+02 0.29377792740E+02 0.47459123632E+02 0.69249194997E+02 0.90589168976E+02
 0.81376220591E+02 0.90572813707E+02 0.90573977888E+02 0.81379616866E+02 0.65631033418E+02
 0.47461182242E+02 0.30923118739E+02 0.18758368518E+02 0.11797072973E+02 0.89704874859E+01
 0.79752830392E+01 0.74730824264E+01 0.74727324320E+01 0.79748949192E+01 0.89710445832E+01
 0.11798218573E+02 0.18758346026E+02 0.30920528887E+02 0.47456482991E+02 0.65626119057E+02
 0.55847676422E+02 0.65622653233E+02 0.69239239727E+02 0.65630300689E+02 0.55857201445E+02
 0.42662358063E+02 0.29380318915E+02 0.18758441724E+02 0.12126549441E+02 0.91138066284E+01
 0.79929272452E+01 0.73496506485E+01 0.71325736986E+01 0.73496750957E+01 0.79929480272E+01
 0.91145160241E+01 0.12128865801E+02 0.18761482262E+02 0.29380698563E+02 0.42657066197E+02
 0.34512975855E+02 0.42686558816E+02 0.47491015158E+02 0.47493446901E+02 0.42690781056E+02
 0.34513459613E+02 0.25259269511E+02 0.17210862502E+02 0.11797292154E+02 0.91138946201E+01
 0.80008242773E+01 0.72948668288E+01 0.69415446940E+01 0.69418419244E+01 0.72948816955E+01
 0.79997629941E+01 0.91134906910E+01 0.11800329476E+02 0.17216985727E+02 0.25264037143E+02
 0.19878171600E+02 0.25331869932E+02 0.29483069650E+02 0.31032313967E+02 0.29479959503E+02
 0.25325886383E+02 0.19871117047E+02 0.14688882742E+02 0.10962431758E+02 0.89706902899E+01
 0.79930391917E+01 0.72948676253E+01 0.68811123535E+01 0.67484517457E+01 0.68817588821E+01
 0.72941524616E+01 0.79900422043E+01 0.89676122477E+01 0.10962732648E+02 0.14693693308E+02
 0.12066723249E+02 0.14787648407E+02 0.17378211190E+02 0.18956076489E+02 0.18952960567E+02
 0.17371492225E+02 0.14782819164E+02 0.12067358141E+02 0.99857455517E+01 0.87647132334E+01
 0.79753374118E+01 0.73496195650E+01 0.69413962847E+01 0.67483762465E+01 0.67490369618E+01
 0.69425781407E+01 0.73493859788E+01 0.79720477997E+01 0.87588731839E+01 0.99805792955E+01
 0.91928984948E+01 0.10082363156E+02 0.11152066400E+02 0.12047722182E+02 0.12396471835E+02
 0.12045803432E+02 0.11152343238E+02 0.10087633500E+02 0.92007219285E+01 0.85510207886E+01
 0.79617778304E+01 0.74729506102E+01 0.71323910803E+01 0.69416854016E+01 0.68817406172E+01
 0.69425700272E+01 0.71348512580E+01 0.74758686684E+01 0.79617408008E+01 0.85458651271E+01
 0.83068294310E+01 0.86453337506E+01 0.89504173229E+01 0.92308875356E+01 0.94161810674E+01
 0.94173049044E+01 0.92345393590E+01 0.89560698075E+01 0.86500215186E+01 0.83068672758E+01
 0.79672103841E+01 0.76794391057E+01 0.74726387251E+01 0.73495967968E+01 0.72948834112E+01
 0.72941533807E+01 0.73493387634E+01 0.74759067777E+01 0.76857912803E+01 0.79722919281E+01
 0.80085351439E+01 0.80696505019E+01 0.81498749181E+01 0.82355143078E+01 0.83040057449E+01
 0.83316369781E+01 0.83069450267E+01 0.82383912972E+01 0.81491794683E+01 0.80643440680E+01
 0.80010850072E+01 0.79669200658E+01 0.79611495668E+01 0.79750267282E+01 0.79930391917E+01
 0.79998205109E+01 0.79900214223E+01 0.79721252361E+01 0.79619472025E+01 0.79723529984E+01
 0.83067156115E+01 0.80695751194E+01 0.78726783855E+01 0.77392364897E+01 0.76694871946E+01
 0.76448488367E+01 0.76455565312E+01 0.76697109283E+01 0.77359870631E+01 0.78664297777E+01
 0.80646498846E+01 0.83068949111E+01 0.85507365388E+01 0.87647083663E+01 0.89712706389E+01
 0.91146357035E+01 0.91135223786E+01 0.89676354993E+01 0.87590421592E+01 0.85459707542E+01
 0.91928115872E+01 0.86452032468E+01 0.81498436490E+01 0.77392036907E+01 0.74571990660E+01
 0.73034448611E+01 0.72561777770E+01 0.73027097197E+01 0.74548708128E+01 0.77362713129E+01
 0.81497799366E+01 0.86503334037E+01 0.92007497238E+01 0.99860346686E+01 0.10963032226E+02
 0.11798317487E+02 0.12128854795E+02 0.11800209210E+02 0.10962652652E+02 0.99805989979E+01
 0.12066776519E+02 0.10082342482E+02 0.89503689107E+01 0.82354331081E+01 0.76694204581E+01
 0.73034922487E+01 0.71319110231E+01 0.71313086339E+01 0.73024288658E+01 0.76697143241E+01
 0.82386505843E+01 0.89560387763E+01 0.10087352646E+02 0.12067366404E+02 0.14688867497E+02
 0.17210118022E+02 0.18758160870E+02 0.18761223900E+02 0.17216722978E+02 0.14693622452E+02
 0.19878322851E+02 0.14787756504E+02 0.11152041676E+02 0.92308211217E+01 0.83039569961E+01
 0.76449486269E+01 0.72563316844E+01 0.71313398832E+01 0.72555773087E+01 0.76455625674E+01
 0.83069450267E+01 0.92339371879E+01 0.11151714974E+02 0.14782820333E+02 0.19871117047E+02
 0.25257953892E+02 0.29377413093E+02 0.30920272789E+02 0.29380549788E+02 0.25264029584E+02
 0.34513088915E+02 0.25331934046E+02 0.17378238452E+02 0.12047764982E+02 0.94162241857E+01
 0.83316892526E+01 0.76456688296E+01 0.73027626139E+01 0.73024343725E+01 0.76455750756E+01
 0.83326690335E+01 0.94166063008E+01 0.12044792943E+02 0.17372213597E+02 0.25327192971E+02
 0.34513474458E+02 0.42661347575E+02 0.47459056494E+02 0.47456699179E+02 0.42657279636E+02
 0.55847679847E+02 0.42686390472E+02 0.29483082122E+02 0.18956262199E+02 0.12396605114E+02
 0.94172346744E+01 0.83068321411E+01 0.76697013120E+01 0.74549243893E+01 0.76697714444E+01
 0.83068808900E+01 0.94164929524E+01 0.12394224954E+02 0.18953249683E+02 0.29482834648E+02
 0.42691806389E+02 0.55857232123E+02 0.65634169654E+02 0.69249761915E+02 0.65626553075E+02
 0.81376164430E+02 0.65622238273E+02 0.47490847788E+02 0.31032527471E+02 0.18953149234E+02
 0.12045662506E+02 0.92342243724E+01 0.82382652189E+01 0.77360907261E+01 0.77364077748E+01
 0.82386057057E+01 0.92336886151E+01 0.12044609218E+02 0.18953252641E+02 0.31035130832E+02
 0.47495534533E+02 0.65627187725E+02 0.81379640138E+02 0.90590872463E+02 0.90589665323E+02
 0.10634732828E+03 0.90572317555E+02 0.69238780409E+02 0.47493484320E+02 0.29480206977E+02
 0.17371478466E+02 0.11152041676E+02 0.89558375540E+01 0.81492431808E+01 0.78666446385E+01
 0.81498749181E+01 0.89558549350E+01 0.11151438137E+02 0.17372172576E+02 0.29483069650E+02
 0.47495739322E+02 0.69236333904E+02 0.90565092155E+02 0.10634078383E+03 0.11218145979E+03
 0.12480184452E+03 0.11217059227E+03 0.90573346960E+02 0.65630071329E+02 0.42691110563E+02
 0.25326203466E+02 0.14782746126E+02 0.10087343427E+02 0.86499233385E+01 0.80645707779E+01
 0.80649519770E+01 0.86503657273E+01 0.10087083248E+02 0.14782639199E+02 0.25327445939E+02
 0.42692304241E+02 0.65627373325E+02 0.90564957379E+02 0.11216047209E+03 0.12479725027E+03
 0.10149859795E+03 0.96252716158E+02 0.82042071520E+02 0.62756526650E+02 0.43046703228E+02
 0.26744905205E+02 0.15894724722E+02 0.10447696212E+02 0.85635413010E+01 0.77994264478E+01
 0.75320503912E+01 0.77995516609E+01 0.85636448252E+01 0.10447659637E+02 0.15894590435E+02
 0.26744810549E+02 0.43046715736E+02 0.62756589399E+02 0.82042103549E+02 0.96252711775E+02
 0.96255999042E+02 0.96252889325E+02 0.86527306230E+02 0.69846023688E+02 0.50541183936E+02
 0.32876731306E+02 0.19770718581E+02 0.12167086642E+02 0.90290810776E+01 0.79806100887E+01
 0.74671294253E+01 0.74668207815E+01 0.79802594876E+01 0.90293654135E+01 0.12167410766E+02
 0.19770070047E+02 0.32875897574E+02 0.50542824984E+02 0.69851539391E+02 0.86534103235E+02
 0.82046984999E+02 0.86547248953E+02 0.82042603340E+02 0.69846196161E+02 0.53318104244E+02
 0.36512416273E+02 0.22786145330E+02 0.13879303357E+02 0.96007238905E+01 0.81370355983E+01
 0.74346157663E+01 0.71920161356E+01 0.74338556987E+01 0.81368014059E+01 0.96013385245E+01
 0.13879259983E+02 0.22784381530E+02 0.36510635619E+02 0.53319347402E+02 0.69850841954E+02
 0.62754459640E+02 0.69891960340E+02 0.69892797262E+02 0.62756894822E+02 0.50540914809E+02
 0.36512108809E+02 0.23923293996E+02 0.14950108741E+02 0.10105119343E+02 0.82515795122E+01
 0.74264082542E+01 0.69965940832E+01 0.69962841441E+01 0.74259917256E+01 0.82518458448E+01
 0.10105877693E+02 0.14950105361E+02 0.23921485643E+02 0.36508780673E+02 0.50537407958E+02
 0.43039927163E+02 0.50620268538E+02 0.53430064142E+02 0.50625454506E+02 0.43046297970E+02
 0.32876002883E+02 0.22785857768E+02 0.14950169291E+02 0.10307962327E+02 0.83223724939E+01
 0.74296289426E+01 0.68794302770E+01 0.66978965837E+01 0.68795034638E+01 0.74296338397E+01
 0.83227181181E+01 0.10309384796E+02 0.14952235120E+02 0.22786288654E+02 0.32872610307E+02
 0.26744200542E+02 0.33001352758E+02 0.36706377620E+02 0.36707992296E+02 0.33004052388E+02
 0.26744180049E+02 0.19770328917E+02 0.13879480597E+02 0.10105378432E+02 0.83224918141E+01
 0.74323893247E+01 0.68267975564E+01 0.65320853186E+01 0.65324027261E+01 0.68270126033E+01
 0.74317253894E+01 0.83221081114E+01 0.10107397446E+02 0.13883854695E+02 0.19773967321E+02
 0.15899471885E+02 0.19938026654E+02 0.23063284032E+02 0.24238283978E+02 0.23061103166E+02
 0.19933812191E+02 0.15894494173E+02 0.12167368041E+02 0.96011681343E+01 0.82518554520E+01
 0.74297618434E+01 0.68267922237E+01 0.64797967947E+01 0.63700231158E+01 0.64803881232E+01
 0.68264487232E+01 0.74277267162E+01 0.82496699593E+01 0.96013385245E+01 0.12170744160E+02
 0.10447352094E+02 0.12349686628E+02 0.14208399571E+02 0.15357963554E+02 0.15355839451E+02
 0.14203864575E+02 0.12346557177E+02 0.10448055197E+02 0.90295659293E+01 0.81372813399E+01
 0.74264807510E+01 0.68793762628E+01 0.65319174117E+01 0.63699364754E+01 0.63703767850E+01
 0.65327051900E+01 0.68791959211E+01 0.74241695094E+01 0.81331242435E+01 0.90257706034E+01
 0.85582088446E+01 0.92016329755E+01 0.99356434326E+01 0.10552364328E+02 0.10794165331E+02
 0.10551075324E+02 0.99359923100E+01 0.92055643143E+01 0.85638989023E+01 0.79806647928E+01
 0.74344306956E+01 0.69964157623E+01 0.66976785175E+01 0.65322249544E+01 0.64803513253E+01
 0.65326953253E+01 0.66992491766E+01 0.69984139031E+01 0.74344102293E+01 0.79769722203E+01
 0.77992885689E+01 0.81440389636E+01 0.84558891979E+01 0.86950104821E+01 0.88355363293E+01
 0.88362812478E+01 0.86974902011E+01 0.84598093703E+01 0.81473138349E+01 0.77992569133E+01
 0.74666765848E+01 0.71916874708E+01 0.69961526703E+01 0.68794207135E+01 0.68270091892E+01
 0.68264506418E+01 0.68791671850E+01 0.69984607502E+01 0.71962639327E+01 0.74703711408E+01
 0.75369318412E+01 0.76320841509E+01 0.77460370357E+01 0.78595017328E+01 0.79455455211E+01
 0.79786894462E+01 0.79475305916E+01 0.78613887594E+01 0.77453901547E+01 0.76281884585E+01
 0.75315202640E+01 0.74664307401E+01 0.74338761650E+01 0.74261559610E+01 0.74297618434E+01
 0.74317965654E+01 0.74277218191E+01 0.74242612479E+01 0.74346157663E+01 0.74704339400E+01
 0.77991857413E+01 0.76320067959E+01 0.75037444983E+01 0.74274514891E+01 0.73966176811E+01
 0.73908350452E+01 0.73913742425E+01 0.73968398350E+01 0.74251545561E+01 0.74992522333E+01
 0.76284464122E+01 0.77992792988E+01 0.79804240863E+01 0.81372145036E+01 0.82521422850E+01
 0.83228611143E+01 0.83221317875E+01 0.82496904597E+01 0.81332915996E+01 0.79770821149E+01
 0.85581290641E+01 0.81439029001E+01 0.77459878133E+01 0.74274133504E+01 0.72162219387E+01
 0.71050317652E+01 0.70717600626E+01 0.71046799755E+01 0.72147521073E+01 0.74253952625E+01
 0.77459209416E+01 0.81475769269E+01 0.85639226460E+01 0.90298734721E+01 0.96016989212E+01
 0.10105988439E+02 0.10309338664E+02 0.10107249102E+02 0.96012546774E+01 0.90257938103E+01
 0.10447397444E+02 0.92016056938E+01 0.84558307452E+01 0.78594153729E+01 0.73965495813E+01
 0.71050731314E+01 0.69708709348E+01 0.69704770170E+01 0.71043812075E+01 0.73967817735E+01
 0.78616702801E+01 0.84598450463E+01 0.92052655463E+01 0.10448063971E+02 0.12167620682E+02
 0.13879169359E+02 0.14949870523E+02 0.14951939732E+02 0.13883586830E+02 0.12170672677E+02
 0.15899606172E+02 0.12349790948E+02 0.99356365289E+01 0.86949582336E+01 0.79454928402E+01
 0.73909151009E+01 0.70719100886E+01 0.69705260254E+01 0.70712292757E+01 0.73911796774E+01
 0.79475305916E+01 0.86971809678E+01 0.99354377794E+01 0.12346295775E+02 0.15894494173E+02
 0.19769672769E+02 0.22783950645E+02 0.23921210379E+02 0.22786145330E+02 0.19773959707E+02
 0.26744302899E+02 0.19938086837E+02 0.14208459162E+02 0.10552443701E+02 0.88355788566E+01
 0.79787097498E+01 0.73914712663E+01 0.71047695927E+01 0.71044294585E+01 0.73911966455E+01
 0.79793090002E+01 0.88359420331E+01 0.10550473017E+02 0.14204159339E+02 0.19934460624E+02
 0.26744187749E+02 0.32875400576E+02 0.36510581357E+02 0.36509033875E+02 0.32872841732E+02
 0.43039932769E+02 0.33001164130E+02 0.23063304417E+02 0.15358188408E+02 0.10794315757E+02
 0.88361811632E+01 0.79473818492E+01 0.73968483492E+01 0.72148637166E+01 0.73968583876E+01
 0.79474345301E+01 0.88357994213E+01 0.10792830853E+02 0.15356146994E+02 0.23062992175E+02
 0.33004662395E+02 0.43046316085E+02 0.50543044568E+02 0.53319993253E+02 0.50537896669E+02
 0.62754411249E+02 0.50619797960E+02 0.36706163917E+02 0.24238514256E+02 0.15356073008E+02
 0.10550930607E+02 0.86971197756E+01 0.78612320055E+01 0.74252979498E+01 0.74255767949E+01
 0.78615998861E+01 0.86968627907E+01 0.10550248927E+02 0.15356155696E+02 0.24240353252E+02
 0.36709497690E+02 0.50623339105E+02 0.62756909180E+02 0.69852296267E+02 0.69851426356E+02
 0.82046952970E+02 0.69891375445E+02 0.53429510388E+02 0.36708015989E+02 0.23061415408E+02
 0.14203889382E+02 0.99356365289E+01 0.84594994498E+01 0.77454570264E+01 0.74995363192E+01
 0.77460370357E+01 0.84595935785E+01 0.99350889019E+01 0.14204124555E+02 0.23063284032E+02
 0.36709735086E+02 0.53428157019E+02 0.69886700031E+02 0.82042603340E+02 0.86534560970E+02
 0.96255996472E+02 0.86546785550E+02 0.69892062603E+02 0.50625193676E+02 0.33004444444E+02
 0.19934204215E+02 0.12346464492E+02 0.92051847766E+01 0.81471832149E+01 0.76284857746E+01
 0.76288210834E+01 0.81475823704E+01 0.92049132903E+01 0.12346098770E+02 0.19934792465E+02
 0.33005243080E+02 0.50623548853E+02 0.69886550267E+02 0.86539983933E+02 0.96252882372E+02
 0.70440348733E+02 0.66797560651E+02 0.56918838608E+02 0.43526054077E+02 0.29966567605E+02
 0.19048508545E+02 0.12179753395E+02 0.90389887582E+01 0.78953447419E+01 0.72520934195E+01
 0.70346414543E+01 0.72521925019E+01 0.78954266935E+01 0.90389609178E+01 0.12179651042E+02
 0.19048440564E+02 0.29966584668E+02 0.43526107393E+02 0.56918863199E+02 0.66797555025E+02
 0.66799431566E+02 0.66797743718E+02 0.60024483474E+02 0.48408321222E+02 0.35039105941E+02
 0.23030574285E+02 0.14488800900E+02 0.99075968020E+01 0.81609173209E+01 0.73526414237E+01