   4   4   0   0
  0.1440902E+02  0.3862764E-09  0.3862764E-09  0.3862764E-09  0.5000000E-15
  1.000000000000000E-004
  CAR 
 unknown system                          
     25.39620719     -4.58004495  301      5.28051175      1.00000000
     -4.580  0.0000E+00  0.0000E+00
     -4.480  0.0000E+00  0.0000E+00
     -4.380  0.0000E+00  0.0000E+00
     -4.280  0.0000E+00  0.0000E+00
     -4.180 -0.9691E-29 -0.9683E-30
     -4.080 -0.2100E-25 -0.2099E-26
     -3.981 -0.2750E-22 -0.2750E-23
     -3.881 -0.2175E-19 -0.2176E-20
     -3.781 -0.1038E-16 -0.1039E-17
     -3.681 -0.2889E-14 -0.2897E-15
     -3.581 -0.4975E-12 -0.5000E-13
     -3.481 -0.5142E-10 -0.5188E-11
     -3.381 -0.3185E-08 -0.3234E-09
     -3.281 -0.1180E-06 -0.1212E-07
     -3.181 -0.2614E-05 -0.2733E-06
     -3.081 -0.3463E-04 -0.3733E-05
     -2.981 -0.2746E-03 -0.3117E-04
     -2.881 -0.1294E-02 -0.1605E-03
     -2.781 -0.3366E-02 -0.4968E-03
     -2.682 -0.2312E-02 -0.7278E-03
     -2.582  0.1634E-01  0.9053E-03
     -2.482  0.7015E-01  0.7915E-02
     -2.382  0.1489E+00  0.2279E-01
     -2.282  0.1990E+00  0.4268E-01
     -2.182  0.1876E+00  0.6142E-01
     -2.082  0.1853E+00  0.7994E-01
     -1.982  0.2907E+00  0.1090E+00
     -1.882  0.4333E+00  0.1523E+00
     -1.782  0.4182E+00  0.1941E+00
     -1.682  0.2534E+00  0.2194E+00
     -1.582  0.1962E+00  0.2390E+00
     -1.482  0.3549E+00  0.2744E+00
     -1.383  0.5403E+00  0.3284E+00
     -1.283  0.5852E+00  0.3869E+00
     -1.183  0.5003E+00  0.4369E+00
     -1.083  0.3941E+00  0.4763E+00
     -0.983  0.4495E+00  0.5212E+00
     -0.883  0.6491E+00  0.5860E+00
     -0.783  0.6381E+00  0.6498E+00
     -0.683  0.3789E+00  0.6877E+00
     -0.583  0.3519E+00  0.7228E+00
     -0.483  0.6630E+00  0.7891E+00
     -0.383  0.8712E+00  0.8761E+00
     -0.283  0.8025E+00  0.9563E+00
     -0.184  0.7555E+00  0.1032E+01
     -0.084  0.8914E+00  0.1121E+01
      0.016  0.8716E+00  0.1208E+01
      0.116  0.5408E+00  0.1262E+01
      0.216  0.3710E+00  0.1299E+01
      0.316  0.7020E+00  0.1369E+01
      0.416  0.1237E+01  0.1493E+01
      0.516  0.1422E+01  0.1635E+01
      0.616  0.1253E+01  0.1760E+01
      0.716  0.1125E+01  0.1873E+01
      0.816  0.1072E+01  0.1980E+01
      0.916  0.1053E+01  0.2085E+01
      1.016  0.1341E+01  0.2219E+01
      1.115  0.2015E+01  0.2420E+01
      1.215  0.2568E+01  0.2677E+01
      1.315  0.2713E+01  0.2948E+01
      1.415  0.3106E+01  0.3258E+01
      1.515  0.4172E+01  0.3675E+01
      1.615  0.5336E+01  0.4208E+01
      1.715  0.5981E+01  0.4806E+01
      1.815  0.6454E+01  0.5451E+01
      1.915  0.7861E+01  0.6236E+01
      2.015  0.1001E+02  0.7236E+01
      2.115  0.1139E+02  0.8374E+01
      2.215  0.1157E+02  0.9530E+01
      2.314  0.1123E+02  0.1065E+02
      2.414  0.1123E+02  0.1177E+02
      2.514  0.1218E+02  0.1299E+02
      2.614  0.1425E+02  0.1442E+02
      2.714  0.1667E+02  0.1608E+02
      2.814  0.1901E+02  0.1798E+02
      2.914  0.2169E+02  0.2015E+02
      3.014  0.2262E+02  0.2241E+02
      3.114  0.1972E+02  0.2438E+02
      3.214  0.1610E+02  0.2599E+02
      3.314  0.1597E+02  0.2758E+02
      3.414  0.1835E+02  0.2942E+02
      3.514  0.1931E+02  0.3135E+02
      3.613  0.1862E+02  0.3321E+02
      3.713  0.1973E+02  0.3518E+02
      3.813  0.2313E+02  0.3749E+02
      3.913  0.2333E+02  0.3982E+02
      4.013  0.1636E+02  0.4145E+02
      4.113  0.7102E+01  0.4216E+02
      4.213  0.1831E+01  0.4235E+02
      4.313  0.7868E+00  0.4243E+02
      4.413  0.1455E+01  0.4257E+02
      4.513  0.2015E+01  0.4277E+02
      4.613  0.1837E+01  0.4296E+02
      4.713  0.1230E+01  0.4308E+02
      4.813  0.6507E+00  0.4314E+02
      4.912  0.8336E+00  0.4323E+02
      5.012  0.1956E+01  0.4342E+02
      5.112  0.2634E+01  0.4369E+02
      5.212  0.2146E+01  0.4390E+02
      5.312  0.1358E+01  0.4404E+02
      5.412  0.8418E+00  0.4412E+02
      5.512  0.5760E+00  0.4418E+02
      5.612  0.5576E+00  0.4423E+02
      5.712  0.9935E+00  0.4433E+02
      5.812  0.1692E+01  0.4450E+02
      5.912  0.1889E+01  0.4469E+02
      6.012  0.1563E+01  0.4485E+02
      6.111  0.1416E+01  0.4499E+02
      6.211  0.1429E+01  0.4513E+02
      6.311  0.1167E+01  0.4525E+02
      6.411  0.9119E+00  0.4534E+02
      6.511  0.9088E+00  0.4543E+02
      6.611  0.7861E+00  0.4551E+02
      6.711  0.5498E+00  0.4556E+02
      6.811  0.7958E+00  0.4564E+02
      6.911  0.1540E+01  0.4580E+02
      7.011  0.1771E+01  0.4597E+02
      7.111  0.1228E+01  0.4610E+02
      7.211  0.9977E+00  0.4620E+02
      7.311  0.1352E+01  0.4633E+02
      7.410  0.1451E+01  0.4648E+02
      7.510  0.1143E+01  0.4659E+02
      7.610  0.8098E+00  0.4667E+02
      7.710  0.5051E+00  0.4672E+02
      7.810  0.3309E+00  0.4675E+02
      7.910  0.3990E+00  0.4679E+02
      8.010  0.6839E+00  0.4686E+02
      8.110  0.1039E+01  0.4697E+02
      8.210  0.1166E+01  0.4708E+02
      8.310  0.1218E+01  0.4720E+02
      8.410  0.1587E+01  0.4736E+02
      8.510  0.1880E+01  0.4755E+02
      8.610  0.1482E+01  0.4770E+02
      8.709  0.7569E+00  0.4777E+02
      8.809  0.5627E+00  0.4783E+02
      8.909  0.9523E+00  0.4793E+02
      9.009  0.1481E+01  0.4807E+02
      9.109  0.1917E+01  0.4827E+02
      9.209  0.1847E+01  0.4845E+02
      9.309  0.1144E+01  0.4856E+02
      9.409  0.5956E+00  0.4862E+02
      9.509  0.7832E+00  0.4870E+02
      9.609  0.1361E+01  0.4884E+02
      9.709  0.1723E+01  0.4901E+02
      9.809  0.1547E+01  0.4916E+02
      9.908  0.9566E+00  0.4926E+02
     10.008  0.4105E+00  0.4930E+02
     10.108  0.5111E+00  0.4935E+02
     10.208  0.1414E+01  0.4949E+02
     10.308  0.2231E+01  0.4972E+02
     10.408  0.1978E+01  0.4991E+02
     10.508  0.1191E+01  0.5003E+02
     10.608  0.8885E+00  0.5012E+02
     10.708  0.8885E+00  0.5021E+02
     10.808  0.7823E+00  0.5029E+02
     10.908  0.7532E+00  0.5036E+02
     11.008  0.7513E+00  0.5044E+02
     11.108  0.6071E+00  0.5050E+02
     11.207  0.6619E+00  0.5057E+02
     11.307  0.1119E+01  0.5068E+02
     11.407  0.1680E+01  0.5085E+02
     11.507  0.1892E+01  0.5104E+02
     11.607  0.1795E+01  0.5121E+02
     11.707  0.1817E+01  0.5140E+02
     11.807  0.1856E+01  0.5158E+02
     11.907  0.1577E+01  0.5174E+02
     12.007  0.1151E+01  0.5185E+02
     12.107  0.8856E+00  0.5194E+02
     12.207  0.9263E+00  0.5204E+02
     12.307  0.1280E+01  0.5216E+02
     12.406  0.1507E+01  0.5231E+02
     12.506  0.1369E+01  0.5245E+02
     12.606  0.1354E+01  0.5259E+02
     12.706  0.1615E+01  0.5275E+02
     12.806  0.1513E+01  0.5290E+02
     12.906  0.1313E+01  0.5303E+02
     13.006  0.1921E+01  0.5322E+02
     13.106  0.2673E+01  0.5349E+02
     13.206  0.2398E+01  0.5373E+02
     13.306  0.1512E+01  0.5388E+02
     13.406  0.1237E+01  0.5400E+02
     13.506  0.1686E+01  0.5417E+02
     13.606  0.1866E+01  0.5436E+02
     13.705  0.1408E+01  0.5450E+02
     13.805  0.1042E+01  0.5460E+02
     13.905  0.1231E+01  0.5473E+02
     14.005  0.1453E+01  0.5487E+02
     14.105  0.1393E+01  0.5501E+02
     14.205  0.1428E+01  0.5515E+02
     14.305  0.1507E+01  0.5530E+02
     14.405  0.1270E+01  0.5543E+02
     14.505  0.9446E+00  0.5552E+02
     14.605  0.1053E+01  0.5563E+02
     14.705  0.1917E+01  0.5582E+02
     14.805  0.2877E+01  0.5611E+02
     14.905  0.2628E+01  0.5637E+02
     15.004  0.1643E+01  0.5654E+02
     15.104  0.1587E+01  0.5669E+02
     15.204  0.2232E+01  0.5692E+02
     15.304  0.2158E+01  0.5713E+02
     15.404  0.1409E+01  0.5727E+02
     15.504  0.9499E+00  0.5737E+02
     15.604  0.9722E+00  0.5747E+02
     15.704  0.1064E+01  0.5757E+02
     15.804  0.1315E+01  0.5770E+02
     15.904  0.1961E+01  0.5790E+02
     16.004  0.2233E+01  0.5812E+02
     16.104  0.1598E+01  0.5828E+02
     16.203  0.1040E+01  0.5839E+02
     16.303  0.1315E+01  0.5852E+02
     16.403  0.1608E+01  0.5868E+02
     16.503  0.1201E+01  0.5880E+02
     16.603  0.7478E+00  0.5887E+02
     16.703  0.7498E+00  0.5895E+02
     16.803  0.7295E+00  0.5902E+02
     16.903  0.5483E+00  0.5908E+02
     17.003  0.4989E+00  0.5912E+02
     17.103  0.4453E+00  0.5917E+02
     17.203  0.3849E+00  0.5921E+02
     17.303  0.4878E+00  0.5926E+02
     17.403  0.4650E+00  0.5930E+02
     17.502  0.1992E+00  0.5932E+02
     17.602  0.2714E-02  0.5932E+02
     17.702 -0.3029E-01  0.5932E+02
     17.802 -0.2344E-01  0.5932E+02
     17.902 -0.1511E-01  0.5932E+02
     18.002  0.6098E-01  0.5932E+02
     18.102  0.2527E+00  0.5935E+02
     18.202  0.4983E+00  0.5940E+02
     18.302  0.6234E+00  0.5946E+02
     18.402  0.4507E+00  0.5950E+02
     18.502  0.1554E+00  0.5952E+02
     18.602  0.9539E-01  0.5953E+02
     18.702  0.2206E+00  0.5955E+02
     18.801  0.2194E+00  0.5957E+02
     18.901  0.7812E-01  0.5958E+02
     19.001  0.5204E-01  0.5959E+02
     19.101  0.2293E+00  0.5961E+02
     19.201  0.3946E+00  0.5965E+02
     19.301  0.3283E+00  0.5968E+02
     19.401  0.1271E+00  0.5969E+02
     19.501  0.1793E-02  0.5969E+02
     19.601 -0.2683E-01  0.5969E+02
     19.701 -0.3340E-01  0.5969E+02
     19.801  0.1558E-01  0.5969E+02
     19.901  0.2405E+00  0.5971E+02
     20.000  0.5085E+00  0.5977E+02
     20.100  0.4617E+00  0.5981E+02
     20.200  0.1700E+00  0.5983E+02
     20.300 -0.8677E-02  0.5983E+02
     20.400 -0.3231E-01  0.5982E+02
     20.500 -0.2057E-01  0.5982E+02
     20.600  0.3178E-01  0.5983E+02
     20.700  0.1692E+00  0.5984E+02
     20.800  0.2688E+00  0.5987E+02
     20.900  0.1886E+00  0.5989E+02
     21.000  0.4588E-01  0.5989E+02
     21.100 -0.1167E-01  0.5989E+02
     21.200 -0.9985E-02  0.5989E+02
     21.299 -0.6688E-02  0.5989E+02
     21.399 -0.1320E-01  0.5989E+02
     21.499  0.1552E-02  0.5989E+02
     21.599  0.1017E+00  0.5990E+02
     21.699  0.2434E+00  0.5992E+02
     21.799  0.2441E+00  0.5995E+02
     21.899  0.1028E+00  0.5996E+02
     21.999  0.1937E-02  0.5996E+02
     22.099 -0.1298E-01  0.5996E+02
     22.199 -0.4551E-02  0.5996E+02
     22.299 -0.7133E-03  0.5996E+02
     22.399 -0.6006E-04  0.5996E+02
     22.499 -0.2878E-05  0.5996E+02
     22.598 -0.1372E-06  0.5996E+02
     22.698 -0.2020E-05  0.5996E+02
     22.798 -0.4179E-04  0.5996E+02
     22.898 -0.4918E-03  0.5996E+02
     22.998 -0.3105E-02  0.5996E+02
     23.098 -0.8717E-02  0.5995E+02
     23.198  0.1810E-02  0.5996E+02
     23.298  0.7006E-01  0.5996E+02
     23.398  0.1637E+00  0.5998E+02
     23.498  0.1612E+00  0.5999E+02
     23.598  0.6629E-01  0.6000E+02
     23.698  0.5510E-03  0.6000E+02
     23.797 -0.8560E-02  0.6000E+02
     23.897 -0.2930E-02  0.6000E+02
     23.997 -0.4522E-03  0.6000E+02
     24.097 -0.3757E-04  0.6000E+02
     24.197 -0.1777E-05  0.6000E+02
     24.297 -0.4904E-07  0.6000E+02
     24.397 -0.8002E-09  0.6000E+02
     24.497 -0.7777E-11  0.6000E+02
     24.597 -0.4521E-13  0.6000E+02
     24.697 -0.1951E-15  0.6000E+02
     24.797  0.0000E+00  0.6000E+02
     24.897  0.0000E+00  0.6000E+02
     24.997  0.0000E+00  0.6000E+02
     25.096  0.0000E+00  0.6000E+02
     25.196  0.0000E+00  0.6000E+02
     25.296  0.0000E+00  0.6000E+02
     25.396  0.0000E+00  0.6000E+02
