    4    4    1    1
  0.1440902E+02  0.3862764E-09  0.3862764E-09  0.3862764E-09  0.5000000E-15
  1.000000000000000E-004
  CAR 
 unknown system                          
     44     35     30
 
  0.0000000E+00  0.0000000E+00  0.0000000E+00  0.1371742E-02
    1       -2.580045   1.000000
    2        1.515331   1.000000
    3        1.515331   1.000000
    4        1.515331   1.000000
    5        1.855247   1.000000
    6        1.855247   1.000000
    7        1.855247   1.000000
    8        2.873623   1.000000
    9        2.873623   1.000000
   10        2.873623   1.000000
   11        3.480947   1.000000
   12        3.480947   1.000000
   13        3.886610   1.000000
   14        3.886610   1.000000
   15        3.886610   1.000000
   16        4.000456   1.000000
   17        4.000456   1.000000
   18        4.000456   1.000000
   19        4.000456   1.000000
   20        4.000456   1.000000
   21        4.000456   1.000000
   22        7.007365  -0.000000
   23        7.007365  -0.000000
   24        7.007365  -0.000000
   25       11.184032   0.000000
   26       11.184032   0.000000
   27       11.184032   0.000000
   28       16.987838   0.000000
   29       16.987838   0.000000
   30       16.987838   0.000000
 
  0.1111111E+00  0.0000000E+00  0.0000000E+00  0.8230453E-02
    1       -2.449855   1.000000
    2        1.507171   1.000000
    3        1.569859   1.000000
    4        1.569859   1.000000
    5        1.884878   1.000000
    6        1.887033   1.000000
    7        1.887033   1.000000
    8        2.841798   1.000000
    9        2.899945   1.000000
   10        2.899945   1.000000
   11        3.452208   1.000000
   12        3.492912   1.000000
   13        3.833444   1.000000
   14        3.833444   1.000000
   15        3.849444   1.000000
   16        3.849444   1.000000
   17        3.874149   1.000000
   18        3.956416   1.000000
   19        3.956416   1.000000
   20        4.000530   1.000000
   21        4.000530   1.000000
   22        6.149664  -0.000000
   23        7.295412  -0.000000
   24        7.295412  -0.000000
   25       11.241794   0.000000
   26       11.241794   0.000000
   27       12.315412   0.000000
   28       16.161626   0.000000
   29       16.162309   0.000000
   30       16.378646   0.000000
 
  0.2222222E+00  0.0000000E+00  0.0000000E+00  0.8230453E-02
    1       -2.063353   1.000000
    2        1.431155   1.000000
    3        1.719102   1.000000
    4        1.719102   1.000000
    5        1.970518   1.000000
    6        1.982913   1.000000
    7        1.982913   1.000000
    8        2.750576   1.000000
    9        2.978235   1.000000
   10        2.978235   1.000000
   11        3.372100   1.000000
   12        3.461798   1.000000
   13        3.461798   1.000000
   14        3.527587   1.000000
   15        3.744284   1.000000
   16        3.744284   1.000000
   17        3.834156   1.000000
   18        3.834156   1.000000
   19        3.838388   1.000000
   20        4.000741   1.000000
   21        4.000741   1.000000
   22        4.726505   1.000319
   23        8.028877  -0.000000
   24        8.028877  -0.000000
   25       11.423264   0.000000
   26       11.423264   0.000000
   27       14.604350   0.000000
   28       14.638627   0.000000
   29       14.638627   0.000000
   30       15.183400   0.000000
 
  0.3333333E+00  0.0000000E+00  0.0000000E+00  0.8230453E-02
    1       -1.435360   1.000000
    2        1.094905   1.000000
    3        1.916182   1.000000
    4        1.916182   1.000000
    5        2.102721   1.000000
    6        2.146031   1.000000
    7        2.146031   1.000000
    8        2.611957   1.000000
    9        3.053489   1.000000
   10        3.053489   1.000000
   11        3.104444   1.000000
   12        3.104444   1.000000
   13        3.261482   1.000000
   14        3.580962   1.000000
   15        3.597496   1.000000
   16        3.597496   1.000000
   17        3.643045   1.000000
   18        3.659060   1.000000
   19        3.659060   1.000000
   20        3.783789   1.000000
   21        4.001023   1.000000
   22        4.001023   1.000000
   23        9.035830  -0.000000
   24        9.035830  -0.000000
   25       11.750973   0.000000
   26       11.750973   0.000000
   27       13.067388   0.000000
   28       13.067388   0.000000
   29       14.008400   0.000000
   30       14.008400   0.000000
 
  0.4444444E+00  0.0000000E+00  0.0000000E+00  0.8230453E-02
    1       -0.603326   1.000000
    2        0.329895   1.000000
    3        2.069915   1.000000
    4        2.069915   1.000000
    5        2.267068   1.000000
    6        2.379186   1.000000
    7        2.379186   1.000000
    8        2.443736   1.000000
    9        2.683837   1.000000
   10        2.683837   1.000000
   11        3.166783   1.000000
   12        3.202623   1.000000
   13        3.270099   1.000000
   14        3.270099   1.000000
   15        3.462106   1.000000
   16        3.462106   1.000000
   17        3.476510   1.000000
   18        3.476510   1.000000
   19        3.646788   1.000000
   20        3.717352   1.000000
   21        4.001000   1.000000
   22        4.001000   1.000000
   23       10.233569  -0.000000
   24       10.233569  -0.000000
   25       11.585601   0.000000
   26       11.585601   0.000000
   27       12.245208   0.000000
   28       12.245208   0.000000
   29       13.054111   0.000000
   30       13.054111   0.000000
 
  0.1111111E+00  0.1111111E+00  0.0000000E+00  0.1646091E-01
    1       -2.320487   1.000000
    2        1.564326   1.000000
    3        1.564326   1.000000
    4        1.621524   1.000000
    5        1.915609   1.000000
    6        1.915609   1.000000
    7        1.916883   1.000000
    8        2.825248   1.000000
    9        2.912161   1.000000
   10        2.921761   1.000000
   11        3.445031   1.000000
   12        3.488128   1.000000
   13        3.718946   1.000000
   14        3.749581   1.000000
   15        3.749581   1.000000
   16        3.814998   1.000000
   17        3.863407   1.000000
   18        3.863407   1.000000
   19        3.956237   1.000000
   20        3.956237   1.000000
   21        3.971657   1.000000
   22        6.424373  -0.000000
   23        6.424373  -0.000000
   24        7.560182  -0.000000
   25       11.301799   0.000000
   26       12.398912   0.000000
   27       12.398912   0.000000
   28       14.600223   0.000000
   29       16.329299   0.000000
   30       16.331701   0.000000
 
  0.2222222E+00  0.1111111E+00  0.0000000E+00  0.3292181E-01
    1       -1.936589   1.000000
    2        1.497504   1.000000
    3        1.721603   1.000000
    4        1.763070   1.000000
    5        1.998006   1.000000
    6        2.007243   1.000000
    7        2.008268   1.000000
    8        2.745240   1.000000
    9        2.982491   1.000000
   10        2.983708   1.000000
   11        3.375537   1.000000
   12        3.379740   1.000000
   13        3.402323   1.000000
   14        3.524324   1.000000
   15        3.565101   1.000000
   16        3.717035   1.000000
   17        3.753855   1.000000
   18        3.830896   1.000000
   19        3.833550   1.000000
   20        3.955834   1.000000
   21        3.956556   1.000000
   22        5.041259   1.035328
   23        7.084518  -0.000000
   24        8.254677  -0.000000
   25       11.489938   0.000000
   26       12.656714   0.000000
   27       12.946244   0.000000
   28       14.702523   0.000000
   29       14.796540   0.000000
   30       15.330764   0.000000
 
  0.3333333E+00  0.1111111E+00  0.0000000E+00  0.3292181E-01
    1       -1.313512   1.000000
    2        1.177153   1.000000
    3        1.931775   1.000000
    4        1.954022   1.000000
    5        2.125510   1.000000
    6        2.154167   1.000000
    7        2.165460   1.000000
    8        2.614089   1.000000
    9        2.975965   1.000000
   10        3.028100   1.000000
   11        3.061920   1.000000
   12        3.105975   1.000000
   13        3.267735   1.000000
   14        3.304038   1.000000
   15        3.579942   1.000000
   16        3.590796   1.000000
   17        3.607619   1.000000
   18        3.658294   1.000000
   19        3.741537   1.000000
   20        3.953553   1.000000
   21        3.955093   1.000000
   22        4.103100   1.000000
   23        7.950346  -0.000000
   24        9.231886  -0.000000
   25       11.440928   0.000000
   26       11.833705   0.000000
   27       13.097958   0.000000
   28       13.225407   0.000000
   29       14.151941   0.000000
   30       15.830016   0.000000
 
  0.4444444E+00  0.1111111E+00  0.0000000E+00  0.3292181E-01
    1       -0.489815   1.000000
    2        0.429936   1.000000
    3        2.103010   1.000000
    4        2.112571   1.000000
    5        2.283360   1.000000
    6        2.350879   1.000000
    7        2.389660   1.000000
    8        2.453210   1.000000
    9        2.624906   1.000000
   10        2.680368   1.000000
   11        3.061801   1.000000
   12        3.062336   1.000000
   13        3.270350   1.000000
   14        3.356646   1.000000
   15        3.461400   1.000000
   16        3.470450   1.000000
   17        3.481941   1.000000
   18        3.544912   1.000000
   19        3.676994   1.000000
   20        3.791272   1.000000
   21        3.953564   1.000000
   22        3.954226   1.000000
   23        8.962565  -0.000000
   24       10.119937  -0.000000
   25       10.410079  -0.000000
   26       11.749940   0.000000
   27       12.356594   0.000000
   28       13.079383   0.000000
   29       13.859497   0.000000
   30       14.739246   0.000000
 
  0.2222222E+00  0.2222222E+00  0.0000000E+00  0.1646091E-01
    1       -1.561057   1.000000
    2        1.681452   1.000000
    3        1.681452   1.000000
    4        1.881476   1.000000
    5        2.081551   1.000000
    6        2.081551   1.000000
    7        2.081834   1.000000
    8        2.705200   1.000000
    9        3.000708   1.000000
   10        3.022132   1.000000
   11        3.166111   1.000000
   12        3.166111   1.000000
   13        3.217283   1.000000
   14        3.358029   1.000000
   15        3.562171   1.000000
   16        3.638033   1.000000
   17        3.737559   1.000000
   18        3.737559   1.000000
   19        3.832079   1.000000
   20        3.832079   1.000000
   21        3.886849   1.000000
   22        5.658316  -0.011252
   23        5.658316  -0.011252
   24        8.874636  -0.000000
   25       11.195438   0.000000
   26       11.699362   0.000000
   27       14.986300   0.000000
   28       14.986300   0.000000
   29       15.258032   0.000000
   30       15.258032   0.000000
 
  0.3333333E+00  0.2222222E+00  0.0000000E+00  0.3292181E-01
    1       -0.954093   1.000000
    2        1.406476   1.000000
    3        1.933655   1.000000
    4        2.044145   1.000000
    5        2.193167   1.000000
    6        2.193801   1.000000
    7        2.221455   1.000000
    8        2.609812   1.000000
    9        2.799048   1.000000
   10        2.941382   1.000000
   11        2.947330   1.000000
   12        3.008402   1.000000
   13        3.123847   1.000000
   14        3.315106   1.000000
   15        3.524979   1.000000
   16        3.600317   1.000000
   17        3.655678   1.000000
   18        3.656806   1.000000
   19        3.667985   1.000000
   20        3.830368   1.000000
   21        3.848375   1.000000
   22        4.608368   1.000011
   23        6.411685  -0.000000
   24        9.669124  -0.000000
   25        9.786796  -0.000000
   26       12.071532   0.000000
   27       13.686728   0.000000
   28       14.467012   0.000000
   29       15.561425   0.000000
   30       15.992016   0.000000
 
  0.4444444E+00  0.2222222E+00  0.0000000E+00  0.3292181E-01
    1       -0.158492   1.000000
    2        0.715535   1.000000
    3        2.163587   1.000000
    4        2.228526   1.000000
    5        2.273387   1.000000
    6        2.331621   1.000000
    7        2.418184   1.000000
    8        2.477336   1.000000
    9        2.492805   1.000000
   10        2.666297   1.000000
   11        2.880417   1.000000
   12        2.950791   1.000000
   13        3.276931   1.000000
   14        3.363348   1.000000
   15        3.440584   1.000000
   16        3.462112   1.000000
   17        3.472037   1.000000
   18        3.507169   1.000000
   19        3.823474   1.000000
   20        3.829877   1.000000
   21        3.833731   1.000000
   22        4.073241   1.000000
   23        7.305240  -0.000000
   24        8.378128  -0.000000
   25       10.918301   0.000000
   26       12.227606   0.000000
   27       12.640869   0.000000
   28       13.437753   0.000000
   29       16.279828   0.000000
   30       16.961910   0.000000
 
  0.3333333E+00  0.3333333E+00  0.0000000E+00  0.1646091E-01
    1       -0.379360   1.000000
    2        1.724626   1.000000
    3        1.724626   1.000000
    4        2.118489   1.000000
    5        2.291803   1.000000
    6        2.305693   1.000000
    7        2.305693   1.000000
    8        2.575240   1.000000
    9        2.682705   1.000000
   10        2.682705   1.000000
   11        2.808500   1.000000
   12        2.964777   1.000000
   13        3.186276   1.000000
   14        3.270094   1.000000
   15        3.438176   1.000000
   16        3.529286   1.000000
   17        3.529286   1.000000
   18        3.657390   1.000000
   19        3.657390   1.000000
   20        3.751321   1.000000
   21        3.834535   1.000000
   22        5.204435   0.797540
   23        5.204435   0.797540
   24        8.148448  -0.000000
   25       10.632776  -0.000000
   26       12.494613   0.000000
   27       14.420314   0.000000
   28       14.420314   0.000000
   29       15.110326   0.000000
   30       15.110326   0.000000
 
  0.4444444E+00  0.3333333E+00  0.0000000E+00  0.3292181E-01
    1        0.357517   1.000000
    2        1.135265   1.000000
    3        2.017821   1.000000
    4        2.141739   1.000000
    5        2.396051   1.000000
    6        2.405132   1.000000
    7        2.456678   1.000000
    8        2.501321   1.000000
    9        2.502144   1.000000
   10        2.633194   1.000000
   11        2.746787   1.000000
   12        2.876479   1.000000
   13        3.285567   1.000000
   14        3.306600   1.000000
   15        3.370742   1.000000
   16        3.398893   1.000000
   17        3.407532   1.000000
   18        3.472104   1.000000
   19        3.666012   1.000000
   20        3.692638   1.000000
   21        4.076381   1.000000
   22        4.468808   1.000000
   23        5.947423  -0.000013
   24        6.911013  -0.000000
   25       11.711016   0.000000
   26       12.982563   0.000000
   27       13.127735   0.000000
   28       13.996472   0.000000
   29       15.391351   0.000000
   30       15.974405   0.000000
 
  0.4444444E+00  0.4444444E+00  0.0000000E+00  0.1646091E-01
    1        0.983351   1.000000
    2        1.584470   1.000000
    3        1.584470   1.000000
    4        1.931984   1.000000
    5        2.492011   1.000000
    6        2.492011   1.000000
    7        2.509766   1.000000
    8        2.553527   1.000000
    9        2.573658   1.000000
   10        2.657456   1.000000
   11        2.657456   1.000000
   12        2.798400   1.000000
   13        3.235827   1.000000
   14        3.291251   1.000000
   15        3.298096   1.000000
   16        3.298096   1.000000
   17        3.380089   1.000000
   18        3.504884   1.000000
   19        3.504884   1.000000
   20        3.576371   1.000000
   21        4.434147   1.000000
   22        5.004382   1.032456
   23        5.004382   1.032456
   24        5.787454  -0.000990
   25       12.741775   0.000000
   26       13.836547   0.000000
   27       13.976462   0.000000
   28       13.976462   0.000000
   29       14.783929   0.000000
   30       14.783931   0.000000
 
  0.1111111E+00  0.1111111E+00  0.1111111E+00  0.1097394E-01
    1       -2.192015   1.000000
    2        1.618035   1.000000
    3        1.618035   1.000000
    4        1.618035   1.000000
    5        1.944736   1.000000
    6        1.944736   1.000000
    7        1.944736   1.000000
    8        2.811435   1.000000
    9        2.930879   1.000000
   10        2.930879   1.000000
   11        3.463057   1.000000
   12        3.463057   1.000000
   13        3.651755   1.000000
   14        3.651755   1.000000
   15        3.651755   1.000000
   16        3.773827   1.000000
   17        3.773827   1.000000
   18        3.773827   1.000000
   19        3.961433   1.000000
   20        3.961433   1.000000
   21        3.961433   1.000000
   22        6.666856  -0.000000
   23        6.666856  -0.000000
   24        6.666856  -0.000000
   25       12.484053   0.000000
   26       12.484053   0.000000
   27       12.484053   0.000000
   28       14.757880   0.000000
   29       14.757880   0.000000
   30       14.757880   0.000000
 
  0.2222222E+00  0.1111111E+00  0.1111111E+00  0.3292181E-01
    1       -1.811086   1.000000
    2        1.557916   1.000000
    3        1.764903   1.000000
    4        1.764903   1.000000
    5        2.025390   1.000000
    6        2.032790   1.000000
    7        2.032790   1.000000
    8        2.741854   1.000000
    9        2.983607   1.000000
   10        2.986965   1.000000
   11        3.325770   1.000000
   12        3.325770   1.000000
   13        3.399248   1.000000
   14        3.448758   1.000000
   15        3.514264   1.000000
   16        3.665854   1.000000
   17        3.689061   1.000000
   18        3.689061   1.000000
   19        3.924965   1.000000
   20        3.944829   1.000000
   21        3.944829   1.000000
   22        5.273824   0.528282
   23        7.278795  -0.000000
   24        7.278795  -0.000000
   25       12.731821   0.000000
   26       12.731821   0.000000
   27       13.117551   0.000000
   28       13.117551   0.000000
   29       14.786269   0.000000
   30       15.231636   0.000000
 
  0.3333333E+00  0.1111111E+00  0.1111111E+00  0.3292181E-01
    1       -1.193672   1.000000
    2        1.251306   1.000000
    3        1.964145   1.000000
    4        1.964145   1.000000
    5        2.149998   1.000000
    6        2.173563   1.000000
    7        2.173563   1.000000
    8        2.619599   1.000000
    9        2.963356   1.000000
   10        2.963356   1.000000
   11        3.046399   1.000000
   12        3.080125   1.000000
   13        3.155160   1.000000
   14        3.355769   1.000000
   15        3.518489   1.000000
   16        3.568648   1.000000
   17        3.568648   1.000000
   18        3.590996   1.000000
   19        3.860784   1.000000
   20        3.930015   1.000000
   21        3.930015   1.000000
   22        4.267104   1.000000
   23        8.109620  -0.000000
   24        8.109620  -0.000000
   25       11.588614   0.000000
   26       11.588614   0.000000
   27       13.226123   0.000000
   28       13.226123   0.000000
   29       15.937552   0.000000
   30       15.968288   0.000000
 
  0.4444444E+00  0.1111111E+00  0.1111111E+00  0.3292181E-01
    1       -0.379818   1.000000
    2        0.523858   1.000000
    3        2.143575   1.000000
    4        2.143575   1.000000
    5        2.303260   1.000000
    6        2.331504   1.000000
    7        2.331504   1.000000
    8        2.466424   1.000000
    9        2.659776   1.000000
   10        2.659776   1.000000
   11        2.998231   1.000000
   12        3.021247   1.000000
   13        3.206795   1.000000
   14        3.358153   1.000000
   15        3.460626   1.000000
   16        3.460626   1.000000
   17        3.466485   1.000000
   18        3.682291   1.000000
   19        3.745463   1.000000
   20        3.776252   1.000000
   21        3.923542   1.000000
   22        3.923542   1.000000
   23        9.086870  -0.000000
   24        9.086870  -0.000000
   25       10.286724  -0.000000
   26       10.286724  -0.000000
   27       13.899721   0.000000
   28       13.899721   0.000000
   29       14.876436   0.000000
   30       14.876436   0.000000
 
  0.2222222E+00  0.2222222E+00  0.1111111E+00  0.3292181E-01
    1       -1.439727   1.000000
    2        1.721920   1.000000
    3        1.721920   1.000000
    4        1.878547   1.000000
    5        2.108502   1.000000
    6        2.108502   1.000000
    7        2.108891   1.000000
    8        2.709736   1.000000
    9        2.998128   1.000000
   10        3.009653   1.000000
   11        3.129546   1.000000
   12        3.129546   1.000000
   13        3.158566   1.000000
   14        3.401744   1.000000
   15        3.543672   1.000000
   16        3.575385   1.000000
   17        3.593490   1.000000
   18        3.593490   1.000000
   19        3.910871   1.000000
   20        3.910871   1.000000
   21        3.910883   1.000000
   22        5.817654  -0.000485
   23        5.817654  -0.000485
   24        7.800598  -0.000000
   25       11.346426   0.000000
   26       13.043931   0.000000
   27       13.525616   0.000000
   28       13.525616   0.000000
   29       15.122918   0.000000
   30       15.122918   0.000000
 
  0.3333333E+00  0.2222222E+00  0.1111111E+00  0.6584362E-01
    1       -0.841038   1.000000
    2        1.452012   1.000000
    3        1.938964   1.000000
    4        2.026963   1.000000
    5        2.221825   1.000000
    6        2.225721   1.000000
    7        2.241436   1.000000
    8        2.625958   1.000000
    9        2.816618   1.000000
   10        2.917860   1.000000
   11        2.921441   1.000000
   12        3.003273   1.000000
   13        3.072097   1.000000
   14        3.394990   1.000000
   15        3.448727   1.000000
   16        3.471812   1.000000
   17        3.507818   1.000000
   18        3.650526   1.000000
   19        3.841503   1.000000
   20        3.870997   1.000000
   21        3.871479   1.000000
   22        4.697979   1.000151
   23        6.533935  -0.000000
   24        8.525024  -0.000000
   25        9.864366  -0.000000
   26       12.020639   0.000000
   27       13.536180   0.000000
   28       14.235305   0.000000
   29       15.627883   0.000000
   30       16.384956   0.000000
 
  0.4444444E+00  0.2222222E+00  0.1111111E+00  0.6584362E-01
    1       -0.060527   1.000000
    2        0.788001   1.000000
    3        2.141423   1.000000
    4        2.181633   1.000000
    5        2.284187   1.000000
    6        2.334187   1.000000
    7        2.364461   1.000000
    8        2.504042   1.000000
    9        2.631993   1.000000
   10        2.710418   1.000000
   11        2.870627   1.000000
   12        2.942976   1.000000
   13        3.166810   1.000000
   14        3.296494   1.000000
   15        3.394957   1.000000
   16        3.413599   1.000000
   17        3.511764   1.000000
   18        3.708058   1.000000
   19        3.800747   1.000000
   20        3.847291   1.000000
   21        3.847351   1.000000
   22        4.071132   1.000000
   23        7.403149  -0.000000
   24        8.420089  -0.000000
   25        9.633150  -0.000000
   26       10.712728  -0.000000
   27       14.257741   0.000000
   28       15.178645   0.000000
   29       15.204019   0.000000
   30       16.336828   0.000000
 
  0.3333333E+00  0.3333333E+00  0.1111111E+00  0.3292181E-01
    1       -0.280332   1.000000
    2        1.710829   1.000000
    3        1.710829   1.000000
    4        2.054770   1.000000
    5        2.333221   1.000000
    6        2.356219   1.000000
    7        2.356219   1.000000
    8        2.610080   1.000000
    9        2.715977   1.000000
   10        2.715977   1.000000
   11        2.835130   1.000000
   12        2.964414   1.000000
   13        3.086161   1.000000
   14        3.365650   1.000000
   15        3.386449   1.000000
   16        3.386449   1.000000
   17        3.392429   1.000000
   18        3.780844   1.000000
   19        3.780844   1.000000
   20        3.802024   1.000000
   21        3.811215   1.000000
   22        5.269829   0.545131
   23        5.269829   0.545131
   24        8.151639  -0.000000
   25        9.423619  -0.000000
   26       12.711802   0.000000
   27       12.711802   0.000000
   28       14.068423   0.000000
   29       16.136112   0.000000
   30       17.027992   0.000000
 
  0.4444444E+00  0.3333333E+00  0.1111111E+00  0.6584362E-01
    1        0.429768   1.000000
    2        1.162496   1.000000
    3        1.925990   1.000000
    4        2.033873   1.000000
    5        2.435229   1.000000
    6        2.471123   1.000000
    7        2.477136   1.000000
    8        2.557118   1.000000
    9        2.631527   1.000000
   10        2.734788   1.000000
   11        2.761569   1.000000
   12        2.880856   1.000000
   13        3.137713   1.000000
   14        3.246571   1.000000
   15        3.296589   1.000000
   16        3.315067   1.000000
   17        3.475860   1.000000
   18        3.638482   1.000000
   19        3.741077   1.000000
   20        3.749667   1.000000
   21        4.051264   1.000000
   22        4.468628   1.000000
   23        6.004748  -0.000002
   24        6.963208  -0.000000
   25       10.286657  -0.000000
   26       11.394293   0.000000
   27       13.637289   0.000000
   28       14.781123   0.000000
   29       14.834277   0.000000
   30       15.831885   0.000000
 
  0.4444444E+00  0.4444444E+00  0.1111111E+00  0.3292181E-01
    1        1.007672   1.000000
    2        1.540918   1.000000
    3        1.540918   1.000000
    4        1.830918   1.000000
    5        2.585107   1.000000
    6        2.603624   1.000000
    7        2.609280   1.000000
    8        2.609280   1.000000
    9        2.683416   1.000000
   10        2.683416   1.000000
   11        2.711851   1.000000
   12        2.811784   1.000000
   13        3.127772   1.000000
   14        3.197301   1.000000
   15        3.197301   1.000000
   16        3.208275   1.000000
   17        3.497878   1.000000
   18        3.608807   1.000000
   19        3.608807   1.000000
   20        3.654392   1.000000
   21        4.413072   1.000000
   22        5.011737   1.033608
   23        5.011737   1.033608
   24        5.816273  -0.000502
   25       11.188678   0.000000
   26       12.306319   0.000000
   27       12.306319   0.000000
   28       13.436522   0.000000
   29       15.645980   0.000000
   30       16.688413   0.000000
 
  0.2222222E+00  0.2222222E+00  0.2222222E+00  0.1097394E-01
    1       -1.082090   1.000000
    2        1.819837   1.000000
    3        1.819837   1.000000
    4        1.819837   1.000000
    5        2.195427   1.000000
    6        2.195427   1.000000
    7        2.195427   1.000000
    8        2.707973   1.000000
    9        2.996949   1.000000
   10        2.996949   1.000000
   11        3.008408   1.000000
   12        3.008408   1.000000
   13        3.008408   1.000000
   14        3.444325   1.000000
   15        3.444325   1.000000
   16        3.444325   1.000000
   17        3.505210   1.000000
   18        3.505210   1.000000
   19        3.932724   1.000000
   20        3.932724   1.000000
   21        3.932724   1.000000
   22        6.247278  -0.000000
   23        6.247278  -0.000000
   24        6.247278  -0.000000
   25       11.781678   0.000000
   26       11.781678   0.000000
   27       11.781678   0.000000
   28       15.437458   0.000000
   29       15.437458   0.000000
   30       15.437458   0.000000
 
  0.3333333E+00  0.2222222E+00  0.2222222E+00  0.3292181E-01
    1       -0.511227   1.000000
    2        1.560383   1.000000
    3        1.925994   1.000000
    4        1.925994   1.000000
    5        2.325066   1.000000
    6        2.325066   1.000000
    7        2.330148   1.000000
    8        2.670900   1.000000
    9        2.855855   1.000000
   10        2.855855   1.000000
   11        2.863532   1.000000
   12        2.986014   1.000000
   13        3.013607   1.000000
   14        3.299921   1.000000
   15        3.352512   1.000000
   16        3.352512   1.000000
   17        3.519463   1.000000
   18        3.630285   1.000000
   19        3.899131   1.000000
   20        3.899131   1.000000
   21        3.914164   1.000000
   22        4.988567   1.029404
   23        6.867180  -0.000000
   24        6.867180  -0.000000
   25       10.283404  -0.000000
   26       10.283404  -0.000000
   27       12.476875   0.000000
   28       15.914907   0.000000
   29       15.970810   0.000000
   30       15.970810   0.000000
 
  0.4444444E+00  0.2222222E+00  0.2222222E+00  0.3292181E-01
    1        0.217709   1.000000
    2        0.980584   1.000000
    3        2.001050   1.000000
    4        2.001050   1.000000
    5        2.400986   1.000000
    6        2.400986   1.000000
    7        2.473660   1.000000
    8        2.590588   1.000000
    9        2.792084   1.000000
   10        2.792084   1.000000
   11        2.842201   1.000000
   12        2.918973   1.000000
   13        3.071478   1.000000
   14        3.169902   1.000000
   15        3.287835   1.000000
   16        3.287835   1.000000
   17        3.709744   1.000000
   18        3.751829   1.000000
   19        3.851125   1.000000
   20        3.861847   1.000000
   21        3.861847   1.000000
   22        4.163322   1.000000
   23        7.567433  -0.000000
   24        7.567433  -0.000000
   25        9.139202  -0.000000
   26        9.139202  -0.000000
   27       13.406741   0.000000
   28       14.555019   0.000000
   29       16.719206   0.000000
   30       16.719206   0.000000
 
  0.3333333E+00  0.3333333E+00  0.2222222E+00  0.3292181E-01
    1        0.001868   1.000000
    2        1.672438   1.000000
    3        1.672438   1.000000
    4        1.882046   1.000000
    5        2.451398   1.000000
    6        2.488284   1.000000
    7        2.488284   1.000000