unknown system                          
   1.00000000000000     
     3.635000    0.000000    0.000000
     0.000000    3.635000    0.000000
     0.000000    0.000000    3.635000
   Cu
     4
Direct
  0.000000  0.000000  0.000000
  0.500000  0.500000  0.000000
  0.500000  0.000000  0.500000
  0.000000  0.500000  0.500000
 
   24   24   24
  817.71      736.91      535.88      308.73      139.01      54.487      27.790      15.093      7.8797      6.9619    
  7.1671      5.5596      4.3399      5.5596      7.1671      6.9619      7.8797      15.093      27.790      54.487    
  139.01      308.73      535.88      736.91      736.91      663.57      481.38      276.27      124.25      49.814    
  26.486      14.401      7.8260      7.2128      7.7013      6.5368      5.5596      6.5368      7.7013      7.2128    
  7.8260      14.401      26.486      49.814      124.25      276.27      481.38      663.57      535.88      481.38    
  346.68      197.01      89.190      39.187      23.058      12.649      7.6151      7.4283      8.1633      7.7013    
  7.1671      7.7013      8.1633      7.4283      7.6151      12.649      23.058      39.187      89.190      197.01    
  346.68      481.38      308.73      276.27      197.01      111.57      53.644      29.012      18.297      10.534    
  7.2478      7.0612      7.4283      7.2128      6.9619      7.2128      7.4283      7.0612      7.2478      10.534    
  18.297      29.012      53.644      111.57      197.01      276.27      139.01      124.25      89.190      53.644    
  31.779      21.299      13.408      8.7580      7.2035      7.2478      7.6151      7.8260      7.8797      7.8260    
  7.6151      7.2478      7.2035      8.7580      13.408      21.299      31.779      53.644      89.190      124.25    
  54.487      49.814      39.187      29.012      21.299      14.349      9.7468      8.1334      8.7580      10.534    
  12.649      14.401      15.093      14.401      12.649      10.534      8.7580      8.1334      9.7468      14.349    
  21.299      29.012      39.187      49.814      27.790      26.486      23.058      18.297      13.408      9.7468    
  8.3894      9.7468      13.408      18.297      23.058      26.486      27.790      26.486      23.058      18.297    
  13.408      9.7468      8.3894      9.7468      13.408      18.297      23.058      26.486      15.093      14.401    
  12.649      10.534      8.7580      8.1334      9.7468      14.349      21.299      29.012      39.187      49.814    
  54.487      49.814      39.187      29.012      21.299      14.349      9.7468      8.1334      8.7580      10.534    
  12.649      14.401      7.8797      7.8260      7.6151      7.2478      7.2035      8.7580      13.408      21.299    
  31.779      53.644      89.190      124.25      139.01      124.25      89.190      53.644      31.779      21.299    
  13.408      8.7580      7.2035      7.2478      7.6151      7.8260      6.9619      7.2128      7.4283      7.0612    
  7.2478      10.534      18.297      29.012      53.644      111.57      197.01      276.27      308.73      276.27    
  197.01      111.57      53.644      29.012      18.297      10.534      7.2478      7.0612      7.4283      7.2128    
  7.1671      7.7013      8.1633      7.4283      7.6151      12.649      23.058      39.187      89.190      197.01    
  346.68      481.38      535.88      481.38      346.68      197.01      89.190      39.187      23.058      12.649    
  7.6151      7.4283      8.1633      7.7013      5.5596      6.5368      7.7013      7.2128      7.8260      14.401    
  26.486      49.814      124.25      276.27      481.38      663.57      736.91      663.57      481.38      276.27    
  124.25      49.814      26.486      14.401      7.8260      7.2128      7.7013      6.5368      4.3399      5.5596    
  7.1671      6.9619      7.8797      15.093      27.790      54.487      139.01      308.73      535.88      736.91    
  817.71      736.91      535.88      308.73      139.01      54.487      27.790      15.093      7.8797      6.9619    
  7.1671      5.5596      5.5596      6.5368      7.7013      7.2128      7.8260      14.401      26.486      49.814    
  124.25      276.27      481.38      663.57      736.91      663.57      481.38      276.27      124.25      49.814    
  26.486      14.401      7.8260      7.2128      7.7013      6.5368      7.1671      7.7013      8.1633      7.4283    
  7.6151      12.649      23.058      39.187      89.190      197.01      346.68      481.38      535.88      481.38    
  346.68      197.01      89.190      39.187      23.058      12.649      7.6151      7.4283      8.1633      7.7013    
  6.9619      7.2128      7.4283      7.0612      7.2478      10.534      18.297      29.012      53.644      111.57    
  197.01      276.27      308.73      276.27      197.01      111.57      53.644      29.012      18.297      10.534    
  7.2478      7.0612      7.4283      7.2128      7.8797      7.8260      7.6151      7.2478      7.2035      8.7580    
  13.408      21.299      31.779      53.644      89.190      124.25      139.01      124.25      89.190      53.644    
  31.779      21.299      13.408      8.7580      7.2035      7.2478      7.6151      7.8260      15.093      14.401    
  12.649      10.534      8.7580      8.1334      9.7468      14.349      21.299      29.012      39.187      49.814    
  54.487      49.814      39.187      29.012      21.299      14.349      9.7468      8.1334      8.7580      10.534    
  12.649      14.401      27.790      26.486      23.058      18.297      13.408      9.7468      8.3894      9.7468    
  13.408      18.297      23.058      26.486      27.790      26.486      23.058      18.297      13.408      9.7468    
  8.3894      9.7468      13.408      18.297      23.058      26.486      54.487      49.814      39.187      29.012    
  21.299      14.349      9.7468      8.1334      8.7580      10.534      12.649      14.401      15.093      14.401    
  12.649      10.534      8.7580      8.1334      9.7468      14.349      21.299      29.012      39.187      49.814    
  139.01      124.25      89.190      53.644      31.779      21.299      13.408      8.7580      7.2035      7.2478    
  7.6151      7.8260      7.8797      7.8260      7.6151      7.2478      7.2035      8.7580      13.408      21.299    
  31.779      53.644      89.190      124.25      308.73      276.27      197.01      111.57      53.644      29.012    
  18.297      10.534      7.2478      7.0612      7.4283      7.2128      6.9619      7.2128      7.4283      7.0612    
  7.2478      10.534      18.297      29.012      53.644      111.57      197.01      276.27      535.88      481.38    
  346.68      197.01      89.190      39.187      23.058      12.649      7.6151      7.4283      8.1633      7.7013    
  7.1671      7.7013      8.1633      7.4283      7.6151      12.649      23.058      39.187      89.190      197.01    
  346.68      481.38      736.91      663.57      481.38      276.27      124.25      49.814      26.486      14.401    
  7.8260      7.2128      7.7013      6.5368      5.5596      6.5368      7.7013      7.2128      7.8260      14.401    
  26.486      49.814      124.25      276.27      481.38      663.57      736.91      663.57      481.38      276.27    
  124.25      49.814      26.486      14.401      7.8260      7.2128      7.7013      6.5368      5.5596      6.5368    
  7.7013      7.2128      7.8260      14.401      26.486      49.814      124.25      276.27      481.38      663.57    
  663.57      597.06      432.07      247.07      111.16      45.767      25.286      13.761      7.7540      7.3758    
  8.0840      7.3005      6.5368      7.3005      8.0840      7.3758      7.7540      13.761      25.286      45.767    
  111.16      247.07      432.07      597.06      481.38      432.07      310.45      176.00      80.195      36.599    
  22.043      12.154      7.5296      7.4485      8.2903      8.0840      7.7013      8.0840      8.2903      7.4485    
  7.5296      12.154      22.043      36.599      80.195      176.00      310.45      432.07      276.27      247.07    
  176.00      99.956      49.135      27.754      17.557      10.244      7.2055      7.0434      7.4485      7.3758    
  7.2128      7.3758      7.4485      7.0434      7.2055      10.244      17.557      27.754      49.135      99.956    
  176.00      247.07      124.25      111.16      80.195      49.135      30.225      20.528      13.003      8.6612    
  7.2056      7.2055      7.5296      7.7540      7.8260      7.7540      7.5296      7.2055      7.2056      8.6612    
  13.003      20.528      30.225      49.135      80.195      111.16      49.814      45.767      36.599      27.754    
  20.528      13.929      9.6259      8.1221      8.6612      10.244      12.154      13.761      14.401      13.761    
  12.154      10.244      8.6612      8.1221      9.6259      13.929      20.528      27.754      36.599      45.767    
  26.486      25.286      22.043      17.557      13.003      9.6259      8.3806      9.6259      13.003      17.557    
  22.043      25.286      26.486      25.286      22.043      17.557      13.003      9.6259      8.3806      9.6259    
  13.003      17.557      22.043      25.286      14.401      13.761      12.154      10.244      8.6612      8.1221    
  9.6259      13.929      20.528      27.754      36.599      45.767      49.814      45.767      36.599      27.754    
  20.528      13.929      9.6259      8.1221      8.6612      10.244      12.154      13.761      7.8260      7.7540    
  7.5296      7.2055      7.2056      8.6612      13.003      20.528      30.225      49.135      80.195      111.16    
  124.25      111.16      80.195      49.135      30.225      20.528      13.003      8.6612      7.2056      7.2055    
  7.5296      7.7540      7.2128      7.3758      7.4485      7.0434      7.2055      10.244      17.557      27.754    
  49.135      99.956      176.00      247.07      276.27      247.07      176.00      99.956      49.135      27.754    
  17.557      10.244      7.2055      7.0434      7.4485      7.3758      7.7013      8.0840      8.2903      7.4485    
  7.5296      12.154      22.043      36.599      80.195      176.00      310.45      432.07      481.38      432.07    
  310.45      176.00      80.195      36.599      22.043      12.154      7.5296      7.4485      8.2903      8.0840    
  6.5368      7.3005      8.0840      7.3758      7.7540      13.761      25.286      45.767      111.16      247.07    
  432.07      597.06      663.57      597.06      432.07      247.07      111.16      45.767      25.286      13.761    
  7.7540      7.3758      8.0840      7.3005      5.5596      6.5368      7.7013      7.2128      7.8260      14.401    
  26.486      49.814      124.25      276.27      481.38      663.57      736.91      663.57      481.38      276.27    
  124.25      49.814      26.486      14.401      7.8260      7.2128      7.7013      6.5368      6.5368      7.3005    
  8.0840      7.3758      7.7540      13.761      25.286      45.767      111.16      247.07      432.07      597.06    
  663.57      597.06      432.07      247.07      111.16      45.767      25.286      13.761      7.7540      7.3758    
  8.0840      7.3005      7.7013      8.0840      8.2903      7.4485      7.5296      12.154      22.043      36.599    
  80.195      176.00      310.45      432.07      481.38      432.07      310.45      176.00      80.195      36.599    
  22.043      12.154      7.5296      7.4485      8.2903      8.0840      7.2128      7.3758      7.4485      7.0434    
  7.2055      10.244      17.557      27.754      49.135      99.956      176.00      247.07      276.27      247.07    
  176.00      99.956      49.135      27.754      17.557      10.244      7.2055      7.0434      7.4485      7.3758    
  7.8260      7.7540      7.5296      7.2055      7.2056      8.6612      13.003      20.528      30.225      49.135    
  80.195      111.16      124.25      111.16      80.195      49.135      30.225      20.528      13.003      8.6612    
  7.2056      7.2055      7.5296      7.7540      14.401      13.761      12.154      10.244      8.6612      8.1221    
  9.6259      13.929      20.528      27.754      36.599      45.767      49.814      45.767      36.599      27.754    
  20.528      13.929      9.6259      8.1221      8.6612      10.244      12.154      13.761      26.486      25.286    
  22.043      17.557      13.003      9.6259      8.3806      9.6259      13.003      17.557      22.043      25.286    
  26.486      25.286      22.043      17.557      13.003      9.6259      8.3806      9.6259      13.003      17.557    
  22.043      25.286      49.814      45.767      36.599      27.754      20.528      13.929      9.6259      8.1221    
  8.6612      10.244      12.154      13.761      14.401      13.761      12.154      10.244      8.6612      8.1221    
  9.6259      13.929      20.528      27.754      36.599      45.767      124.25      111.16      80.195      49.135    
  30.225      20.528      13.003      8.6612      7.2056      7.2055      7.5296      7.7540      7.8260      7.7540    
  7.5296      7.2055      7.2056      8.6612      13.003      20.528      30.225      49.135      80.195      111.16    
  276.27      247.07      176.00      99.956      49.135      27.754      17.557      10.244      7.2055      7.0434    
  7.4485      7.3758      7.2128      7.3758      7.4485      7.0434      7.2055      10.244      17.557      27.754    
  49.135      99.956      176.00      247.07      481.38      432.07      310.45      176.00      80.195      36.599    
  22.043      12.154      7.5296      7.4485      8.2903      8.0840      7.7013      8.0840      8.2903      7.4485    
  7.5296      12.154      22.043      36.599      80.195      176.00      310.45      432.07      663.57      597.06    
  432.07      247.07      111.16      45.767      25.286      13.761      7.7540      7.3758      8.0840      7.3005    
  6.5368      7.3005      8.0840      7.3758      7.7540      13.761      25.286      45.767      111.16      247.07    
  432.07      597.06      535.88      481.38      346.68      197.01      89.190      39.187      23.058      12.649    
  7.6151      7.4283      8.1633      7.7013      7.1671      7.7013      8.1633      7.4283      7.6151      12.649    
  23.058      39.187      89.190      197.01      346.68      481.38      481.38      432.07      310.45      176.00    
  80.195      36.599      22.043      12.154      7.5296      7.4485      8.2903      8.0840      7.7013      8.0840    
  8.2903      7.4485      7.5296      12.154      22.043      36.599      80.195      176.00      310.45      432.07    
  346.68      310.45      221.73      125.42      59.270      30.735      19.292      10.933      7.3273      7.3300    
  8.1460      8.2903      8.1633      8.2903      8.1460      7.3300      7.3273      10.933      19.292      30.735    
  59.270      125.42      221.73      310.45      197.01      176.00      125.42      72.667      38.957      24.643    
  15.583      9.5229      7.1250      6.9670      7.3300      7.4485      7.4283      7.4485      7.3300      6.9670    
  7.1250      9.5229      15.583      24.643      38.957      72.667      125.42      176.00      89.190      80.195    
  59.270      38.957      26.629      18.408      11.931      8.3946      7.2099      7.1250      7.3273      7.5296    
  7.6151      7.5296      7.3273      7.1250      7.2099      8.3946      11.931      18.408      26.629      38.957    
  59.270      80.195      39.187      36.599      30.735      24.643      18.408      12.816      9.2939      8.0565    
  8.3946      9.5229      10.933      12.154      12.649      12.154      10.933      9.5229      8.3946      8.0565    
  9.2939      12.816      18.408      24.643      30.735      36.599      23.058      22.043      19.292      15.583    
  11.931      9.2939      8.3364      9.2939      11.931      15.583      19.292      22.043      23.058      22.043    
  19.292      15.583      11.931      9.2939      8.3364      9.2939      11.931      15.583      19.292      22.043    
  12.649      12.154      10.933      9.5229      8.3946      8.0565      9.2939      12.816      18.408      24.643    
  30.735      36.599      39.187      36.599      30.735      24.643      18.408      12.816      9.2939      8.0565    
  8.3946      9.5229      10.933      12.154      7.6151      7.5296      7.3273      7.1250      7.2099      8.3946    
  11.931      18.408      26.629      38.957      59.270      80.195      89.190      80.195      59.270      38.957    
  26.629      18.408      11.931      8.3946      7.2099      7.1250      7.3273      7.5296      7.4283      7.4485    
  7.3300      6.9670      7.1250      9.5229      15.583      24.643      38.957      72.667      125.42      176.00    
  197.01      176.00      125.42      72.667      38.957      24.643      15.583      9.5229      7.1250      6.9670    
  7.3300      7.4485      8.1633      8.2903      8.1460      7.3300      7.3273      10.933      19.292      30.735    
  59.270      125.42      221.73      310.45      346.68      310.45      221.73      125.42      59.270      30.735    
  19.292      10.933      7.3273      7.3300      8.1460      8.2903      7.7013      8.0840      8.2903      7.4485    
  7.5296      12.154      22.043      36.599      80.195      176.00      310.45      432.07      481.38      432.07    
  310.45      176.00      80.195      36.599      22.043      12.154      7.5296      7.4485      8.2903      8.0840    
  7.1671      7.7013      8.1633      7.4283      7.6151      12.649      23.058      39.187      89.190      197.01    
  346.68      481.38      535.88      481.38      346.68      197.01      89.190      39.187      23.058      12.649    
  7.6151      7.4283      8.1633      7.7013      7.7013      8.0840      8.2903      7.4485      7.5296      12.154    
  22.043      36.599      80.195      176.00      310.45      432.07      481.38      432.07      310.45      176.00    
  80.195      36.599      22.043      12.154      7.5296      7.4485      8.2903      8.0840      8.1633      8.2903    
  8.1460      7.3300      7.3273      10.933      19.292      30.735      59.270      125.42      221.73      310.45    
  346.68      310.45      221.73      125.42      59.270      30.735      19.292      10.933      7.3273      7.3300    
  8.1460      8.2903      7.4283      7.4485      7.3300      6.9670      7.1250      9.5229      15.583      24.643    
  38.957      72.667      125.42      176.00      197.01      176.00      125.42      72.667      38.957      24.643    
  15.583      9.5229      7.1250      6.9670      7.3300      7.4485      7.6151      7.5296      7.3273      7.1250    
  7.2099      8.3946      11.931      18.408      26.629      38.957      59.270      80.195      89.190      80.195    
  59.270      38.957      26.629      18.408      11.931      8.3946      7.2099      7.1250      7.3273      7.5296    
  12.649      12.154      10.933      9.5229      8.3946      8.0565      9.2939      12.816      18.408      24.643    
  30.735      36.599      39.187      36.599      30.735      24.643      18.408      12.816      9.2939      8.0565    
  8.3946      9.5229      10.933      12.154      23.058      22.043      19.292      15.583      11.931      9.2939    
  8.3364      9.2939      11.931      15.583      19.292      22.043      23.058      22.043      19.292      15.583    
  11.931      9.2939      8.3364      9.2939      11.931      15.583      19.292      22.043      39.187      36.599    
  30.735      24.643      18.408      12.816      9.2939      8.0565      8.3946      9.5229      10.933      12.154    
  12.649      12.154      10.933      9.5229      8.3946      8.0565      9.2939      12.816      18.408      24.643    
  30.735      36.599      89.190      80.195      59.270      38.957      26.629      18.408      11.931      8.3946    
  7.2099      7.1250      7.3273      7.5296      7.6151      7.5296      7.3273      7.1250      7.2099      8.3946    
  11.931      18.408      26.629      38.957      59.270      80.195      197.01      176.00      125.42      72.667    
  38.957      24.643      15.583      9.5229      7.1250      6.9670      7.3300      7.4485      7.4283      7.4485    
  7.3300      6.9670      7.1250      9.5229      15.583      24.643      38.957      72.667      125.42      176.00    
  346.68      310.45      221.73      125.42      59.270      30.735      19.292      10.933      7.3273      7.3300    
  8.1460      8.2903      8.1633      8.2903      8.1460      7.3300      7.3273      10.933      19.292      30.735    
  59.270      125.42      221.73      310.45      481.38      432.07      310.45      176.00      80.195      36.599    
  22.043      12.154      7.5296      7.4485      8.2903      8.0840      7.7013      8.0840      8.2903      7.4485    
  7.5296      12.154      22.043      36.599      80.195      176.00      310.45      432.07      308.73      276.27    
  197.01      111.57      53.644      29.012      18.297      10.534      7.2478      7.0612      7.4283      7.2128    
  6.9619      7.2128      7.4283      7.0612      7.2478      10.534      18.297      29.012      53.644      111.57    
  197.01      276.27      276.27      247.07      176.00      99.956      49.135      27.754      17.557      10.244    
  7.2055      7.0434      7.4485      7.3758      7.2128      7.3758      7.4485      7.0434      7.2055      10.244    
  17.557      27.754      49.135      99.956      176.00      247.07      197.01      176.00      125.42      72.667    
  38.957      24.643      15.583      9.5229      7.1250      6.9670      7.3300      7.4485      7.4283      7.4485    
  7.3300      6.9670      7.1250      9.5229      15.583      24.643      38.957      72.667      125.42      176.00    
  111.57      99.956      72.667      45.654      29.378      20.310      13.000      8.6880      7.0790      6.8528    
  6.9670      7.0434      7.0612      7.0434      6.9670      6.8528      7.0790      8.6880      13.000      20.310    
  29.378      45.654      72.667      99.956      53.644      49.135      38.957      29.378      22.202      15.467    
  10.548      8.0339      7.2070      7.0790      7.1250      7.2055      7.2478      7.2055      7.1250      7.0790    
  7.2070      8.0339      10.548      15.467      22.202      29.378      38.957      49.135      29.012      27.754    
  24.643      20.310      15.467      11.364      8.8372      7.9036      8.0339      8.6880      9.5229      10.244    
  10.534      10.244      9.5229      8.6880      8.0339      7.9036      8.8372      11.364      15.467      20.310    
  24.643      27.754      18.297      17.557      15.583      13.000      10.548      8.8372      8.2285      8.8372    
  10.548      13.000      15.583      17.557      18.297      17.557      15.583      13.000      10.548      8.8372    
  8.2285      8.8372      10.548      13.000      15.583      17.557      10.534      10.244      9.5229      8.6880    
  8.0339      7.9036      8.8372      11.364      15.467      20.310      24.643      27.754      29.012      27.754    
  24.643      20.310      15.467      11.364      8.8372      7.9036      8.0339      8.6880      9.5229      10.244    
  7.2478      7.2055      7.1250      7.0790      7.2070      8.0339      10.548      15.467      22.202      29.378    
  38.957      49.135      53.644      49.135      38.957      29.378      22.202      15.467      10.548      8.0339    
  7.2070      7.0790      7.1250      7.2055      7.0612      7.0434      6.9670      6.8528      7.0790      8.6880    
  13.000      20.310      29.378      45.654      72.667      99.956      111.57      99.956      72.667      45.654    
  29.378      20.310      13.000      8.6880      7.0790      6.8528      6.9670      7.0434      7.4283      7.4485    
  7.3300      6.9670      7.1250      9.5229      15.583      24.643      38.957      72.667      125.42      176.00    
  197.01      176.00      125.42      72.667      38.957      24.643      15.583      9.5229      7.1250      6.9670    
  7.3300      7.4485      7.2128      7.3758      7.4485      7.0434      7.2055      10.244      17.557      27.754    
  49.135      99.956      176.00      247.07      276.27      247.07      176.00      99.956      49.135      27.754    
  17.557      10.244      7.2055      7.0434      7.4485      7.3758      6.9619      7.2128      7.4283      7.0612    
  7.2478      10.534      18.297      29.012      53.644      111.57      197.01      276.27      308.73      276.27    
  197.01      111.57      53.644      29.012      18.297      10.534      7.2478      7.0612      7.4283      7.2128    
  7.2128      7.3758      7.4485      7.0434      7.2055      10.244      17.557      27.754      49.135      99.956    
  176.00      247.07      276.27      247.07      176.00      99.956      49.135      27.754      17.557      10.244    
  7.2055      7.0434      7.4485      7.3758      7.4283      7.4485      7.3300      6.9670      7.1250      9.5229    
  15.583      24.643      38.957      72.667      125.42      176.00      197.01      176.00      125.42      72.667    
  38.957      24.643      15.583      9.5229      7.1250      6.9670      7.3300      7.4485      7.0612      7.0434    
  6.9670      6.8528      7.0790      8.6880      13.000      20.310      29.378      45.654      72.667      99.956    
  111.57      99.956      72.667      45.654      29.378      20.310      13.000      8.6880      7.0790      6.8528    
  6.9670      7.0434      7.2478      7.2055      7.1250      7.0790      7.2070      8.0339      10.548      15.467    
  22.202      29.378      38.957      49.135      53.644      49.135      38.957      29.378      22.202      15.467    
  10.548      8.0339      7.2070      7.0790      7.1250      7.2055      10.534      10.244      9.5229      8.6880    
  8.0339      7.9036      8.8372      11.364      15.467      20.310      24.643      27.754      29.012      27.754    
  24.643      20.310      15.467      11.364      8.8372      7.9036      8.0339      8.6880      9.5229      10.244    
  18.297      17.557      15.583      13.000      10.548      8.8372      8.2285      8.8372      10.548      13.000    
  15.583      17.557      18.297      17.557      15.583      13.000      10.548      8.8372      8.2285      8.8372    
  10.548      13.000      15.583      17.557      29.012      27.754      24.643      20.310      15.467      11.364    
  8.8372      7.9036      8.0339      8.6880      9.5229      10.244      10.534      10.244      9.5229      8.6880    
  8.0339      7.9036      8.8372      11.364      15.467      20.310      24.643      27.754      53.644      49.135    
  38.957      29.378      22.202      15.467      10.548      8.0339      7.2070      7.0790      7.1250      7.2055    
  7.2478      7.2055      7.1250      7.0790      7.2070      8.0339      10.548      15.467      22.202      29.378    
  38.957      49.135      111.57      99.956      72.667      45.654      29.378      20.310      13.000      8.6880    
  7.0790      6.8528      6.9670      7.0434      7.0612      7.0434      6.9670      6.8528      7.0790      8.6880    
  13.000      20.310      29.378      45.654      72.667      99.956      197.01      176.00      125.42      72.667    
  38.957      24.643      15.583      9.5229      7.1250      6.9670      7.3300      7.4485      7.4283      7.4485    
  7.3300      6.9670      7.1250      9.5229      15.583      24.643      38.957      72.667      125.42      176.00    
  276.27      247.07      176.00      99.956      49.135      27.754      17.557      10.244      7.2055      7.0434    
  7.4485      7.3758      7.2128      7.3758      7.4485      7.0434      7.2055      10.244      17.557      27.754    
  49.135      99.956      176.00      247.07      139.01      124.25      89.190      53.644      31.779      21.299    
  13.408      8.7580      7.2035      7.2478      7.6151      7.8260      7.8797      7.8260      7.6151      7.2478    
  7.2035      8.7580      13.408      21.299      31.779      53.644      89.190      124.25      124.25      111.16    
  80.195      49.135      30.225      20.528      13.003      8.6612      7.2056      7.2055      7.5296      7.7540    
  7.8260      7.7540      7.5296      7.2055      7.2056      8.6612      13.003      20.528      30.225      49.135    
  80.195      111.16      89.190      80.195      59.270      38.957      26.629      18.408      11.931      8.3946    
  7.2099      7.1250      7.3273      7.5296      7.6151      7.5296      7.3273      7.1250      7.2099      8.3946    
  11.931      18.408      26.629      38.957      59.270      80.195      53.644      49.135      38.957      29.378    
  22.202      15.467      10.548      8.0339      7.2070      7.0790      7.1250      7.2055      7.2478      7.2055    
  7.1250      7.0790      7.2070      8.0339      10.548      15.467      22.202      29.378      38.957      49.135    
  31.779      30.225      26.629      22.202      17.072      12.423      9.2598      7.7284      7.2645      7.2070    
  7.2099      7.2056      7.2035      7.2056      7.2099      7.2070      7.2645      7.7284      9.2598      12.423    
  17.072      22.202      26.629      30.225      21.299      20.528      18.408      15.467      12.423      9.9367    
  8.3765      7.7315      7.7284      8.0339      8.3946      8.6612      8.7580      8.6612      8.3946      8.0339    
  7.7284      7.7315      8.3765      9.9367      12.423      15.467      18.408      20.528      13.408      13.003    