unknown system                          
   1.00000000000000     
     3.635000    0.000000    0.000000
     0.000000    3.635000    0.000000
     0.000000    0.000000    3.635000
   Cu
     4
Direct
  0.000000  0.000000  0.000000
  0.500000  0.500000  0.000000
  0.500000  0.000000  0.500000
  0.000000  0.500000  0.500000
 
   24   24   24
 0.81770876905E+03 0.73690698331E+03 0.53587672360E+03 0.30872961111E+03 0.13900672492E+03
 0.54487205832E+02 0.27789992810E+02 0.15093412004E+02 0.78797040960E+01 0.69618800927E+01
 0.71670768825E+01 0.55595599311E+01 0.43398997347E+01 0.55595599311E+01 0.71670768825E+01
 0.69618800927E+01 0.78797040960E+01 0.15093412004E+02 0.27789992810E+02 0.54487205832E+02
 0.13900672492E+03 0.30872961111E+03 0.53587672360E+03 0.73690698331E+03 0.73690698331E+03
 0.66357407031E+03 0.48138117988E+03 0.27626917038E+03 0.12425444784E+03 0.49813793799E+02
 0.26486137617E+02 0.14400942925E+02 0.78260407104E+01 0.72127973053E+01 0.77013223700E+01
 0.65368381628E+01 0.55595599311E+01 0.65368381628E+01 0.77013223700E+01 0.72127973053E+01
 0.78260407104E+01 0.14400942925E+02 0.26486137617E+02 0.49813793799E+02 0.12425444784E+03
 0.27626917038E+03 0.48138117988E+03 0.66357407031E+03 0.53587672360E+03 0.48138117988E+03
 0.34668307463E+03 0.19701440141E+03 0.89189520755E+02 0.39187478725E+02 0.23057778439E+02
 0.12648806869E+02 0.76150544747E+01 0.74283136841E+01 0.81633050693E+01 0.77013223700E+01
 0.71670768825E+01 0.77013223700E+01 0.81633050693E+01 0.74283136841E+01 0.76150544747E+01
 0.12648806869E+02 0.23057778439E+02 0.39187478725E+02 0.89189520755E+02 0.19701440141E+03
 0.34668307463E+03 0.48138117988E+03 0.30872961111E+03 0.27626917038E+03 0.19701440141E+03
 0.11156501450E+03 0.53643574823E+02 0.29011540437E+02 0.18297470272E+02 0.10534256324E+02
 0.72477929385E+01 0.70611867225E+01 0.74283136841E+01 0.72127973053E+01 0.69618800927E+01
 0.72127973053E+01 0.74283136841E+01 0.70611867225E+01 0.72477929385E+01 0.10534256324E+02
 0.18297470272E+02 0.29011540437E+02 0.53643574823E+02 0.11156501450E+03 0.19701440141E+03
 0.27626917038E+03 0.13900672492E+03 0.12425444784E+03 0.89189520755E+02 0.53643574823E+02
 0.31779467917E+02 0.21298516797E+02 0.13408025322E+02 0.87580256011E+01 0.72034639219E+01
 0.72477929385E+01 0.76150544747E+01 0.78260407104E+01 0.78797040960E+01 0.78260407104E+01
 0.76150544747E+01 0.72477929385E+01 0.72034639219E+01 0.87580256011E+01 0.13408025322E+02
 0.21298516797E+02 0.31779467917E+02 0.53643574823E+02 0.89189520755E+02 0.12425444784E+03
 0.54487205832E+02 0.49813793799E+02 0.39187478725E+02 0.29011540437E+02 0.21298516797E+02
 0.14349367991E+02 0.97468337799E+01 0.81334158035E+01 0.87580256011E+01 0.10534256324E+02
 0.12648806869E+02 0.14400942925E+02 0.15093412004E+02 0.14400942925E+02 0.12648806869E+02
 0.10534256324E+02 0.87580256011E+01 0.81334158035E+01 0.97468337799E+01 0.14349367991E+02
 0.21298516797E+02 0.29011540437E+02 0.39187478725E+02 0.49813793799E+02 0.27789992810E+02
 0.26486137617E+02 0.23057778439E+02 0.18297470272E+02 0.13408025322E+02 0.97468337799E+01
 0.83894436333E+01 0.97468337799E+01 0.13408025322E+02 0.18297470272E+02 0.23057778439E+02
 0.26486137617E+02 0.27789992810E+02 0.26486137617E+02 0.23057778439E+02 0.18297470272E+02
 0.13408025322E+02 0.97468337799E+01 0.83894436333E+01 0.97468337799E+01 0.13408025322E+02
 0.18297470272E+02 0.23057778439E+02 0.26486137617E+02 0.15093412004E+02 0.14400942925E+02
 0.12648806869E+02 0.10534256324E+02 0.87580256011E+01 0.81334158035E+01 0.97468337799E+01
 0.14349367991E+02 0.21298516797E+02 0.29011540437E+02 0.39187478725E+02 0.49813793799E+02
 0.54487205832E+02 0.49813793799E+02 0.39187478725E+02 0.29011540437E+02 0.21298516797E+02
 0.14349367991E+02 0.97468337799E+01 0.81334158035E+01 0.87580256011E+01 0.10534256324E+02
 0.12648806869E+02 0.14400942925E+02 0.78797040960E+01 0.78260407104E+01 0.76150544747E+01
 0.72477929385E+01 0.72034639219E+01 0.87580256011E+01 0.13408025322E+02 0.21298516797E+02
 0.31779467917E+02 0.53643574823E+02 0.89189520755E+02 0.12425444784E+03 0.13900672492E+03
 0.12425444784E+03 0.89189520755E+02 0.53643574823E+02 0.31779467917E+02 0.21298516797E+02
 0.13408025322E+02 0.87580256011E+01 0.72034639219E+01 0.72477929385E+01 0.76150544747E+01
 0.78260407104E+01 0.69618800927E+01 0.72127973053E+01 0.74283136841E+01 0.70611867225E+01
 0.72477929385E+01 0.10534256324E+02 0.18297470272E+02 0.29011540437E+02 0.53643574823E+02
 0.11156501450E+03 0.19701440141E+03 0.27626917038E+03 0.30872961111E+03 0.27626917038E+03
 0.19701440141E+03 0.11156501450E+03 0.53643574823E+02 0.29011540437E+02 0.18297470272E+02
 0.10534256324E+02 0.72477929385E+01 0.70611867225E+01 0.74283136841E+01 0.72127973053E+01
 0.71670768825E+01 0.77013223700E+01 0.81633050693E+01 0.74283136841E+01 0.76150544747E+01
 0.12648806869E+02 0.23057778439E+02 0.39187478725E+02 0.89189520755E+02 0.19701440141E+03
 0.34668307463E+03 0.48138117988E+03 0.53587672360E+03 0.48138117988E+03 0.34668307463E+03
 0.19701440141E+03 0.89189520755E+02 0.39187478725E+02 0.23057778439E+02 0.12648806869E+02
 0.76150544747E+01 0.74283136841E+01 0.81633050693E+01 0.77013223700E+01 0.55595599311E+01
 0.65368381628E+01 0.77013223700E+01 0.72127973053E+01 0.78260407104E+01 0.14400942925E+02
 0.26486137617E+02 0.49813793799E+02 0.12425444784E+03 0.27626917038E+03 0.48138117988E+03
 0.66357407031E+03 0.73690698331E+03 0.66357407031E+03 0.48138117988E+03 0.27626917038E+03
 0.12425444784E+03 0.49813793799E+02 0.26486137617E+02 0.14400942925E+02 0.78260407104E+01
 0.72127973053E+01 0.77013223700E+01 0.65368381628E+01 0.43398997347E+01 0.55595599311E+01
 0.71670768825E+01 0.69618800927E+01 0.78797040960E+01 0.15093412004E+02 0.27789992810E+02
 0.54487205832E+02 0.13900672492E+03 0.30872961111E+03 0.53587672360E+03 0.73690698331E+03
 0.81770876905E+03 0.73690698331E+03 0.53587672360E+03 0.30872961111E+03 0.13900672492E+03
 0.54487205832E+02 0.27789992810E+02 0.15093412004E+02 0.78797040960E+01 0.69618800927E+01
 0.71670768825E+01 0.55595599311E+01 0.55595599311E+01 0.65368381628E+01 0.77013223700E+01
 0.72127973053E+01 0.78260407104E+01 0.14400942925E+02 0.26486137617E+02 0.49813793799E+02
 0.12425444784E+03 0.27626917038E+03 0.48138117988E+03 0.66357407031E+03 0.73690698331E+03
 0.66357407031E+03 0.48138117988E+03 0.27626917038E+03 0.12425444784E+03 0.49813793799E+02
 0.26486137617E+02 0.14400942925E+02 0.78260407104E+01 0.72127973053E+01 0.77013223700E+01
 0.65368381628E+01 0.71670768825E+01 0.77013223700E+01 0.81633050693E+01 0.74283136841E+01
 0.76150544747E+01 0.12648806869E+02 0.23057778439E+02 0.39187478725E+02 0.89189520755E+02
 0.19701440141E+03 0.34668307463E+03 0.48138117988E+03 0.53587672360E+03 0.48138117988E+03
 0.34668307463E+03 0.19701440141E+03 0.89189520755E+02 0.39187478725E+02 0.23057778439E+02
 0.12648806869E+02 0.76150544747E+01 0.74283136841E+01 0.81633050693E+01 0.77013223700E+01
 0.69618800927E+01 0.72127973053E+01 0.74283136841E+01 0.70611867225E+01 0.72477929385E+01
 0.10534256324E+02 0.18297470272E+02 0.29011540437E+02 0.53643574823E+02 0.11156501450E+03
 0.19701440141E+03 0.27626917038E+03 0.30872961111E+03 0.27626917038E+03 0.19701440141E+03
 0.11156501450E+03 0.53643574823E+02 0.29011540437E+02 0.18297470272E+02 0.10534256324E+02
 0.72477929385E+01 0.70611867225E+01 0.74283136841E+01 0.72127973053E+01 0.78797040960E+01
 0.78260407104E+01 0.76150544747E+01 0.72477929385E+01 0.72034639219E+01 0.87580256011E+01
 0.13408025322E+02 0.21298516797E+02 0.31779467917E+02 0.53643574823E+02 0.89189520755E+02
 0.12425444784E+03 0.13900672492E+03 0.12425444784E+03 0.89189520755E+02 0.53643574823E+02
 0.31779467917E+02 0.21298516797E+02 0.13408025322E+02 0.87580256011E+01 0.72034639219E+01
 0.72477929385E+01 0.76150544747E+01 0.78260407104E+01 0.15093412004E+02 0.14400942925E+02
 0.12648806869E+02 0.10534256324E+02 0.87580256011E+01 0.81334158035E+01 0.97468337799E+01
 0.14349367991E+02 0.21298516797E+02 0.29011540437E+02 0.39187478725E+02 0.49813793799E+02
 0.54487205832E+02 0.49813793799E+02 0.39187478725E+02 0.29011540437E+02 0.21298516797E+02
 0.14349367991E+02 0.97468337799E+01 0.81334158035E+01 0.87580256011E+01 0.10534256324E+02
 0.12648806869E+02 0.14400942925E+02 0.27789992810E+02 0.26486137617E+02 0.23057778439E+02
 0.18297470272E+02 0.13408025322E+02 0.97468337799E+01 0.83894436333E+01 0.97468337799E+01
 0.13408025322E+02 0.18297470272E+02 0.23057778439E+02 0.26486137617E+02 0.27789992810E+02
 0.26486137617E+02 0.23057778439E+02 0.18297470272E+02 0.13408025322E+02 0.97468337799E+01
 0.83894436333E+01 0.97468337799E+01 0.13408025322E+02 0.18297470272E+02 0.23057778439E+02
 0.26486137617E+02 0.54487205832E+02 0.49813793799E+02 0.39187478725E+02 0.29011540437E+02
 0.21298516797E+02 0.14349367991E+02 0.97468337799E+01 0.81334158035E+01 0.87580256011E+01
 0.10534256324E+02 0.12648806869E+02 0.14400942925E+02 0.15093412004E+02 0.14400942925E+02
 0.12648806869E+02 0.10534256324E+02 0.87580256011E+01 0.81334158035E+01 0.97468337799E+01
 0.14349367991E+02 0.21298516797E+02 0.29011540437E+02 0.39187478725E+02 0.49813793799E+02
 0.13900672492E+03 0.12425444784E+03 0.89189520755E+02 0.53643574823E+02 0.31779467917E+02
 0.21298516797E+02 0.13408025322E+02 0.87580256011E+01 0.72034639219E+01 0.72477929385E+01
 0.76150544747E+01 0.78260407104E+01 0.78797040960E+01 0.78260407104E+01 0.76150544747E+01
 0.72477929385E+01 0.72034639219E+01 0.87580256011E+01 0.13408025322E+02 0.21298516797E+02
 0.31779467917E+02 0.53643574823E+02 0.89189520755E+02 0.12425444784E+03 0.30872961111E+03
 0.27626917038E+03 0.19701440141E+03 0.11156501450E+03 0.53643574823E+02 0.29011540437E+02
 0.18297470272E+02 0.10534256324E+02 0.72477929385E+01 0.70611867225E+01 0.74283136841E+01
 0.72127973053E+01 0.69618800927E+01 0.72127973053E+01 0.74283136841E+01 0.70611867225E+01
 0.72477929385E+01 0.10534256324E+02 0.18297470272E+02 0.29011540437E+02 0.53643574823E+02
 0.11156501450E+03 0.19701440141E+03 0.27626917038E+03 0.53587672360E+03 0.48138117988E+03
 0.34668307463E+03 0.19701440141E+03 0.89189520755E+02 0.39187478725E+02 0.23057778439E+02
 0.12648806869E+02 0.76150544747E+01 0.74283136841E+01 0.81633050693E+01 0.77013223700E+01
 0.71670768825E+01 0.77013223700E+01 0.81633050693E+01 0.74283136841E+01 0.76150544747E+01
 0.12648806869E+02 0.23057778439E+02 0.39187478725E+02 0.89189520755E+02 0.19701440141E+03
 0.34668307463E+03 0.48138117988E+03 0.73690698331E+03 0.66357407031E+03 0.48138117988E+03
 0.27626917038E+03 0.12425444784E+03 0.49813793799E+02 0.26486137617E+02 0.14400942925E+02
 0.78260407104E+01 0.72127973053E+01 0.77013223700E+01 0.65368381628E+01 0.55595599311E+01
 0.65368381628E+01 0.77013223700E+01 0.72127973053E+01 0.78260407104E+01 0.14400942925E+02
 0.26486137617E+02 0.49813793799E+02 0.12425444784E+03 0.27626917038E+03 0.48138117988E+03
 0.66357407031E+03 0.73690698331E+03 0.66357407031E+03 0.48138117988E+03 0.27626917038E+03
 0.12425444784E+03 0.49813793799E+02 0.26486137617E+02 0.14400942925E+02 0.78260407104E+01
 0.72127973053E+01 0.77013223700E+01 0.65368381628E+01 0.55595599311E+01 0.65368381628E+01
 0.77013223700E+01 0.72127973053E+01 0.78260407104E+01 0.14400942925E+02 0.26486137617E+02
 0.49813793799E+02 0.12425444784E+03 0.27626917038E+03 0.48138117988E+03 0.66357407031E+03
 0.66357407031E+03 0.59706271662E+03 0.43207368727E+03 0.24707149860E+03 0.11116173061E+03
 0.45767196092E+02 0.25285692611E+02 0.13760727312E+02 0.77540222434E+01 0.73757880592E+01
 0.80840247851E+01 0.73004830222E+01 0.65368381628E+01 0.73004830222E+01 0.80840247851E+01
 0.73757880592E+01 0.77540222434E+01 0.13760727312E+02 0.25285692611E+02 0.45767196092E+02
 0.11116173061E+03 0.24707149860E+03 0.43207368727E+03 0.59706271662E+03 0.48138117988E+03
 0.43207368727E+03 0.31044978652E+03 0.17600493326E+03 0.80194721901E+02 0.36598611319E+02
 0.22043043708E+02 0.12154351472E+02 0.75296447801E+01 0.74485363869E+01 0.82903045866E+01
 0.80840247851E+01 0.77013223700E+01 0.80840247851E+01 0.82903045866E+01 0.74485363869E+01
 0.75296447801E+01 0.12154351472E+02 0.22043043708E+02 0.36598611319E+02 0.80194721901E+02
 0.17600493326E+03 0.31044978652E+03 0.43207368727E+03 0.27626917038E+03 0.24707149860E+03
 0.17600493326E+03 0.99955712914E+02 0.49135002037E+02 0.27753820270E+02 0.17557143757E+02
 0.10243531008E+02 0.72055201749E+01 0.70434448777E+01 0.74485363869E+01 0.73757880592E+01
 0.72127973053E+01 0.73757880592E+01 0.74485363869E+01 0.70434448777E+01 0.72055201749E+01
 0.10243531008E+02 0.17557143757E+02 0.27753820270E+02 0.49135002037E+02 0.99955712914E+02
 0.17600493326E+03 0.24707149860E+03 0.12425444784E+03 0.11116173061E+03 0.80194721901E+02
 0.49135002037E+02 0.30224849827E+02 0.20528296339E+02 0.13002996580E+02 0.86611852740E+01
 0.72056426779E+01 0.72055201749E+01 0.75296447801E+01 0.77540222434E+01 0.78260407104E+01
 0.77540222434E+01 0.75296447801E+01 0.72055201749E+01 0.72056426779E+01 0.86611852740E+01
 0.13002996580E+02 0.20528296339E+02 0.30224849827E+02 0.49135002037E+02 0.80194721901E+02
 0.11116173061E+03 0.49813793799E+02 0.45767196092E+02 0.36598611319E+02 0.27753820270E+02
 0.20528296339E+02 0.13928806320E+02 0.96258624782E+01 0.81221004627E+01 0.86611852740E+01
 0.10243531008E+02 0.12154351472E+02 0.13760727312E+02 0.14400942925E+02 0.13760727312E+02
 0.12154351472E+02 0.10243531008E+02 0.86611852740E+01 0.81221004627E+01 0.96258624782E+01
 0.13928806320E+02 0.20528296339E+02 0.27753820270E+02 0.36598611319E+02 0.45767196092E+02
 0.26486137617E+02 0.25285692611E+02 0.22043043708E+02 0.17557143757E+02 0.13002996580E+02
 0.96258624782E+01 0.83806022229E+01 0.96258624782E+01 0.13002996580E+02 0.17557143757E+02
 0.22043043708E+02 0.25285692611E+02 0.26486137617E+02 0.25285692611E+02 0.22043043708E+02
 0.17557143757E+02 0.13002996580E+02 0.96258624782E+01 0.83806022229E+01 0.96258624782E+01
 0.13002996580E+02 0.17557143757E+02 0.22043043708E+02 0.25285692611E+02 0.14400942925E+02
 0.13760727312E+02 0.12154351472E+02 0.10243531008E+02 0.86611852740E+01 0.81221004627E+01
 0.96258624782E+01 0.13928806320E+02 0.20528296339E+02 0.27753820270E+02 0.36598611319E+02
 0.45767196092E+02 0.49813793799E+02 0.45767196092E+02 0.36598611319E+02 0.27753820270E+02
 0.20528296339E+02 0.13928806320E+02 0.96258624782E+01 0.81221004627E+01 0.86611852740E+01
 0.10243531008E+02 0.12154351472E+02 0.13760727312E+02 0.78260407104E+01 0.77540222434E+01
 0.75296447801E+01 0.72055201749E+01 0.72056426779E+01 0.86611852740E+01 0.13002996580E+02
 0.20528296339E+02 0.30224849827E+02 0.49135002037E+02 0.80194721901E+02 0.11116173061E+03
 0.12425444784E+03 0.11116173061E+03 0.80194721901E+02 0.49135002037E+02 0.30224849827E+02
 0.20528296339E+02 0.13002996580E+02 0.86611852740E+01 0.72056426779E+01 0.72055201749E+01
 0.75296447801E+01 0.77540222434E+01 0.72127973053E+01 0.73757880592E+01 0.74485363869E+01
 0.70434448777E+01 0.72055201749E+01 0.10243531008E+02 0.17557143757E+02 0.27753820270E+02
 0.49135002037E+02 0.99955712914E+02 0.17600493326E+03 0.24707149860E+03 0.27626917038E+03
 0.24707149860E+03 0.17600493326E+03 0.99955712914E+02 0.49135002037E+02 0.27753820270E+02
 0.17557143757E+02 0.10243531008E+02 0.72055201749E+01 0.70434448777E+01 0.74485363869E+01
 0.73757880592E+01 0.77013223700E+01 0.80840247851E+01 0.82903045866E+01 0.74485363869E+01
 0.75296447801E+01 0.12154351472E+02 0.22043043708E+02 0.36598611319E+02 0.80194721901E+02
 0.17600493326E+03 0.31044978652E+03 0.43207368727E+03 0.48138117988E+03 0.43207368727E+03
 0.31044978652E+03 0.17600493326E+03 0.80194721901E+02 0.36598611319E+02 0.22043043708E+02
 0.12154351472E+02 0.75296447801E+01 0.74485363869E+01 0.82903045866E+01 0.80840247851E+01
 0.65368381628E+01 0.73004830222E+01 0.80840247851E+01 0.73757880592E+01 0.77540222434E+01
 0.13760727312E+02 0.25285692611E+02 0.45767196092E+02 0.11116173061E+03 0.24707149860E+03
 0.43207368727E+03 0.59706271662E+03 0.66357407031E+03 0.59706271662E+03 0.43207368727E+03
 0.24707149860E+03 0.11116173061E+03 0.45767196092E+02 0.25285692611E+02 0.13760727312E+02
 0.77540222434E+01 0.73757880592E+01 0.80840247851E+01 0.73004830222E+01 0.55595599311E+01
 0.65368381628E+01 0.77013223700E+01 0.72127973053E+01 0.78260407104E+01 0.14400942925E+02
 0.26486137617E+02 0.49813793799E+02 0.12425444784E+03 0.27626917038E+03 0.48138117988E+03
 0.66357407031E+03 0.73690698331E+03 0.66357407031E+03 0.48138117988E+03 0.27626917038E+03
 0.12425444784E+03 0.49813793799E+02 0.26486137617E+02 0.14400942925E+02 0.78260407104E+01
 0.72127973053E+01 0.77013223700E+01 0.65368381628E+01 0.65368381628E+01 0.73004830222E+01
 0.80840247851E+01 0.73757880592E+01 0.77540222434E+01 0.13760727312E+02 0.25285692611E+02
 0.45767196092E+02 0.11116173061E+03 0.24707149860E+03 0.43207368727E+03 0.59706271662E+03
 0.66357407031E+03 0.59706271662E+03 0.43207368727E+03 0.24707149860E+03 0.11116173061E+03
 0.45767196092E+02 0.25285692611E+02 0.13760727312E+02 0.77540222434E+01 0.73757880592E+01
 0.80840247851E+01 0.73004830222E+01 0.77013223700E+01 0.80840247851E+01 0.82903045866E+01
 0.74485363869E+01 0.75296447801E+01 0.12154351472E+02 0.22043043708E+02 0.36598611319E+02
 0.80194721901E+02 0.17600493326E+03 0.31044978652E+03 0.43207368727E+03 0.48138117988E+03
 0.43207368727E+03 0.31044978652E+03 0.17600493326E+03 0.80194721901E+02 0.36598611319E+02
 0.22043043708E+02 0.12154351472E+02 0.75296447801E+01 0.74485363869E+01 0.82903045866E+01
 0.80840247851E+01 0.72127973053E+01 0.73757880592E+01 0.74485363869E+01 0.70434448777E+01
 0.72055201749E+01 0.10243531008E+02 0.17557143757E+02 0.27753820270E+02 0.49135002037E+02
 0.99955712914E+02 0.17600493326E+03 0.24707149860E+03 0.27626917038E+03 0.24707149860E+03
 0.17600493326E+03 0.99955712914E+02 0.49135002037E+02 0.27753820270E+02 0.17557143757E+02
 0.10243531008E+02 0.72055201749E+01 0.70434448777E+01 0.74485363869E+01 0.73757880592E+01
 0.78260407104E+01 0.77540222434E+01 0.75296447801E+01 0.72055201749E+01 0.72056426779E+01
 0.86611852740E+01 0.13002996580E+02 0.20528296339E+02 0.30224849827E+02 0.49135002037E+02
 0.80194721901E+02 0.11116173061E+03 0.12425444784E+03 0.11116173061E+03 0.80194721901E+02
 0.49135002037E+02 0.30224849827E+02 0.20528296339E+02 0.13002996580E+02 0.86611852740E+01
 0.72056426779E+01 0.72055201749E+01 0.75296447801E+01 0.77540222434E+01 0.14400942925E+02
 0.13760727312E+02 0.12154351472E+02 0.10243531008E+02 0.86611852740E+01 0.81221004627E+01
 0.96258624782E+01 0.13928806320E+02 0.20528296339E+02 0.27753820270E+02 0.36598611319E+02
 0.45767196092E+02 0.49813793799E+02 0.45767196092E+02 0.36598611319E+02 0.27753820270E+02
 0.20528296339E+02 0.13928806320E+02 0.96258624782E+01 0.81221004627E+01 0.86611852740E+01
 0.10243531008E+02 0.12154351472E+02 0.13760727312E+02 0.26486137617E+02 0.25285692611E+02
 0.22043043708E+02 0.17557143757E+02 0.13002996580E+02 0.96258624782E+01 0.83806022229E+01
 0.96258624782E+01 0.13002996580E+02 0.17557143757E+02 0.22043043708E+02 0.25285692611E+02
 0.26486137617E+02 0.25285692611E+02 0.22043043708E+02 0.17557143757E+02 0.13002996580E+02
 0.96258624782E+01 0.83806022229E+01 0.96258624782E+01 0.13002996580E+02 0.17557143757E+02
 0.22043043708E+02 0.25285692611E+02 0.49813793799E+02 0.45767196092E+02 0.36598611319E+02
 0.27753820270E+02 0.20528296339E+02 0.13928806320E+02 0.96258624782E+01 0.81221004627E+01
 0.86611852740E+01 0.10243531008E+02 0.12154351472E+02 0.13760727312E+02 0.14400942925E+02
 0.13760727312E+02 0.12154351472E+02 0.10243531008E+02 0.86611852740E+01 0.81221004627E+01
 0.96258624782E+01 0.13928806320E+02 0.20528296339E+02 0.27753820270E+02 0.36598611319E+02
 0.45767196092E+02 0.12425444784E+03 0.11116173061E+03 0.80194721901E+02 0.49135002037E+02
 0.30224849827E+02 0.20528296339E+02 0.13002996580E+02 0.86611852740E+01 0.72056426779E+01
 0.72055201749E+01 0.75296447801E+01 0.77540222434E+01 0.78260407104E+01 0.77540222434E+01
 0.75296447801E+01 0.72055201749E+01 0.72056426779E+01 0.86611852740E+01 0.13002996580E+02
 0.20528296339E+02 0.30224849827E+02 0.49135002037E+02 0.80194721901E+02 0.11116173061E+03
 0.27626917038E+03 0.24707149860E+03 0.17600493326E+03 0.99955712914E+02 0.49135002037E+02
 0.27753820270E+02 0.17557143757E+02 0.10243531008E+02 0.72055201749E+01 0.70434448777E+01
 0.74485363869E+01 0.73757880592E+01 0.72127973053E+01 0.73757880592E+01 0.74485363869E+01
 0.70434448777E+01 0.72055201749E+01 0.10243531008E+02 0.17557143757E+02 0.27753820270E+02
 0.49135002037E+02 0.99955712914E+02 0.17600493326E+03 0.24707149860E+03 0.48138117988E+03
 0.43207368727E+03 0.31044978652E+03 0.17600493326E+03 0.80194721901E+02 0.36598611319E+02
 0.22043043708E+02 0.12154351472E+02 0.75296447801E+01 0.74485363869E+01 0.82903045866E+01
 0.80840247851E+01 0.77013223700E+01 0.80840247851E+01 0.82903045866E+01 0.74485363869E+01
 0.75296447801E+01 0.12154351472E+02 0.22043043708E+02 0.36598611319E+02 0.80194721901E+02
 0.17600493326E+03 0.31044978652E+03 0.43207368727E+03 0.66357407031E+03 0.59706271662E+03
 0.43207368727E+03 0.24707149860E+03 0.11116173061E+03 0.45767196092E+02 0.25285692611E+02
 0.13760727312E+02 0.77540222434E+01 0.73757880592E+01 0.80840247851E+01 0.73004830222E+01
 0.65368381628E+01 0.73004830222E+01 0.80840247851E+01 0.73757880592E+01 0.77540222434E+01
 0.13760727312E+02 0.25285692611E+02 0.45767196092E+02 0.11116173061E+03 0.24707149860E+03
 0.43207368727E+03 0.59706271662E+03 0.53587672360E+03 0.48138117988E+03 0.34668307463E+03
 0.19701440141E+03 0.89189520755E+02 0.39187478725E+02 0.23057778439E+02 0.12648806869E+02
 0.76150544747E+01 0.74283136841E+01 0.81633050693E+01 0.77013223700E+01 0.71670768825E+01
 0.77013223700E+01 0.81633050693E+01 0.74283136841E+01 0.76150544747E+01 0.12648806869E+02
 0.23057778439E+02 0.39187478725E+02 0.89189520755E+02 0.19701440141E+03 0.34668307463E+03
 0.48138117988E+03 0.48138117988E+03 0.43207368727E+03 0.31044978652E+03 0.17600493326E+03
 0.80194721901E+02 0.36598611319E+02 0.22043043708E+02 0.12154351472E+02 0.75296447801E+01
 0.74485363869E+01 0.82903045866E+01 0.80840247851E+01 0.77013223700E+01 0.80840247851E+01
 0.82903045866E+01 0.74485363869E+01 0.75296447801E+01 0.12154351472E+02 0.22043043708E+02
 0.36598611319E+02 0.80194721901E+02 0.17600493326E+03 0.31044978652E+03 0.43207368727E+03
 0.34668307463E+03 0.31044978652E+03 0.22173173815E+03 0.12542411049E+03 0.59270013049E+02
 0.30734992751E+02 0.19291664728E+02 0.10933351511E+02 0.73273308930E+01 0.73300448040E+01
 0.81459549616E+01 0.82903045866E+01 0.81633050693E+01 0.82903045866E+01 0.81459549616E+01
 0.73300448040E+01 0.73273308930E+01 0.10933351511E+02 0.19291664728E+02 0.30734992751E+02
 0.59270013049E+02 0.12542411049E+03 0.22173173815E+03 0.31044978652E+03 0.19701440141E+03
 0.17600493326E+03 0.12542411049E+03 0.72667283552E+02 0.38956517291E+02 0.24643278216E+02
 0.15582726964E+02 0.95228702413E+01 0.71250270299E+01 0.69670241062E+01 0.73300448040E+01
 0.74485363869E+01 0.74283136841E+01 0.74485363869E+01 0.73300448040E+01 0.69670241062E+01
 0.71250270299E+01 0.95228702413E+01 0.15582726964E+02 0.24643278216E+02 0.38956517291E+02
 0.72667283552E+02 0.12542411049E+03 0.17600493326E+03 0.89189520755E+02 0.80194721901E+02
 0.59270013049E+02 0.38956517291E+02 0.26628532273E+02 0.18408416160E+02 0.11930965168E+02
 0.83945604703E+01 0.72098563923E+01 0.71250270299E+01 0.73273308930E+01 0.75296447801E+01
 0.76150544747E+01 0.75296447801E+01 0.73273308930E+01 0.71250270299E+01 0.72098563923E+01
 0.83945604703E+01 0.11930965168E+02 0.18408416160E+02 0.26628532273E+02 0.38956517291E+02
 0.59270013049E+02 0.80194721901E+02 0.39187478725E+02 0.36598611319E+02 0.30734992751E+02
 0.24643278216E+02 0.18408416160E+02 0.12816364215E+02 0.92939381265E+01 0.80564905738E+01
 0.83945604703E+01 0.95228702413E+01 0.10933351511E+02 0.12154351472E+02 0.12648806869E+02
 0.12154351472E+02 0.10933351511E+02 0.95228702413E+01 0.83945604703E+01 0.80564905738E+01
 0.92939381265E+01 0.12816364215E+02 0.18408416160E+02 0.24643278216E+02 0.30734992751E+02
 0.36598611319E+02 0.23057778439E+02 0.22043043708E+02 0.19291664728E+02 0.15582726964E+02
 0.11930965168E+02 0.92939381265E+01 0.83363793673E+01 0.92939381265E+01 0.11930965168E+02
 0.15582726964E+02 0.19291664728E+02 0.22043043708E+02 0.23057778439E+02 0.22043043708E+02
 0.19291664728E+02 0.15582726964E+02 0.11930965168E+02 0.92939381265E+01 0.83363793673E+01
 0.92939381265E+01 0.11930965168E+02 0.15582726964E+02 0.19291664728E+02 0.22043043708E+02
 0.12648806869E+02 0.12154351472E+02 0.10933351511E+02 0.95228702413E+01 0.83945604703E+01
 0.80564905738E+01 0.92939381265E+01 0.12816364215E+02 0.18408416160E+02 0.24643278216E+02
 0.30734992751E+02 0.36598611319E+02 0.39187478725E+02 0.36598611319E+02 0.30734992751E+02
 0.24643278216E+02 0.18408416160E+02 0.12816364215E+02 0.92939381265E+01 0.80564905738E+01
 0.83945604703E+01 0.95228702413E+01 0.10933351511E+02 0.12154351472E+02 0.76150544747E+01
 0.75296447801E+01 0.73273308930E+01 0.71250270299E+01 0.72098563923E+01 0.83945604703E+01
 0.11930965168E+02 0.18408416160E+02 0.26628532273E+02 0.38956517291E+02 0.59270013049E+02
 0.80194721901E+02 0.89189520755E+02 0.80194721901E+02 0.59270013049E+02 0.38956517291E+02
 0.26628532273E+02 0.18408416160E+02 0.11930965168E+02 0.83945604703E+01 0.72098563923E+01
 0.71250270299E+01 0.73273308930E+01 0.75296447801E+01 0.74283136841E+01 0.74485363869E+01
 0.73300448040E+01 0.69670241062E+01 0.71250270299E+01 0.95228702413E+01 0.15582726964E+02
 0.24643278216E+02 0.38956517291E+02 0.72667283552E+02 0.12542411049E+03 0.17600493326E+03
 0.19701440141E+03 0.17600493326E+03 0.12542411049E+03 0.72667283552E+02 0.38956517291E+02
 0.24643278216E+02 0.15582726964E+02 0.95228702413E+01 0.71250270299E+01 0.69670241062E+01
 0.73300448040E+01 0.74485363869E+01 0.81633050693E+01 0.82903045866E+01 0.81459549616E+01
 0.73300448040E+01 0.73273308930E+01 0.10933351511E+02 0.19291664728E+02 0.30734992751E+02
 0.59270013049E+02 0.12542411049E+03 0.22173173815E+03 0.31044978652E+03 0.34668307463E+03
 0.31044978652E+03 0.22173173815E+03 0.12542411049E+03 0.59270013049E+02 0.30734992751E+02
 0.19291664728E+02 0.10933351511E+02 0.73273308930E+01 0.73300448040E+01 0.81459549616E+01
 0.82903045866E+01 0.77013223700E+01 0.80840247851E+01 0.82903045866E+01 0.74485363869E+01
 0.75296447801E+01 0.12154351472E+02 0.22043043708E+02 0.36598611319E+02 0.80194721901E+02
 0.17600493326E+03 0.31044978652E+03 0.43207368727E+03 0.48138117988E+03 0.43207368727E+03
 0.31044978652E+03 0.17600493326E+03 0.80194721901E+02 0.36598611319E+02 0.22043043708E+02
 0.12154351472E+02 0.75296447801E+01 0.74485363869E+01 0.82903045866E+01 0.80840247851E+01
 0.71670768825E+01 0.77013223700E+01 0.81633050693E+01 0.74283136841E+01 0.76150544747E+01
 0.12648806869E+02 0.23057778439E+02 0.39187478725E+02 0.89189520755E+02 0.19701440141E+03
 0.34668307463E+03 0.48138117988E+03 0.53587672360E+03 0.48138117988E+03 0.34668307463E+03
 0.19701440141E+03 0.89189520755E+02 0.39187478725E+02 0.23057778439E+02 0.12648806869E+02
 0.76150544747E+01 0.74283136841E+01 0.81633050693E+01 0.77013223700E+01 0.77013223700E+01
 0.80840247851E+01 0.82903045866E+01 0.74485363869E+01 0.75296447801E+01 0.12154351472E+02
 0.22043043708E+02 0.36598611319E+02 0.80194721901E+02 0.17600493326E+03 0.31044978652E+03
 0.43207368727E+03 0.48138117988E+03 0.43207368727E+03 0.31044978652E+03 0.17600493326E+03
 0.80194721901E+02 0.36598611319E+02 0.22043043708E+02 0.12154351472E+02 0.75296447801E+01
 0.74485363869E+01 0.82903045866E+01 0.80840247851E+01 0.81633050693E+01 0.82903045866E+01
 0.81459549616E+01 0.73300448040E+01 0.73273308930E+01 0.10933351511E+02 0.19291664728E+02
 0.30734992751E+02 0.59270013049E+02 0.12542411049E+03 0.22173173815E+03 0.31044978652E+03
 0.34668307463E+03 0.31044978652E+03 0.22173173815E+03 0.12542411049E+03 0.59270013049E+02
 0.30734992751E+02 0.19291664728E+02 0.10933351511E+02 0.73273308930E+01 0.73300448040E+01
 0.81459549616E+01 0.82903045866E+01 0.74283136841E+01 0.74485363869E+01 0.73300448040E+01
 0.69670241062E+01 0.71250270299E+01 0.95228702413E+01 0.15582726964E+02 0.24643278216E+02
 0.38956517291E+02 0.72667283552E+02 0.12542411049E+03 0.17600493326E+03 0.19701440141E+03
 0.17600493326E+03 0.12542411049E+03 0.72667283552E+02 0.38956517291E+02 0.24643278216E+02
 0.15582726964E+02 0.95228702413E+01 0.71250270299E+01 0.69670241062E+01 0.73300448040E+01
 0.74485363869E+01 0.76150544747E+01 0.75296447801E+01 0.73273308930E+01 0.71250270299E+01
 0.72098563923E+01 0.83945604703E+01 0.11930965168E+02 0.18408416160E+02 0.26628532273E+02
 0.38956517291E+02 0.59270013049E+02 0.80194721901E+02 0.89189520755E+02 0.80194721901E+02
 0.59270013049E+02 0.38956517291E+02 0.26628532273E+02 0.18408416160E+02 0.11930965168E+02
 0.83945604703E+01 0.72098563923E+01 0.71250270299E+01 0.73273308930E+01 0.75296447801E+01
 0.12648806869E+02 0.12154351472E+02 0.10933351511E+02 0.95228702413E+01 0.83945604703E+01
 0.80564905738E+01 0.92939381265E+01 0.12816364215E+02 0.18408416160E+02 0.24643278216E+02
 0.30734992751E+02 0.36598611319E+02 0.39187478725E+02 0.36598611319E+02 0.30734992751E+02
 0.24643278216E+02 0.18408416160E+02 0.12816364215E+02 0.92939381265E+01 0.80564905738E+01
 0.83945604703E+01 0.95228702413E+01 0.10933351511E+02 0.12154351472E+02 0.23057778439E+02
 0.22043043708E+02 0.19291664728E+02 0.15582726964E+02 0.11930965168E+02 0.92939381265E+01
 0.83363793673E+01 0.92939381265E+01 0.11930965168E+02 0.15582726964E+02 0.19291664728E+02
 0.22043043708E+02 0.23057778439E+02 0.22043043708E+02 0.19291664728E+02 0.15582726964E+02
 0.11930965168E+02 0.92939381265E+01 0.83363793673E+01 0.92939381265E+01 0.11930965168E+02
 0.15582726964E+02 0.19291664728E+02 0.22043043708E+02 0.39187478725E+02 0.36598611319E+02
 0.30734992751E+02 0.24643278216E+02 0.18408416160E+02 0.12816364215E+02 0.92939381265E+01
 0.80564905738E+01 0.83945604703E+01 0.95228702413E+01 0.10933351511E+02 0.12154351472E+02
 0.12648806869E+02 0.12154351472E+02 0.10933351511E+02 0.95228702413E+01 0.83945604703E+01