 vasp.6.2.0 18Jan21 (build Mar 17 2021 09:06:54) complex                        
  
 POSCAR found type information on POSCAR Cu
 POSCAR found :  1 types and       4 ions
 LDA part: xc-table for Pade appr. of Perdew
 POSCAR, INCAR and KPOINTS ok, starting setup
 FFT: planning ...
 WAVECAR not read
 WARNING: chargedensity file is incomplete
 entering main loop
       N       E                     dE             d eps       ncg     rms          rms(c)
DAV:   1     0.193980412872E+03    0.19398E+03   -0.10782E+04   608   0.729E+02
DAV:   2     0.103222761990E+02   -0.18366E+03   -0.17408E+03   618   0.210E+02
DAV:   3     0.597291568002E+01   -0.43494E+01   -0.43132E+01   690   0.406E+01
DAV:   4     0.595727800449E+01   -0.15638E-01   -0.15634E-01   612   0.238E+00
DAV:   5     0.595721846806E+01   -0.59536E-04   -0.59536E-04   678   0.136E-01    0.291E+01
DAV:   6     0.160504626010E+02    0.10093E+02   -0.10209E+02   600   0.105E+02    0.124E+01
DAV:   7     0.193607274127E+02    0.33103E+01   -0.10748E+01   636   0.321E+01    0.246E+00
DAV:   8     0.189079784857E+02   -0.45275E+00   -0.31533E+00   612   0.170E+01    0.508E+00
DAV:   9     0.193656166138E+02    0.45764E+00   -0.17728E+00   612   0.132E+01    0.391E-01
DAV:  10     0.193562209578E+02   -0.93957E-02   -0.92810E-03   618   0.726E-01    0.976E-02
DAV:  11     0.193555402166E+02   -0.68074E-03   -0.54521E-04   624   0.196E-01    0.133E-01
DAV:  12     0.193559129908E+02    0.37277E-03   -0.10981E-03   624   0.330E-01    0.856E-03
DAV:  13     0.193559069486E+02   -0.60422E-05   -0.57796E-06   582   0.141E-02    0.316E-03
DAV:  14     0.193559067248E+02   -0.22382E-06   -0.29274E-07   348   0.530E-03
   1 F= 0.19355907E+02 E0= 0.19356403E+02  d E =-.148865E-02
 writing wavefunctions
