unknown system                          
   1.00000000000000     
     2.423200    0.000000    0.000000
    -1.211600    2.098553    0.000000
     0.000000    0.000000    4.264000
   Fe
     2
Direct
  0.000000  0.000000  0.000000
  0.333333  0.666667  0.500000
 
   20   20   36
  182.32      172.02      144.51      108.09      71.881      42.514      23.020      13.055      9.6135      8.5254    
  8.1649      8.5264      9.6142      13.055      23.019      42.513      71.882      108.10      144.51      172.02    
  172.03      172.02      153.16      121.43      85.659      53.662      30.159      16.389      10.572      8.8648    
  8.1570      8.1557      8.8634      10.574      16.391      30.158      53.659      85.665      121.46      153.18    
  144.53      153.14      144.51      121.44      90.794      60.288      35.686      19.662      11.790      9.1752    
  8.1843      7.8513      8.1812      9.1742      11.792      19.662      35.680      60.282      90.800      121.45    
  108.09      121.37      121.37      108.10      85.659      60.287      37.766      21.691      12.851      9.4547    
  8.2359      7.6391      7.6383      8.2349      9.4555      12.853      21.690      37.759      60.276      85.647    
  71.858      85.549      90.656      85.568      71.881      53.661      35.686      21.692      13.274      9.6454    
  8.2873      7.5171      7.2721      7.5181      8.2879      9.6459      13.277      21.697      35.687      53.648    
  42.511      53.583      60.149      60.156      53.594      42.513      30.159      19.663      12.851      9.6452    
  8.3091      7.4652      7.0701      7.0713      7.4663      8.3071      9.6441      12.858      19.678      30.171    
  23.036      30.157      35.637      37.691      35.631      30.144      23.020      16.390      11.790      9.4541    
  8.2875      7.4653      7.0064      6.8665      7.0081      7.4641      8.2816      9.4486      11.792      16.402    
  13.054      16.430      19.710      21.724      21.716      19.694      16.419      13.055      10.573      9.1745    
  8.2359      7.5174      7.0698      6.8665      6.8676      7.0718      7.5168      8.2291      9.1619      10.561    
  9.5951      10.607      11.872      12.955      13.380      12.950      11.872      10.620      9.6138      8.8645    
  8.1839      7.6396      7.2720      7.0711      7.0086      7.0719      7.2762      7.6455      8.1834      8.8520    
  8.5254      8.9029      9.2569      9.5770      9.7919      9.7940      9.5844      9.2692      8.9136      8.5257    
  8.1567      7.8518      7.6386      7.5177      7.4666      7.4644      7.5160      7.6453      7.8660      8.1681    
  8.1818      8.2206      8.2862      8.3735      8.4550      8.4914      8.4611      8.3794      8.2844      8.2086    
  8.1649      8.1557      8.1817      8.2345      8.2875      8.3073      8.2811      8.2287      8.1843      8.1685    
  8.5245      8.2202      7.9722      7.8012      7.7103      7.6793      7.6811      7.7111      7.7939      7.9581    
  8.2096      8.5258      8.8635      9.1741      9.4548      9.6461      9.6445      9.4485      9.1625      8.8525    
  9.5944      8.9024      8.2871      7.8014      7.4776      7.3050      7.2533      7.3047      7.4736      7.7949    
  8.2866      8.9147      9.6139      10.574      11.792      12.853      13.278      12.858      11.792      10.561    
  13.054      10.608      9.2575      8.3737      7.7096      7.3049      7.1240      7.1231      7.3034      7.7108    
  8.3806      9.2695      10.618      13.055      16.391      19.662      21.691      21.697      19.677      16.402    
  23.037      16.430      11.871      9.5768      8.4545      7.6793      7.2538      7.1229      7.2512      7.6799    
  8.4611      9.5837      11.869      16.417      23.020      30.158      35.680      37.759      35.686      30.171    
  42.512      30.157      19.709      12.955      9.7923      8.4916      7.6814      7.3044      7.3031      7.6801    
  8.4933      9.7932      12.948      19.695      30.146      42.513      53.659      60.282      60.276      53.649    
  71.858      53.582      35.636      21.724      13.381      9.7941      8.4608      7.7110      7.4735      7.7113    
  8.4613      9.7929      13.376      21.718      35.637      53.595      71.881      85.666      90.801      85.647    
  108.09      85.549      60.150      37.692      21.717      12.950      9.5838      8.3796      7.7942      7.7950    
  8.3806      9.5832      12.948      21.718      37.699      60.161      85.561      108.10      121.46      121.45    
  144.53      121.37      90.657      60.156      35.630      19.693      11.871      9.2699      8.2849      7.9576    
  8.2862      9.2695      11.869      19.695      35.637      60.161      90.650      121.35      144.51      153.18    
  172.03      153.14      121.37      85.567      53.593      30.144      16.419      10.620      8.9138      8.2079    
  8.2093      8.9153      10.619      16.417      30.146      53.596      85.561      121.35      153.12      172.02    
  172.39      162.66      136.66      102.20      67.903      40.142      21.826      12.581      9.4357      8.3867    
  8.0372      8.3876      9.4364      12.581      21.825      40.141      67.904      102.20      136.66      162.66    
  162.67      162.66      144.83      114.82      80.938      50.656      28.501      15.643      10.301      8.7101    
  8.0235      8.0223      8.7087      10.303      15.645      28.499      50.654      80.944      114.84      144.86    
  136.68      144.82      136.66      114.82      85.799      56.914      33.686      18.670      11.398      9.0054    
  8.0450      7.7236      8.0420      9.0044      11.401      18.671      33.681      56.908      85.804      114.84    
  102.19      114.77      114.77      102.20      80.938      56.913      35.642      20.555      12.360      9.2580    
  8.0913      7.5158      7.5150      8.0903      9.2586      12.362      20.554      35.635      56.902      80.927    
  67.882      80.856      85.697      80.873      67.903      50.655      33.687      20.555      12.745      9.4270    
  8.1387      7.3963      7.1612      7.3974      8.1392      9.4273      12.748      20.560      33.687      50.643    
  40.140      50.606      56.824      56.829      50.616      40.141      28.500      18.671      12.360      9.4268    
  8.1589      7.3454      6.9666      6.9678      7.3465      8.1571      9.4257      12.367      18.685      28.511    
  21.840      28.523      33.685      35.623      33.679      28.512      21.825      15.644      11.398      9.2574    
  8.1388      7.3455      6.9054      6.7715      6.9070      7.3445      8.1335      9.2524      11.401      15.655    
  12.579      15.703      18.757      20.640      20.633      18.743      15.693      12.581      10.302      9.0047    
  8.0913      7.3966      6.9663      6.7715      6.7725      6.9681      7.3960      8.0850      8.9931      10.291    
  9.4187      10.353      11.512      12.508      12.900      12.503      11.512      10.364      9.4360      8.7098    
  8.0446      7.5163      7.1611      6.9676      6.9075      6.9682      7.1648      7.5216      8.0441      8.6983    
  8.3867      8.7618      9.1132      9.4161      9.6145      9.6164      9.4227      9.1245      8.7717      8.3870    
  8.0232      7.7240      7.5153      7.3970      7.3468      7.3448      7.3953      7.5214      7.7371      8.0337    
  8.0527      8.0972      8.1679      8.2581      8.3404      8.3766      8.3460      8.2634      8.1662      8.0863    
  8.0372      8.0222      8.0425      8.0899      8.1388      8.1573      8.1330      8.0846      8.0450      8.0340    
  8.3858      8.0969      7.8627      7.7021      7.6173      7.5886      7.5902      7.6181      7.6954      7.8497    
  8.0872      8.3870      8.7089      9.0043      9.2580      9.4275      9.4261      9.2523      8.9937      8.6988    
  9.4181      8.7614      8.1688      7.7023      7.3917      7.2261      7.1767      7.2261      7.3882      7.6964    
  8.1683      8.7727      9.4361      10.303      11.401      12.362      12.749      12.367      11.400      10.291    
  12.580      10.353      9.1138      8.2584      7.6167      7.2261      7.0515      7.0507      7.2248      7.6177    
  8.2647      9.1248      10.363      12.581      15.645      18.671      20.554      20.560      18.684      15.655    
  21.841      15.704      11.511      9.4159      8.3400      7.5886      7.1771      7.0506      7.1746      7.5890    
  8.3460      9.4221      11.510      15.692      21.825      28.499      33.681      35.635      33.686      28.511    
  40.140      28.523      18.757      12.508      9.6149      8.3768      7.5905      7.2258      7.2245      7.5893    
  8.3782      9.6157      12.502      18.743      28.513      40.141      50.653      56.908      56.903      50.644    
  67.882      50.605      33.685      20.640      12.901      9.6165      8.3457      7.6179      7.3881      7.6182    
  8.3461      9.6155      12.896      20.635      33.685      50.618      67.903      80.945      85.804      80.928    
  102.19      80.855      56.824      35.624      20.634      12.503      9.4221      8.2637      7.6958      7.6965    
  8.2646      9.4217      12.502      20.635      35.630      56.834      80.867      102.20      114.84      114.84    
  136.68      114.77      85.697      56.830      33.679      18.742      11.511      9.1251      8.1667      7.8492    
  8.1679      9.1248      11.510      18.744      33.685      56.835      85.691      114.75      136.66      144.86    
  162.67      144.82      114.77      80.872      50.616      28.511      15.694      10.365      8.7718      8.0856    
  8.0869      8.7733      10.363      15.691      28.513      50.618      80.867      114.75      144.80      162.66    
  145.78      137.56      115.56      86.312      57.209      33.818      18.698      11.372      8.9634      8.0084    
  7.6911      8.0092      8.9641      11.372      18.697      33.817      57.210      86.313      115.56      137.56    
  137.57      137.56      122.48      97.014      68.234      42.605      24.117      13.717      9.6076      8.2834    
  7.6589      7.6578      8.2822      9.6088      13.719      24.116      42.604      68.239      97.029      122.50    
  115.57      122.48      115.56      97.015      72.350      47.861      28.376      16.088      10.400      8.5381    
  7.6620      7.3735      7.6594      8.5371      10.402      16.089      28.373      47.857      72.353      97.028    
  86.308      97.007      97.009      86.313      68.234      47.861      29.991      17.584      11.105      8.7353    
  7.6914      7.1764      7.1757      7.6905      8.7356      11.106      17.582      29.986      47.852      68.226    
  57.193      68.224      72.344      68.237      57.209      42.604      28.376      17.584      11.390      8.8548    
  7.7261      7.0625      6.8548      7.0635      7.7265      8.8547      11.392      17.588      28.377      42.595    
  33.816      42.635      47.900      47.905      42.642      33.817      24.116      16.089      11.105      8.8546    
  7.7415      7.0134      6.6795      6.6807      7.0146      7.7402      8.8536      11.110      16.100      24.125    
  18.709      24.207      28.503      30.125      28.499      24.198      18.698      13.718      10.400      8.7348    
  7.7262      7.0135      6.6245      6.5071      6.6259      7.0130      7.7223      8.7311      10.402      13.726    
  11.370      13.832      16.284      17.813      17.808      16.273      13.824      11.372      9.6079      8.5375    
  7.6914      7.0627      6.6793      6.5070      6.5077      6.6805      7.0623      7.6867      8.5287      9.5996    
  8.9502      9.7075      10.605      11.378      11.684      11.374      10.605      9.7163      8.9637      8.2831    
  7.6617      7.1769      6.8547      6.6805      6.6264      6.6806      6.8572      7.1808      7.6612      8.2741    
  8.0084      8.3772      8.7264      9.0033      9.1683      9.1696      9.0081      8.7348      8.3847      8.0086    
  7.6586      7.3740      7.1760      7.0631      7.0149      7.0132      7.0616      7.1806      7.3840      7.6667    
  7.7031      7.7664      7.8541      7.9555      8.0425      8.0790      8.0466      7.9594      7.8526      7.7579    
  7.6911      7.6578      7.6598      7.6901      7.7262      7.7405      7.7219      7.6863      7.6620      7.6670    
  8.0076      7.7661      7.5755      7.4494      7.3863      7.3670      7.3683      7.3871      7.4443      7.5655    
  7.7588      8.0087      8.2823      8.5371      8.7350      8.8549      8.8540      8.7311      8.5292      8.2746    
  8.9496      8.3768      7.8548      7.4496      7.1829      7.0423      7.0007      7.0427      7.1806      7.4451    
  7.8544      8.3855      8.9638      9.6091      10.402      11.106      11.393      11.110      10.402      9.5995    
  11.371      9.7076      8.7270      7.9558      7.3857      7.0423      6.8897      6.8892      7.0415      7.3867    
  7.9605      8.7352      9.7151      11.372      13.719      16.089      17.583      17.587      16.099      13.726    
  18.710      13.832      10.604      9.0031      8.0421      7.3670      7.0011      6.8891      6.9989      7.3670    
  8.0466      9.0078      10.603      13.822      18.698      24.116      28.372      29.985      28.376      24.125    
  33.817      24.207      16.283      11.378      9.1686      8.0792      7.3686      7.0424      7.0412      7.3673    
  8.0801      9.1694      11.373      16.273      24.198      33.817      42.603      47.857      47.853      42.596    
  57.193      42.634      28.503      17.814      11.685      9.1697      8.0463      7.3869      7.1805      7.3871    
  8.0467      9.1691      11.681      17.810      28.503      42.643      57.209      68.239      72.354      68.226    
  86.307      68.223      47.901      30.126      17.809      11.374      9.0076      7.9596      7.4446      7.4452    
  7.9605      9.0074      11.373      17.810      30.131      47.909      68.232      86.313      97.030      97.027    
  115.57      97.008      72.345      47.905      28.499      16.273      10.604      8.7354      7.8531      7.5651    
  7.8541      8.7352      10.603      16.273      28.503      47.909      72.340      96.994      115.56      122.49    
  137.57      122.48      97.009      68.236      42.642      24.197      13.825      9.7168      8.3848      7.7573    
  7.7584      8.3861      9.7155      13.822      24.198      42.644      68.232      96.994      122.46      137.56    
  110.26      104.02      87.281      65.011      42.960      25.562      14.781      9.9316      8.3113      7.4857    
  7.2182      7.4864      8.3118      9.9313      14.780      25.562      42.960      65.011      87.281      104.02    
  104.03      104.02      92.537      73.130      51.242      31.982      18.508      11.374      8.7500      7.6828    
  7.1548      7.1539      7.6819      8.7510      11.376      18.508      31.981      51.244      73.139      92.549    
  87.289      92.560      87.281      73.131      54.344      35.863      21.508      12.890      9.1994      7.8709    
  7.1262      6.8868      7.1241      7.8701      9.2011      12.892      21.506      35.860      54.346      73.139    
  65.008      73.181      73.182      65.012      51.242      35.862      22.657      13.871      9.5967      8.0168    
  7.1261      6.7002      6.6997      7.1253      8.0167      9.5971      13.870      22.654      35.857      51.236    
  42.950      51.325      54.465      51.334      42.960      31.981      21.508      13.871      9.7595      8.0959    
  7.1386      6.5899      6.4212      6.5908      7.1390      8.0955      9.7599      13.873      21.509      31.976    
  25.561      32.116      36.072      36.075      32.120      25.561      18.508      12.891      9.5967      8.0958    
  7.1456      6.5409      6.2696      6.2706      6.5421      7.1451      8.0951      9.5997      12.898      18.514    
  14.788      18.689      21.806      22.995      21.804      18.683      14.781      11.374      9.1995      8.0164    
  7.1387      6.5410      6.2221      6.1267      6.2232      6.5410      7.1366      8.0144      9.2011      11.380    
  9.9302      11.565      13.237      14.299      14.296      13.230      11.560      9.9316      8.7503      7.8704    
  7.1260      6.5901      6.2694      6.1267      6.1270      6.2700      6.5898      7.1233      7.8651      8.7450    
  8.3028      8.9218      9.5391      10.052      10.255      10.050      9.5390      8.9275      8.3115      7.6826    
  7.1259      6.7006      6.4211      6.2704      6.2236      6.2701      6.4221      6.7028      7.1256      7.6768    
  7.4858      7.8432      8.1863      8.4581      8.6080      8.6086      8.4607      8.1913      7.8478      7.4859    
  7.1545      6.8872      6.7000      6.5905      6.5423      6.5411      6.5893      6.7026      6.8934      7.1596    
  7.2258      7.3198      7.4348      7.5549      7.6504      7.6883      7.6527      7.5569      7.4336      7.3144    
  7.2183      7.1539      7.1245      7.1250      7.1387      7.1452      7.1363      7.1230      7.1262      7.1599    
  7.4851      7.3195      7.1985      7.1285      7.1023      7.0999      7.1008      7.1030      7.1254      7.1924    
  7.3150      7.4860      7.6820      7.8700      8.0162      8.0956      8.0954      8.0144      7.8655      7.6772    
  8.3023      7.8429      7.4354      7.1287      6.9342      6.8360      6.8081      6.8368      6.9333      7.1260    
  7.4350      7.8485      8.3115      8.7513      9.2009      9.5971      9.7605      9.5998      9.2008      8.7449    
  9.9306      8.9219      8.1868      7.5551      7.1018      6.8360      6.7206      6.7204      6.8358      7.1026    
  7.5579      8.1916      8.9266      9.9316      11.376      12.892      13.870      13.873      12.897      11.380    
  14.789      11.565      9.5388      8.4579      7.6501      7.0999      6.8084      6.7203      6.8067      7.0995    
  7.6527      8.4608      9.5375      11.559      14.781      18.508      21.506      22.654      21.508      18.514    
  25.561      18.688      13.236      10.052      8.6083      7.6885      7.1011      6.8365      6.8356      7.0997    
  7.6888      8.6088      10.049      13.229      18.683      25.561      31.981      35.860      35.857      31.977    
  42.950      32.115      21.806      14.299      10.255      8.6087      7.6525      7.1028      6.9333      7.1029    
  7.6528      8.6086      10.254      14.297      21.806      32.121      42.960      51.245      54.347      51.237    
  65.008      51.325      36.072      22.996      14.296      10.050      8.4602      7.5571      7.1256      7.1261    
  7.5579      8.4604      10.049      14.297      22.999      36.077      51.331      65.012      73.140      73.138    
  87.288      73.181      54.465      36.075      21.803      13.229      9.5388      8.1917      7.4340      7.1920    
  7.4348      8.1917      9.5376      13.230      21.806      36.077      54.463      73.173      87.281      92.548    
  104.03      92.562      73.182      51.333      32.120      18.683      11.561      8.9280      7.8480      7.3139    
  7.3148      7.8489      8.9269      11.559      18.683      32.121      51.331      73.173      92.549      104.02    
  74.420      70.154      58.726      43.611      28.903      17.746      11.330      8.7113      7.5898      6.9298    
  6.7218      6.9304      7.5902      8.7110      11.330      17.745      28.903      43.611      58.726      70.154    
  70.157      70.154      62.297      49.067      34.322      21.714      13.390      9.3882      7.8952      7.0317    
  6.6199      6.6193      7.0311      7.8960      9.3899      13.390      21.714      34.323      49.072      62.303    
  58.729      62.340      58.726      49.068      36.370      24.163      15.116      10.120      8.1342      7.1340    
  6.5496      6.3666      6.5481      7.1333      8.1354      10.122      15.116      24.161      36.370      49.071    
  43.610      49.174      49.175      43.612      34.322      24.162      15.791      10.611      8.3010      7.2152    
  6.5093      6.1845      6.1843      6.5087      7.2149      8.3009      10.610      15.789      24.159      34.319    
  28.899      34.496      36.612      34.500      28.903      21.714      15.116      10.611      8.3663      7.2596    
  6.4916      6.0714      5.9447      6.0722      6.4918      7.2589      8.3656      10.612      15.117      21.712    
  17.745      21.948      24.534      24.536      21.950      17.745      13.389      10.121      8.3010      7.2595    
  6.4871      6.0185      5.8131      5.8138      6.0195      6.4871      7.2590      8.3022      10.124      13.393    
  11.333      13.659      15.580      16.326      15.580      13.656      11.330      9.3886      8.1343      7.2149    
  6.4916      6.0185      5.7715      5.6981      5.7722      6.0188      6.4910      7.2143      8.1354      9.3915    
  8.7103      9.6582      10.619      11.239      11.238      10.616      9.6567      8.7113      7.8954      7.1336    
  6.5092      6.0716      5.8130      5.6981      5.6981      5.8130      6.0714      6.5082      7.1313      7.8928    
  7.5856      8.1455      8.6190      8.9511      9.0751      8.9498      8.6189      8.1484      7.5900      7.0315    
  6.5494      6.1849      5.9447      5.8137      5.7725      5.8131      5.9446      6.1856      6.5491      7.0287    
  6.9299      7.2676      7.5926      7.8513      7.9946      7.9946      7.8521      7.5946      7.2696      6.9300    
  6.6197      6.3669      6.1844      6.0719      6.0197      6.0190      6.0710      6.1854      6.3698      6.6221    
  6.7254      6.8529      6.9941      7.1294      7.2303      7.2683      7.2310      7.1300      6.9933      6.8504    
  6.7218      6.6193      6.5484      6.5085      6.4916      6.4872      6.4907      6.5079      6.5496      6.6223    
  6.9294      6.8527      6.8090      6.7980      6.8091      6.8231      6.8236      6.8095      6.7967      6.8062    
  6.8508      6.9300      7.0311      7.1332      7.2145      7.2591      7.2592      7.2143      7.1316      7.0289    
  7.5852      7.2673      6.9945      6.7982      6.6814      6.6273      6.6133      6.6283      6.6816      6.7971    
  6.9943      7.2700      7.5900      7.8962      8.1353      8.3009      8.3661      8.3023      8.1352      7.8928    
  8.7105      8.1456      7.5930      7.1296      6.8087      6.6273      6.5513      6.5514      6.6275      6.8092    
  7.1307      7.5949      8.1477      8.7113      9.3901      10.122      10.610      10.611      10.124      9.3913    
  11.334      9.6585      8.6187      7.8512      7.2300      6.8231      6.6136      6.5514      6.6124      6.8225    
  7.2310      7.8524      8.6179      9.6551      11.330      13.390      15.115      15.788      15.116      13.393    
  17.746      13.659      10.618      8.9509      7.9948      7.2684      6.8238      6.6281      6.6274      6.8226    
  7.2682      7.9951      8.9499      10.615      13.656      17.745      21.714      24.161      24.160      21.712    
  28.899      21.947      15.580      11.239      9.0756      7.9947      7.2308      6.8094      6.6815      6.8094    
  7.2311      7.9950      9.0753      11.238      15.580      21.950      28.903      34.323      36.370      34.320    
  43.610      34.496      24.535      16.326      11.238      8.9495      7.8517      7.1301      6.7969      6.7971    
  7.1307      7.8521      8.9498      11.238      16.328      24.537      34.499      43.612      49.072      49.071    
  58.729      49.175      36.612      24.536      15.579      10.616      8.6187      7.5950      6.9936      6.8059    
  6.9941      7.5950      8.6180      10.615      15.580      24.537      36.611      49.171      58.726      62.302    
  70.157      62.341      49.175      34.500      21.950      13.656      9.6568      8.1487      7.2697      6.8500    
  6.8506      7.2704      8.1479      9.6550      13.656      21.950      34.499      49.171      62.335      70.154    
  44.656      42.077      35.216      26.316      17.988      12.111      9.0829      7.7759      6.9165      6.4313    
  6.2820      6.4316      6.9168      7.7757      9.0825      12.110      17.988      26.316      35.216      42.076    
  42.077      42.076      37.335      29.458      20.933      14.042      9.9068      8.0811      7.0856      6.4381    
  6.1421      6.1417      6.4377      7.0861      8.0824      9.9077      14.042      20.933      29.459      37.336    
  35.217      37.392      35.216      29.458      22.064      15.277      10.637      8.3280      7.2180      6.4502    
  6.0270      5.8978      6.0261      6.4497      7.2187      8.3292      10.637      15.277      22.064      29.459    
  26.316      29.605      29.606      26.316      20.933      15.277      10.931      8.4883      7.2979      6.4607    
  5.9425      5.7123      5.7121      5.9421      6.4604      7.2975      8.4878      10.930      15.276      20.932    
  17.987      21.172      22.395      21.173      17.988      14.042      10.637      8.4885      7.3239      6.4663    
  5.8912      5.5892      5.4995      5.5897      5.8914      6.4657      7.3229      8.4881      10.637      14.042    
  12.111      14.349      15.768      15.768      14.349      12.110      9.9067      8.3284      7.2979      6.4663    
  5.8741      5.5281      5.3788      5.3793      5.5289      5.8743      6.4659      7.2980      8.3295      9.9080    
  9.0835      10.244      11.226      11.614      11.226      10.244      9.0827      8.0814      7.2181      6.4605    
  5.8912      5.5281      5.3399      5.2836      5.3402      5.5285      5.8914      6.4608      7.2187      8.0824    
  7.7752      8.4164      8.9493      9.2746      9.2743      8.9490      8.4165      7.7759      7.0857      6.4499    
  5.9424      5.5893      5.3787      5.2836      5.2835      5.3785      5.5892      5.9424      6.4496      7.0850    
  6.9152      7.4044      7.8281      8.1138      8.2140      8.1133      7.8280      7.4053      6.9166      6.4379    
  6.0269      5.7125      5.4995      5.3792      5.3404      5.3785      5.4989      5.7123      6.0267      6.4371    
  6.4314      6.7418      7.0367      7.2698      7.3986      7.3984      7.2695      7.0367      6.7421      6.4314    
  6.1420      5.8980      5.7123      5.5895      5.5290      5.5286      5.5889      5.7122      5.8986      6.1426    
  6.2829      6.4385      6.5961      6.7362      6.8347      6.8703      6.8345      6.7359      6.5957      6.4378    
  6.2820      6.1417      6.0263      5.9419      5.8912      5.8744      5.8913      5.9422      6.0270      6.1427    
  6.4311      6.4384      6.4616      6.4965      6.5328      6.5565      6.5567      6.5331      6.4963      6.4610    
  6.4381      6.4314      6.4377      6.4497      6.4601      6.4658      6.4661      6.4607      6.4498      6.4373    
  6.9150      6.7416      6.5964      6.4966      6.4419      6.4199      6.4153      6.4208      6.4426      6.4965    
  6.5962      6.7423      6.9166      7.0862      7.2186      7.2976      7.3233      7.2981      7.2186      7.0850    
  7.7754      7.4044      7.0369      6.7363      6.5326      6.4199      6.3738      6.3740      6.4203      6.5328    
  6.7364      7.0370      7.4048      7.7759      8.0825      8.3292      8.4880      8.4880      8.3291      8.0822    
  9.0839      8.4166      7.8279      7.2697      6.8345      6.5565      6.4154      6.3739      6.4147      6.5558    
  6.8345      7.2699      7.8274      8.4154      9.0827      9.9076      10.637      10.930      10.637      9.9081    
  12.111      10.244      8.9489      8.1136      7.3988      6.8704      6.5568      6.4207      6.4202      6.5559    
  6.8700      7.3990      8.1136      8.9482      10.243      12.110      14.042      15.277      15.276      14.042    
  17.987      14.348      11.226      9.2747      8.2143      7.3984      6.8344      6.5331      6.4426      6.5330    
  6.8346      7.3988      8.2147      9.2748      11.226      14.349      17.988      20.933      22.064      20.932    
  26.315      21.172      15.768      11.615      9.2745      8.1131      7.2692      6.7360      6.4964      6.4966    
  6.7364      7.2697      8.1136      9.2749      11.615      15.769      21.173      26.316      29.459      29.458    
  35.217      29.606      22.395      15.768      11.226      8.9486      7.8279      7.0370      6.5958      6.4608    
  6.5961      7.0370      7.8275      8.9482      11.226      15.769      22.395      29.605      35.216      37.336    
  42.077      37.393      29.606      21.173      14.349      10.243      8.4166      7.4055      6.7422      6.4376    
  6.4379      6.7426      7.4050      8.4153      10.243      14.349      21.173      29.605      37.391      42.076    
  24.156      22.849      19.432      15.174      11.465      9.1043      7.8734      6.9883      6.3753      6.0448    
  5.9448      6.0451      6.3754      6.9882      7.8732      9.1042      11.465      15.174      19.432      22.849    
  22.848      22.848      20.459      16.602      12.655      9.7399      8.1291      7.1518      6.4172      5.9688    
  5.7699      5.7698      5.9686      6.4174      7.1526      8.1298      9.7400      12.654      16.602      20.459    
  19.432      20.523      19.432      16.602      13.126      10.167      8.3195      7.2595      6.4464      5.9017    