unknown system                          
   1.00000000000000     
     2.423200    0.000000    0.000000
    -1.211600    2.098553    0.000000
     0.000000    0.000000    4.264000
   Fe
     2
Direct
  0.000000  0.000000  0.000000
  0.333333  0.666667  0.500000
 
   20   20   36
 0.18231657514E+03 0.17201596413E+03 0.14451015557E+03 0.10809437684E+03 0.71881124449E+02
 0.42513566303E+02 0.23020217962E+02 0.13055393557E+02 0.96135041893E+01 0.85254303185E+01
 0.81648985008E+01 0.85264150231E+01 0.96142474013E+01 0.13054988675E+02 0.23019172679E+02
 0.42513090582E+02 0.71881630576E+02 0.10809513755E+03 0.14451040233E+03 0.17201581098E+03
 0.17202717245E+03 0.17201507135E+03 0.15315525848E+03 0.12143461736E+03 0.85658599596E+02
 0.53661968790E+02 0.30159440851E+02 0.16389058972E+02 0.10572368644E+02 0.88648079083E+01
 0.81570442613E+01 0.81557487094E+01 0.88633601187E+01 0.10573761718E+02 0.16391062274E+02
 0.30157809616E+02 0.53659378182E+02 0.85665269200E+02 0.12145613433E+03 0.15318170557E+03
 0.14452731072E+03 0.15314005005E+03 0.14451026063E+03 0.12143548529E+03 0.90794341262E+02
 0.60287876891E+02 0.35686049491E+02 0.19661768119E+02 0.11789894790E+02 0.91752324372E+01
 0.81842667099E+01 0.78513263523E+01 0.81811596806E+01 0.91742082381E+01 0.11792481654E+02
 0.19662271785E+02 0.35680231915E+02 0.60282006163E+02 0.90799879924E+02 0.12145381025E+03
 0.10808791929E+03 0.12136744368E+03 0.12137023044E+03 0.10809605187E+03 0.85658539876E+02
 0.60287174355E+02 0.37766442575E+02 0.21691452509E+02 0.12851106276E+02 0.94547494072E+01
 0.82359295123E+01 0.76390726330E+01 0.76382750383E+01 0.82349173308E+01 0.94555256327E+01
 0.12852780731E+02 0.21690206740E+02 0.37759382280E+02 0.60275538876E+02 0.85646689466E+02
 0.71858448747E+02 0.85549413362E+02 0.90656455130E+02 0.85568064314E+02 0.71881381743E+02
 0.53660558074E+02 0.35686083542E+02 0.21691915785E+02 0.13273728736E+02 0.96454197810E+01
 0.82873461020E+01 0.75170766320E+01 0.72721133284E+01 0.75181383465E+01 0.82878596208E+01
 0.96458811029E+01 0.13276964686E+02 0.21697425006E+02 0.35686505356E+02 0.53648016713E+02
 0.42511269374E+02 0.53582531577E+02 0.60149476321E+02 0.60155777344E+02 0.53593519981E+02
 0.42512761383E+02 0.30159220446E+02 0.19662779673E+02 0.12851049722E+02 0.96451882363E+01
 0.83090842396E+01 0.74652019601E+01 0.70700875439E+01 0.70713274908E+01 0.74662501723E+01
 0.83070584942E+01 0.96440598950E+01 0.12858177789E+02 0.19677778546E+02 0.30170992293E+02
 0.23036081067E+02 0.30157299457E+02 0.35636929059E+02 0.37691081473E+02 0.35630611516E+02
 0.30144338394E+02 0.23019711767E+02 0.16389830475E+02 0.11790039527E+02 0.94541413969E+01
 0.82874974790E+01 0.74652812261E+01 0.70064070013E+01 0.68665024907E+01 0.70081053866E+01
 0.74641466154E+01 0.82815861802E+01 0.94485897156E+01 0.11792481654E+02 0.16402141393E+02
 0.13053634660E+02 0.16429911391E+02 0.19709723968E+02 0.21723771253E+02 0.21716461375E+02
 0.19694110702E+02 0.16418990352E+02 0.13055417311E+02 0.10572776916E+02 0.91745401853E+01
 0.82359082001E+01 0.75173941746E+01 0.70697663803E+01 0.68664580278E+01 0.68675741572E+01
 0.70717946833E+01 0.75167843310E+01 0.82290530802E+01 0.91618767006E+01 0.10561046234E+02
 0.95951067252E+01 0.10607363408E+02 0.11871668485E+02 0.12955485876E+02 0.13380080510E+02
 0.12950179626E+02 0.11871523018E+02 0.10619592805E+02 0.96138228011E+01 0.88644715220E+01
 0.81839156969E+01 0.76396421170E+01 0.72719640603E+01 0.70711203958E+01 0.70086392895E+01
 0.70719087518E+01 0.72761544808E+01 0.76454933043E+01 0.81833919687E+01 0.88519986501E+01
 0.85253871012E+01 0.89029025436E+01 0.92569113747E+01 0.95770391472E+01 0.97919048444E+01
 0.97939933171E+01 0.95844181865E+01 0.92692264568E+01 0.89136493879E+01 0.85257250498E+01
 0.81566614587E+01 0.78518100491E+01 0.76386141951E+01 0.75177202681E+01 0.74665914970E+01
 0.74644086740E+01 0.75160487102E+01 0.76452629771E+01 0.78660398272E+01 0.81681380999E+01
 0.81818068887E+01 0.82205562042E+01 0.82862304527E+01 0.83734523675E+01 0.84550153014E+01
 0.84914041534E+01 0.84611215395E+01 0.83793625342E+01 0.82844346368E+01 0.82086308322E+01
 0.81648968582E+01 0.81556856522E+01 0.81816834088E+01 0.82345020693E+01 0.82874974790E+01
 0.83073151471E+01 0.82810726614E+01 0.82286591309E+01 0.81842667099E+01 0.81684578454E+01
 0.85244713995E+01 0.82202316758E+01 0.79721669887E+01 0.78012013712E+01 0.77103315378E+01
 0.76792721719E+01 0.76810726904E+01 0.77111497877E+01 0.77939069390E+01 0.79580664028E+01
 0.82096418665E+01 0.85257940527E+01 0.88635126030E+01 0.91741450888E+01 0.94548179669E+01
 0.96460505253E+01 0.96444608621E+01 0.94484900601E+01 0.91625058032E+01 0.88524875207E+01
 0.95944424930E+01 0.89024438402E+01 0.82870763099E+01 0.78014248122E+01 0.74775879701E+01
 0.73049500242E+01 0.72533371947E+01 0.73047350287E+01 0.74736158943E+01 0.77948658580E+01
 0.82865879452E+01 0.89146773098E+01 0.96139017808E+01 0.10574130932E+02 0.11792192835E+02
 0.12852870930E+02 0.13277848869E+02 0.12858324542E+02 0.11792048099E+02 0.10561007175E+02
 0.13054076400E+02 0.10607508375E+02 0.92575210552E+01 0.83737251176E+01 0.77096472109E+01
 0.73049080398E+01 0.71239722358E+01 0.71230676534E+01 0.73034178716E+01 0.77107915496E+01
 0.83806275758E+01 0.92695156920E+01 0.10618275648E+02 0.13055454170E+02 0.16391429981E+02
 0.19662275622E+02 0.21690598628E+02 0.21697353618E+02 0.19676770829E+02 0.16401737598E+02
 0.23037126350E+02 0.16430409557E+02 0.11871249037E+02 0.95768313231E+01 0.84545372385E+01
 0.76792982212E+01 0.72538165221E+01 0.71229151174E+01 0.72511838863E+01 0.76798537328E+01
 0.84611215395E+01 0.95836503032E+01 0.11869290730E+02 0.16417376298E+02 0.23019711767E+02
 0.30157659277E+02 0.35679810101E+02 0.37758964271E+02 0.35686049491E+02 0.30171062358E+02
 0.42511748447E+02 0.30157168837E+02 0.19708741603E+02 0.12955098776E+02 0.97922811348E+01
 0.84916265431E+01 0.76813761160E+01 0.73044073406E+01 0.73031321680E+01 0.76801311092E+01
 0.84932741250E+01 0.97932033828E+01 0.12948361770E+02 0.19694574542E+02 0.30145873902E+02
 0.42512764735E+02 0.53658740218E+02 0.60281773946E+02 0.60276009194E+02 0.53648789465E+02
 0.71857966711E+02 0.53581552759E+02 0.35636473901E+02 0.21724039311E+02 0.13380915714E+02
 0.97940989910E+01 0.84607865893E+01 0.77109643679E+01 0.74734919277E+01 0.77112904568E+01
 0.84612646522E+01 0.97929327663E+01 0.13376063447E+02 0.21717815391E+02 0.35636860867E+02
 0.53595341189E+02 0.71881405833E+02 0.85665758142E+02 0.90800590613E+02 0.85647238127E+02
 0.10808718165E+03 0.85548723630E+02 0.60149925044E+02 0.37692077108E+02 0.21716844129E+02
 0.12949721451E+02 0.95837664663E+01 0.83796031424E+01 0.77942296304E+01 0.77949651084E+01
 0.83805954339E+01 0.95832064071E+01 0.12948290694E+02 0.21717930086E+02 0.37698559004E+02
 0.60161151318E+02 0.85560869132E+02 0.10809607495E+03 0.12145636602E+03 0.12145317401E+03
 0.14452706396E+03 0.12136818584E+03 0.90657160260E+02 0.60156385610E+02 0.35630224550E+02
 0.19693267999E+02 0.11871249037E+02 0.92698596461E+01 0.82849230015E+01 0.79575523218E+01
 0.82862304527E+01 0.92695392007E+01 0.11869436196E+02 0.19694714205E+02 0.35636929059E+02
 0.60161310861E+02 0.90650181689E+02 0.12134935643E+03 0.14451026063E+03 0.15318027570E+03
 0.17202731319E+03 0.15314174554E+03 0.12137049253E+03 0.85567267868E+02 0.53592901816E+02
 0.30144001924E+02 0.16419320539E+02 0.10620174589E+02 0.89137928968E+01 0.82079237002E+01
 0.82092592630E+01 0.89152795222E+01 0.10618712464E+02 0.16417208319E+02 0.30145668052E+02
 0.53595701842E+02 0.85560762419E+02 0.12134887636E+03 0.15311501544E+03 0.17201505894E+03
 0.17238940540E+03 0.16266067791E+03 0.13665999584E+03 0.10219506687E+03 0.67903086740E+02
 0.40141680139E+02 0.21825562486E+02 0.12580991201E+02 0.94356972458E+01 0.83866851913E+01
 0.80371701823E+01 0.83876344644E+01 0.94364130542E+01 0.12580599257E+02 0.21824552911E+02
 0.40141220441E+02 0.67903574731E+02 0.10219580086E+03 0.13666023417E+03 0.16266053038E+03
 0.16267097739E+03 0.16265981437E+03 0.14483308824E+03 0.11481904596E+03 0.80938399466E+02
 0.50655996662E+02 0.28500616772E+02 0.15642835765E+02 0.10301312752E+02 0.87101133988E+01
 0.80235280889E+01 0.80222914165E+01 0.87087290644E+01 0.10302667734E+02 0.15644876301E+02
 0.28499290093E+02 0.50653647343E+02 0.80944473822E+02 0.11483880934E+03 0.14485745553E+03
 0.13667578876E+03 0.14482317263E+03 0.13666009634E+03 0.11481988495E+03 0.85798577580E+02
 0.56913747709E+02 0.33686483901E+02 0.18670111926E+02 0.11398321904E+02 0.90053988441E+01
 0.80449655837E+01 0.77235688429E+01 0.80419887120E+01 0.90043863460E+01 0.11400799447E+02
 0.18670762307E+02 0.33681230587E+02 0.56908291396E+02 0.85803562307E+02 0.11483669202E+03
 0.10218919700E+03 0.11476815990E+03 0.11477072526E+03 0.10219668601E+03 0.80938343267E+02
 0.56913069103E+02 0.35641712812E+02 0.20554998585E+02 0.12360385326E+02 0.92580048558E+01
 0.80912779937E+01 0.75157585521E+01 0.75150040452E+01 0.80902912395E+01 0.92586445198E+01
 0.12361849330E+02 0.20553785811E+02 0.35635166432E+02 0.56902330929E+02 0.80927422960E+02
 0.67882327597E+02 0.80856113362E+02 0.85696633781E+02 0.80873235444E+02 0.67903336858E+02
 0.50654634027E+02 0.33686515116E+02 0.20555445698E+02 0.12744920235E+02 0.94270371444E+01
 0.81386746309E+01 0.73963055954E+01 0.71612286527E+01 0.73973554502E+01 0.81391687324E+01
 0.94273425545E+01 0.12747701238E+02 0.20560389667E+02 0.33686923133E+02 0.50643200338E+02
 0.40139615473E+02 0.50606188411E+02 0.56823631970E+02 0.56829432342E+02 0.50616275897E+02
 0.40140902656E+02 0.28500402449E+02 0.18671088505E+02 0.12360332960E+02 0.94268142850E+01
 0.81588832676E+01 0.73454225472E+01 0.69666224094E+01 0.69678307155E+01 0.73465157511E+01
 0.81570796140E+01 0.94257375870E+01 0.12366848219E+02 0.18684931597E+02 0.28511342065E+02
 0.21840107500E+02 0.28523342285E+02 0.33684989139E+02 0.35623188594E+02 0.33679252451E+02
 0.28511502975E+02 0.21825073731E+02 0.15643581330E+02 0.11398463625E+02 0.92574186206E+01
 0.81388179998E+01 0.73454978692E+01 0.69053711404E+01 0.67715146739E+01 0.69069906443E+01
 0.73445424217E+01 0.81334761867E+01 0.92524090255E+01 0.11400799447E+02 0.15654954944E+02
 0.12579281439E+02 0.15703177783E+02 0.18757479667E+02 0.20640020127E+02 0.20633326064E+02
 0.18743204774E+02 0.15693251784E+02 0.12581015257E+02 0.10301706688E+02 0.90047294079E+01
 0.80912547086E+01 0.73966104632E+01 0.69663148146E+01 0.67714729785E+01 0.67724641299E+01
 0.69681178651E+01 0.73960376323E+01 0.80850052011E+01 0.89931398414E+01 0.10290902911E+02
 0.94187251731E+01 0.10352881281E+02 0.11511784164E+02 0.12508387397E+02 0.12899740911E+02
 0.12503475360E+02 0.11511643245E+02 0.10364177113E+02 0.94360031306E+01 0.87097860549E+01
 0.80446265232E+01 0.75163092404E+01 0.71610872051E+01 0.69676326325E+01 0.69075044327E+01
 0.69682273768E+01 0.71647879061E+01 0.75216079015E+01 0.80441220044E+01 0.86982820591E+01
 0.83866574610E+01 0.87618412467E+01 0.91132487118E+01 0.94160598460E+01 0.96145056152E+01
 0.96163701822E+01 0.94227255677E+01 0.91244791058E+01 0.87716925911E+01 0.83869683139E+01
 0.80231604388E+01 0.77240392322E+01 0.75153322370E+01 0.73969512778E+01 0.73468432345E+01
 0.73447945831E+01 0.73953285920E+01 0.75213854050E+01 0.77371101687E+01 0.80337154251E+01
 0.80527247711E+01 0.80972433964E+01 0.81679343118E+01 0.82580975793E+01 0.83404429440E+01
 0.83765948746E+01 0.83459764765E+01 0.82634295881E+01 0.81662215843E+01 0.80862663965E+01
 0.80371703664E+01 0.80222330962E+01 0.80424932309E+01 0.80898872299E+01 0.81388179998E+01
 0.81573279610E+01 0.81329820852E+01 0.80846244766E+01 0.80449655837E+01 0.80340247551E+01
 0.83857740064E+01 0.80969291111E+01 0.78626838445E+01 0.77021258664E+01 0.76173136770E+01
 0.75885620589E+01 0.75902425231E+01 0.76181138546E+01 0.76954486865E+01 0.78497347005E+01
 0.80872272422E+01 0.83870341324E+01 0.87088748701E+01 0.90043227748E+01 0.92579614435E+01
 0.94275080676E+01 0.94261259596E+01 0.92523121843E+01 0.89937457065E+01 0.86987552086E+01
 0.94180849730E+01 0.87613966474E+01 0.81687504749E+01 0.77023426616E+01 0.73917287450E+01
 0.72261460202E+01 0.71766569610E+01 0.72261003368E+01 0.73882344343E+01 0.76963598713E+01
 0.81682792682E+01 0.87726695944E+01 0.94360787390E+01 0.10303024506E+02 0.11400521308E+02
 0.12361937928E+02 0.12748555097E+02 0.12366989183E+02 0.11400379588E+02 0.10290865747E+02
 0.12579709004E+02 0.10353020603E+02 0.91138366009E+01 0.82583629330E+01 0.76166538315E+01
 0.72261048084E+01 0.70515038200E+01 0.70507149618E+01 0.72248181396E+01 0.76177428422E+01
 0.82646621245E+01 0.91247842997E+01 0.10362894916E+02 0.12581050877E+02 0.15645231890E+02
 0.18670765735E+02 0.20554163500E+02 0.20560320244E+02 0.18683958445E+02 0.15654564968E+02
 0.21841117075E+02 0.15703659324E+02 0.11511378520E+02 0.94158601475E+01 0.83399822417E+01
 0.75885857574E+01 0.71771185494E+01 0.70505676527E+01 0.71745992770E+01 0.75889853084E+01
 0.83459764765E+01 0.94220945942E+01 0.11509509952E+02 0.15691587936E+02 0.21825073731E+02
 0.28499143511E+02 0.33680822570E+02 0.35634762926E+02 0.33686483901E+02 0.28511409808E+02
 0.40140077407E+02 0.28523216416E+02 0.18756530852E+02 0.12508013163E+02 0.96148691300E+01
 0.83768084546E+01 0.75905345202E+01 0.72257842727E+01 0.72245432873E+01 0.75892536069E+01
 0.83782472683E+01 0.96157444526E+01 0.12501872627E+02 0.18743489689E+02 0.28512737346E+02
 0.40140904891E+02 0.50653031294E+02 0.56908067980E+02 0.56902786119E+02 0.50643946924E+02
 0.67881861085E+02 0.50605242623E+02 0.33684549826E+02 0.20640278404E+02 0.12900547120E+02
 0.96164718629E+01 0.83456533084E+01 0.76179360287E+01 0.73881153623E+01 0.76182248618E+01
 0.83461140107E+01 0.96154826185E+01 0.12896203137E+02 0.20634643882E+02 0.33684923517E+02
 0.50617880864E+02 0.67903358337E+02 0.80944947123E+02 0.85804248647E+02 0.80927952460E+02
 0.10218848404E+03 0.80855447169E+02 0.56824065919E+02 0.35624150286E+02 0.20633695566E+02
 0.12503033059E+02 0.94220969549E+01 0.82636635731E+01 0.76957598243E+01 0.76964542140E+01
 0.82646307558E+01 0.94216656800E+01 0.12501804560E+02 0.20634755108E+02 0.35630139793E+02
 0.56834410212E+02 0.80866652607E+02 0.10219670703E+03 0.11483903211E+03 0.11483607580E+03
 0.13667555043E+03 0.11476887829E+03 0.85697315814E+02 0.56830020076E+02 0.33678878759E+02
 0.18742391125E+02 0.11511378520E+02 0.91250913975E+01 0.81666927909E+01 0.78492356659E+01
 0.81679343118E+01 0.91248087023E+01 0.11509650872E+02 0.18743624855E+02 0.33684989139E+02
 0.56834563996E+02 0.85690941235E+02 0.11475158441E+03 0.13666009634E+03 0.14485607223E+03
 0.16267111351E+03 0.14482481273E+03 0.11477097969E+03 0.80872465598E+02 0.50615678215E+02
 0.28511178091E+02 0.15693569762E+02 0.10364738392E+02 0.87718322394E+01 0.80855823343E+01
 0.80868574652E+01 0.87732538420E+01 0.10363316873E+02 0.15691424373E+02 0.28512538332E+02
 0.50618228970E+02 0.80866548954E+02 0.11475112045E+03 0.14480017271E+03 0.16265980296E+03
 0.14578202462E+03 0.13756488409E+03 0.11555880262E+03 0.86311927870E+02 0.57209196819E+02
 0.33817584988E+02 0.18698335494E+02 0.11372055819E+02 0.89634383170E+01 0.80083840746E+01
 0.76911014184E+01 0.80092327789E+01 0.89640756152E+01 0.11371699251E+02 0.18697426859E+02
 0.33817172625E+02 0.57209636612E+02 0.86312588289E+02 0.11555901712E+03 0.13756475160E+03
 0.13757280989E+03 0.13756410358E+03 0.12247635167E+03 0.97014197852E+02 0.68234230263E+02
 0.42605271190E+02 0.24116659617E+02 0.13716901121E+02 0.96075808789E+01 0.82834114999E+01
 0.76589015880E+01 0.76578283114E+01 0.82822032424E+01 0.96088174342E+01 0.13718991373E+02
 0.24116086163E+02 0.42603542126E+02 0.68238762674E+02 0.97029388258E+02 0.12249527908E+03
 0.11557103316E+03 0.12248077248E+03 0.11555889035E+03 0.97014954882E+02 0.72349703549E+02
 0.47861117189E+02 0.28376351933E+02 0.16088159418E+02 0.10399732088E+02 0.85380874359E+01
 0.76619865588E+01 0.73735350462E+01 0.76593763092E+01 0.85371215538E+01 0.10401902644E+02
 0.16089151246E+02 0.28372549550E+02 0.47856753682E+02 0.72353263214E+02 0.97027805777E+02
 0.86307580622E+02 0.97007014911E+02 0.97009002558E+02 0.86313388722E+02 0.68234184024E+02
 0.47860506211E+02 0.29990890195E+02 0.17583607715E+02 0.11105120149E+02 0.87352889640E+01
 0.76913788176E+01 0.71763854583E+01 0.71757498414E+01 0.76904747002E+01 0.87355919810E+01
 0.11106053582E+02 0.17582497569E+02 0.29985699354E+02 0.47852120571E+02 0.68225696710E+02
 0.57193425836E+02 0.68223794800E+02 0.72343902565E+02 0.68236929125E+02 0.57209426449E+02
 0.42604044393E+02 0.28376374988E+02 0.17584009184E+02 0.11390173768E+02 0.88547792275E+01
 0.77260927752E+01 0.70624718601E+01 0.68548463209E+01 0.70634751527E+01 0.77265323629E+01
 0.88547047986E+01 0.11391810731E+02 0.17587505237E+02 0.28376744285E+02 0.42595483829E+02
 0.33816114743E+02 0.42634695822E+02 0.47900135315E+02 0.47904625540E+02 0.42642431924E+02
 0.33816884930E+02 0.24116462413E+02 0.16089037181E+02 0.11105079588E+02 0.88545808153E+01
 0.77414856874E+01 0.70134334605E+01 0.66795470166E+01 0.66806552192E+01 0.70146105407E+01
 0.77402453729E+01 0.88536469165E+01 0.11110003368E+02 0.16099849907E+02 0.24125202342E+02
 0.18709442900E+02 0.24206678616E+02 0.28503190641E+02 0.30125358612E+02 0.28498954585E+02
 0.24197752625E+02 0.18697896145E+02 0.13717573349E+02 0.10399865240E+02 0.87347641864E+01
 0.77262139290E+01 0.70134978604E+01 0.66245495893E+01 0.65070613494E+01 0.66259466421E+01
 0.70129871495E+01 0.77223376281E+01 0.87311498227E+01 0.10401902644E+02 0.13726484161E+02
 0.11370494321E+02 0.13831588106E+02 0.16284267986E+02 0.17813399930E+02 0.17808308209E+02
 0.16273470789E+02 0.13824235908E+02 0.11372080727E+02 0.96079343072E+01 0.85374826849E+01
 0.76913503734E+01 0.70627412390E+01 0.66792772426E+01 0.65070272286E+01 0.65077007702E+01
 0.66805081714E+01 0.70622702228E+01 0.76866719628E+01 0.85286857055E+01 0.95995542071E+01
 0.89502051568E+01 0.97074578799E+01 0.10604749544E+02 0.11378364954E+02 0.11683811680E+02
 0.11374490915E+02 0.10604621557E+02 0.97163008386E+01 0.89637083851E+01 0.82831100775E+01
 0.76616812990E+01 0.71768829147E+01 0.68547264595E+01 0.66804821725E+01 0.66264040064E+01
 0.66806048987E+01 0.68571866386E+01 0.71807575087E+01 0.76612307263E+01 0.82741449452E+01
 0.80083968437E+01 0.83771862054E+01 0.87264291047E+01 0.90032829527E+01 0.91683000068E+01
 0.91695935254E+01 0.90081140943E+01 0.87348463745E+01 0.83847019089E+01 0.80086344790E+01
 0.76585763404E+01 0.73739672490E+01 0.71760469795E+01 0.70631102337E+01 0.70148993047E+01
 0.70132115136E+01 0.70616359249E+01 0.71805571904E+01 0.73840117595E+01 0.76667225438E+01
 0.77031174596E+01 0.77664277643E+01 0.78541173885E+01 0.79555476060E+01 0.80425041142E+01
 0.80789795683E+01 0.80465598868E+01 0.79593932220E+01 0.78526374251E+01 0.77579325660E+01
 0.76911062177E+01 0.76577828910E+01 0.76598268819E+01 0.76901029578E+01 0.77262139290E+01
 0.77404702911E+01 0.77218980404E+01 0.76863286645E+01 0.76619865588E+01 0.76670023710E+01
 0.80076044948E+01 0.77661425046E+01 0.75754772902E+01 0.74493674967E+01 0.73863298717E+01
 0.73669890429E+01 0.73683489079E+01 0.73870700033E+01 0.74442965938E+01 0.75655355964E+01
 0.77587546315E+01 0.80086908343E+01 0.82823304977E+01 0.85370573348E+01 0.87349782571E+01
 0.88548591175E+01 0.88539996477E+01 0.87310608765E+01 0.85292262375E+01 0.82745736229E+01
 0.89496327894E+01 0.83767815140E+01 0.78548493439E+01 0.74495653970E+01 0.71829022117E+01
 0.70423018635E+01 0.70007129513E+01 0.70426633155E+01 0.71806193819E+01 0.74450761736E+01
 0.78544269114E+01 0.83855378441E+01 0.89637733159E+01 0.96091392371E+01 0.10401654726E+02
 0.11106137470E+02 0.11392579017E+02 0.11110127816E+02 0.10401521574E+02 0.95995225817E+01
 0.11370881715E+02 0.97075810669E+01 0.87269551820E+01 0.79557919018E+01 0.73857395372E+01
 0.70422628761E+01 0.68896927087E+01 0.68891966487E+01 0.70414892121E+01 0.73866754797E+01
 0.79605248396E+01 0.87351845427E+01 0.97151267353E+01 0.11372111553E+02 0.13719312962E+02
 0.16089153403E+02 0.17582835081E+02 0.17587441279E+02 0.16098974299E+02 0.13726133522E+02
 0.18710351535E+02 0.13832022372E+02 0.10604383007E+02 0.90031062666E+01 0.80420927157E+01
 0.73670061746E+01 0.70011241933E+01 0.68890642506E+01 0.69989234649E+01 0.73670236828E+01
 0.80465598868E+01 0.90078238043E+01 0.10602767140E+02 0.13822485333E+02 0.18697896145E+02
 0.24115950176E+02 0.28372180253E+02 0.29985336882E+02 0.28376351933E+02 0.24125263559E+02
 0.33816528339E+02 0.24206566177E+02 0.16283414254E+02 0.11378027284E+02 0.91686273007E+01
 0.80791682921E+01 0.73686084685E+01 0.70423803308E+01 0.70412452149E+01 0.73672661117E+01
 0.80800787027E+01 0.91693728120E+01 0.11373434266E+02 0.16273322508E+02 0.24198243764E+02
 0.33816886163E+02 0.42602987745E+02 0.47856555192E+02 0.47852533060E+02 0.42596156244E+02
 0.57193003375E+02 0.42633843727E+02 0.28502796141E+02 0.17813630616E+02 0.11684535654E+02
 0.91696839493E+01 0.80462701186E+01 0.73869136406E+01 0.71805142951E+01 0.73871094515E+01
 0.80466815172E+01 0.91691359420E+01 0.11681488694E+02 0.17809513138E+02 0.28503131988E+02
 0.42643489806E+02 0.57209443781E+02 0.68239191692E+02 0.72353880952E+02 0.68226171966E+02
 0.86306937494E+02 0.68223195310E+02 0.47900527212E+02 0.30126224128E+02 0.17808640239E+02
 0.11374093556E+02 0.90075509980E+01 0.79596081750E+01 0.74445750204E+01 0.74451567000E+01
 0.79604954969E+01 0.90074373941E+01 0.11373374578E+02 0.17809614483E+02 0.30130914498E+02
 0.47908558034E+02 0.68231938749E+02 0.86313406013E+02 0.97029586036E+02 0.97027246526E+02
 0.11557081866E+03 0.97007665707E+02 0.72344518869E+02 0.47905154992E+02 0.28498618738E+02
 0.16272739449E+02 0.10604383007E+02 0.87353992348E+01 0.78530598576E+01 0.75650795541E+01
 0.78541173885E+01 0.87352113257E+01 0.10602895126E+02 0.16273444900E+02 0.28503190641E+02
 0.47908695589E+02 0.72339707831E+02 0.96994376735E+02 0.11555889035E+03 0.12249402813E+03
 0.13757293292E+03 0.12248225526E+03 0.97009235038E+02 0.68236234513E+02 0.42641892552E+02
 0.24197460703E+02 0.13824519192E+02 0.97168039959E+01 0.83848303397E+01 0.77573140991E+01
 0.77584214244E+01 0.83860709662E+01 0.97155067056E+01 0.13822334350E+02 0.24198064281E+02
 0.42643802530E+02 0.68231843626E+02 0.96993958418E+02 0.12246308288E+03 0.13756409411E+03
 0.11026217836E+03 0.10402188994E+03 0.87280923671E+02 0.65010557869E+02 0.42959908909E+02
 0.25561840680E+02 0.14780942636E+02 0.99315607551E+01 0.83112645530E+01 0.74857363261E+01
 0.72182400955E+01 0.74864366862E+01 0.83117849792E+01 0.99312546735E+01 0.14780183302E+02
 0.25561502601E+02 0.42960284173E+02 0.65011114029E+02 0.87281102926E+02 0.10402177774E+03
 0.10402684208E+03 0.10402123329E+03 0.92536706911E+02 0.73129962513E+02 0.51241593458E+02
 0.31982024951E+02 0.18508244738E+02 0.11373605017E+02 0.87499996026E+01 0.76828495672E+01
 0.71547546665E+01 0.71539137273E+01 0.76818921453E+01 0.87510352157E+01 0.11375623978E+02
 0.18508496499E+02 0.31981045687E+02 0.51244229938E+02 0.73139442130E+02 0.92548794676E+02
 0.87288677749E+02 0.92560472462E+02 0.87280992795E+02 0.73130597847E+02 0.54344156273E+02
 0.35862918289E+02 0.21508216367E+02 0.12890287669E+02 0.91994167223E+01 0.78709281723E+01
 0.71261912254E+01 0.68867833409E+01 0.71241152402E+01 0.78700651838E+01 0.92011410752E+01
 0.12891589060E+02 0.21506168095E+02 0.35859954625E+02 0.54345992635E+02 0.73138515419E+02
 0.65008082764E+02 0.73180678742E+02 0.73181943661E+02 0.65011783807E+02 0.51241561967E+02
 0.35862407275E+02 0.22657437077E+02 0.13870511891E+02 0.95967395518E+01 0.80167961107E+01
 0.71260608533E+01 0.67002066055E+01 0.66997368442E+01 0.71253037866E+01 0.80167319647E+01
 0.95970614365E+01 0.13869576957E+02 0.22653982491E+02 0.35856994839E+02 0.51236134334E+02
 0.42950337623E+02 0.51325482032E+02 0.54464941821E+02 0.51333635233E+02 0.42960107726E+02
 0.31980998844E+02 0.21508226942E+02 0.13870846009E+02 0.97595492751E+01 0.80959465641E+01
 0.71386309099E+01 0.65898943108E+01 0.64211868757E+01 0.65907947430E+01 0.71389909903E+01
 0.80954735080E+01 0.97598779197E+01 0.13872608222E+02 0.21508539822E+02 0.31975981347E+02
 0.25561081106E+02 0.32115630613E+02 0.36071786825E+02 0.36074628521E+02 0.32120425623E+02
 0.25561254678E+02 0.18508072676E+02 0.12891019517E+02 0.95967162996E+01 0.80957839920E+01
 0.71456378757E+01 0.65409224384E+01 0.62696471947E+01 0.62705817371E+01 0.65421120339E+01
 0.71450582157E+01 0.80950520128E+01 0.95996712060E+01 0.12898001606E+02 0.18513982334E+02
 0.14787758125E+02 0.18688522612E+02 0.21805918537E+02 0.22995216726E+02 0.21803516026E+02
 0.18683199813E+02 0.14780576762E+02 0.11374168721E+02 0.91995370412E+01 0.80163618882E+01
 0.71387204235E+01 0.65409713592E+01 0.62221446626E+01 0.61267046770E+01 0.62232183501E+01
 0.65409543140E+01 0.71366192633E+01 0.80144369248E+01 0.92011410752E+01 0.11379952094E+02
 0.99302420198E+01 0.11564599563E+02 0.13236561766E+02 0.14298774909E+02 0.14295673720E+02
 0.13230071277E+02 0.11560400917E+02 0.99315868603E+01 0.87502931973E+01 0.78704195794E+01
 0.71260260066E+01 0.65901122197E+01 0.62694317922E+01 0.61266810160E+01 0.61269811059E+01
 0.62699905786E+01 0.65897820892E+01 0.71232851757E+01 0.78650867866E+01 0.87449582219E+01
 0.83027612283E+01 0.89218143627E+01 0.95390892704E+01 0.10052431256E+02 0.10254648050E+02
 0.10049881433E+02 0.95389806511E+01 0.89275430963E+01 0.83114821213E+01 0.76825875303E+01
 0.71259359886E+01 0.67006250810E+01 0.64210974069E+01 0.62704444459E+01 0.62235935904E+01
 0.62700686899E+01 0.64221096748E+01 0.67027681089E+01 0.71255641681E+01 0.76768278052E+01
 0.74857995096E+01 0.78432415310E+01 0.81863258412E+01 0.84580652168E+01 0.86079940319E+01
 0.86086107594E+01 0.84606780350E+01 0.81912750372E+01 0.78478407063E+01 0.74859386422E+01
 0.71544908992E+01 0.68871574500E+01 0.66999879044E+01 0.65904876968E+01 0.65423447606E+01
 0.65411381199E+01 0.65892571342E+01 0.67026006936E+01 0.68934115684E+01 0.71596152440E+01
 0.72258149186E+01 0.73197823282E+01 0.74347692296E+01 0.75548798933E+01 0.76504481474E+01
 0.76883024182E+01 0.76527037149E+01 0.75569303436E+01 0.74336255268E+01 0.73144103164E+01
 0.72182501901E+01 0.71538859917E+01 0.71244870607E+01 0.71249810838E+01 0.71387204235E+01
 0.71452486496E+01 0.71362591829E+01 0.71229973196E+01 0.71261912254E+01 0.71598512756E+01
 0.74851417199E+01 0.73195401965E+01 0.71985352074E+01 0.71284851643E+01 0.71023292838E+01
 0.70999093136E+01 0.71008478208E+01 0.71029582622E+01 0.71254102179E+01 0.71923616855E+01
 0.73150371916E+01 0.74859812126E+01 0.76819929241E+01 0.78700015318E+01 0.80162202696E+01
 0.80956108810E+01 0.80953519579E+01 0.80143594522E+01 0.78655317275E+01 0.76771906210E+01
 0.83022888808E+01 0.78428960024E+01 0.74353759352E+01 0.71286548155E+01 0.69342134598E+01
 0.68359893726E+01 0.68081062035E+01 0.68367610604E+01 0.69333449101E+01 0.71260048241E+01
 0.74350263759E+01 0.78484778829E+01 0.83115302000E+01 0.87513058510E+01 0.92009378903E+01
 0.95971377947E+01 0.97605201530E+01 0.95997708165E+01 0.92008175715E+01 0.87449352625E+01
 0.99305697449E+01 0.89219131753E+01 0.81867599674E+01 0.75550926074E+01 0.71018426109E+01
 0.68359537767E+01 0.67205706687E+01 0.67204145597E+01 0.68357700501E+01 0.71025618582E+01
 0.75578890847E+01 0.81916288708E+01 0.89265520861E+01 0.99316085039E+01 0.11375895956E+02
 0.12891589033E+02 0.13869854999E+02 0.13872552146E+02 0.12897269730E+02 0.11379660367E+02
 0.14788517459E+02 0.11564963140E+02 0.95387808540E+01 0.84579226877E+01 0.76501103064E+01
 0.70999169056E+01 0.68084423927E+01 0.67203046061E+01 0.68067053544E+01 0.70995282671E+01
 0.76527037149E+01 0.84607658059E+01 0.95375317233E+01 0.11558663316E+02 0.14780576762E+02
 0.18508376129E+02 0.21505855215E+02 0.22653680865E+02 0.21508216367E+02 0.18514034025E+02
 0.25561423529E+02 0.18688430027E+02 0.13235849327E+02 0.10052148237E+02 0.86082674254E+01
 0.76884544869E+01 0.71010590038E+01 0.68365276363E+01 0.68355722219E+01 0.70997318580E+01
 0.76887518379E+01 0.86088307853E+01 0.10049464282E+02 0.13229475774E+02 0.18682880738E+02
 0.25561259022E+02 0.31980581693E+02 0.35859793161E+02 0.35857344389E+02 0.31976543460E+02
 0.42949980767E+02 0.32114917952E+02 0.21805590416E+02 0.14298964955E+02 0.10255249661E+02
 0.86086845761E+01 0.76524636255E+01 0.71028336212E+01 0.69332609899E+01 0.71029238900E+01
 0.76528014665E+01 0.86086312085E+01 0.10253743659E+02 0.14296686374E+02 0.21805869346E+02
 0.32120847118E+02 0.42960126134E+02 0.51244593231E+02 0.54346509592E+02 0.51236529118E+02
 0.65007543211E+02 0.51324981669E+02 0.36072115690E+02 0.22995939397E+02 0.14295950297E+02
 0.10049550729E+02 0.84602123983E+01 0.75571162553E+01 0.71256401574E+01 0.71260651124E+01
 0.75578622823E+01 0.84604426982E+01 0.10049416598E+02 0.14296772904E+02 0.22998967609E+02
 0.36077221684E+02 0.51330620575E+02 0.65011800414E+02 0.73139603556E+02 0.73138041511E+02
 0.87288498495E+02 0.73181228481E+02 0.54465459716E+02 0.36075071091E+02 0.21803237097E+02
 0.13229462117E+02 0.95387808540E+01 0.81917390163E+01 0.74339750860E+01 0.71919705421E+01
 0.74347692296E+01 0.81916587237E+01 0.95376403426E+01 0.13229579053E+02 0.21805918537E+02
 0.36077335389E+02 0.54462570094E+02 0.73172942337E+02 0.87280992795E+02 0.92547741310E+02
 0.10402694562E+03 0.92561720503E+02 0.73182142865E+02 0.51333052003E+02 0.32119973627E+02
 0.18682957201E+02 0.11560632412E+02 0.89279598608E+01 0.78479516777E+01 0.73138899149E+01
 0.73147589219E+01 0.78489343829E+01 0.89268700380E+01 0.11558531234E+02 0.18682730712E+02
 0.32121107784E+02 0.51330537707E+02 0.73172591802E+02 0.92549425736E+02 0.10402122463E+03
 0.74419562405E+02 0.70154311107E+02 0.58725608634E+02 0.43610849363E+02 0.28902931621E+02
 0.17745516878E+02 0.11330229886E+02 0.87112813668E+01 0.75898039098E+01 0.69298315151E+01
 0.67217951367E+01 0.69303619045E+01 0.75901905960E+01 0.87110343166E+01 0.11329644958E+02
 0.17745269321E+02 0.28903238248E+02 0.43611288564E+02 0.58725746717E+02 0.70154220424E+02
 0.70156615399E+02 0.70153800844E+02 0.62296685822E+02 0.49067427478E+02 0.34322190026E+02
 0.21714409985E+02 0.13389577411E+02 0.93881529210E+01 0.78952026880E+01 0.70317335371E+01