   2   2   0   0
  0.1084167E+02  0.2423200E-09  0.2423200E-09  0.4264000E-09  0.5000000E-15
  1.000000000000000E-004
  CAR 
 unknown system                          
     69.77656069     -5.76075102  301      6.20829047      1.00000000
     -5.761  0.0000E+00  0.0000E+00
     -5.509  0.0000E+00  0.0000E+00
     -5.257  0.0000E+00  0.0000E+00
     -5.005  0.0000E+00  0.0000E+00
     -4.754  0.0000E+00  0.0000E+00
     -4.502  0.0000E+00  0.0000E+00
     -4.250  0.0000E+00  0.0000E+00
     -3.998 -0.6824E-32 -0.1718E-32
     -3.746 -0.1634E-23 -0.4114E-24
     -3.495 -0.1572E-16 -0.3957E-17
     -3.243 -0.6152E-11 -0.1549E-11
     -2.991 -0.9718E-07 -0.2447E-07
     -2.739 -0.5722E-04 -0.1443E-04
     -2.487 -0.4348E-03 -0.1239E-03
     -2.236  0.8681E-02  0.2062E-02
     -1.984  0.6046E-01  0.1728E-01
     -1.732  0.1045E+00  0.4359E-01
     -1.480  0.6441E-01  0.5980E-01
     -1.229  0.1648E+00  0.1013E+00
     -0.977  0.1872E+00  0.1484E+00
     -0.725  0.1929E+00  0.1970E+00
     -0.473  0.8499E-01  0.2184E+00
     -0.221  0.2888E+00  0.2911E+00
      0.030  0.2834E+00  0.3625E+00
      0.282  0.3257E+00  0.4445E+00
      0.534  0.2922E+00  0.5181E+00
      0.786  0.2179E+00  0.5730E+00
      1.038  0.4877E+00  0.6958E+00
      1.289  0.6475E+00  0.8588E+00
      1.541  0.7943E+00  0.1059E+01
      1.793  0.1205E+01  0.1362E+01
      2.045  0.1979E+01  0.1860E+01
      2.297  0.2688E+01  0.2537E+01
      2.548  0.2298E+01  0.3116E+01
      2.800  0.3120E+01  0.3902E+01
      3.052  0.2426E+01  0.4513E+01
      3.304  0.3366E+01  0.5360E+01
      3.556  0.3434E+01  0.6225E+01
      3.807  0.3400E+01  0.7081E+01
      4.059  0.2558E+01  0.7725E+01
      4.311  0.2959E+01  0.8470E+01
      4.563  0.4507E+01  0.9605E+01
      4.814  0.4187E+01  0.1066E+02
      5.066  0.4297E+01  0.1174E+02
      5.318  0.4007E+01  0.1275E+02
      5.570  0.4039E+01  0.1377E+02
      5.822  0.3375E+01  0.1462E+02
      6.073  0.3731E+01  0.1556E+02
      6.325  0.3080E+01  0.1633E+02
      6.577  0.3589E+01  0.1724E+02
      6.829  0.5478E+01  0.1862E+02
      7.081  0.5347E+01  0.1996E+02
      7.332  0.4310E+01  0.2105E+02
      7.584  0.8214E+00  0.2125E+02
      7.836  0.2597E+00  0.2132E+02
      8.088  0.8162E+00  0.2152E+02
      8.340  0.8890E+00  0.2175E+02
      8.591  0.6906E+00  0.2192E+02
      8.843  0.5648E+00  0.2206E+02
      9.095  0.4664E+00  0.2218E+02
      9.347  0.4050E+00  0.2228E+02
      9.599  0.3925E+00  0.2238E+02
      9.850  0.6947E+00  0.2256E+02
     10.102  0.6717E+00  0.2273E+02
     10.354  0.4022E+00  0.2283E+02
     10.606  0.4018E+00  0.2293E+02
     10.857  0.5241E+00  0.2306E+02
     11.109  0.4905E+00  0.2318E+02
     11.361  0.2499E+00  0.2325E+02
     11.613  0.2964E+00  0.2332E+02
     11.865  0.4090E+00  0.2343E+02
     12.116  0.4383E+00  0.2354E+02
     12.368  0.2628E+00  0.2360E+02
     12.620  0.4276E+00  0.2371E+02
     12.872  0.5958E+00  0.2386E+02
     13.124  0.2406E+00  0.2392E+02
     13.375  0.2888E+00  0.2399E+02
     13.627  0.2653E+00  0.2406E+02
     13.879  0.2051E+00  0.2411E+02
     14.131  0.1325E+00  0.2414E+02
     14.383  0.1689E+00  0.2419E+02
     14.634  0.1435E+00  0.2422E+02
     14.886  0.4951E+00  0.2435E+02
     15.138  0.5062E+00  0.2448E+02
     15.390  0.9041E+00  0.2470E+02
     15.641  0.9194E+00  0.2493E+02
     15.893  0.7748E+00  0.2513E+02
     16.145  0.5871E+00  0.2528E+02
     16.397  0.6552E+00  0.2544E+02
     16.649  0.5692E+00  0.2559E+02
     16.900  0.7156E+00  0.2577E+02
     17.152  0.9895E+00  0.2601E+02
     17.404  0.6880E+00  0.2619E+02
     17.656  0.6004E+00  0.2634E+02
     17.908  0.8644E+00  0.2656E+02
     18.159  0.6129E+00  0.2671E+02
     18.411  0.7763E+00  0.2691E+02
     18.663  0.5927E+00  0.2706E+02
     18.915  0.6697E+00  0.2722E+02
     19.167  0.7291E+00  0.2741E+02
     19.418  0.5070E+00  0.2754E+02
     19.670  0.6106E+00  0.2769E+02
     19.922  0.4715E+00  0.2781E+02
     20.174  0.6166E+00  0.2796E+02
     20.426  0.5720E+00  0.2811E+02
     20.677  0.7415E+00  0.2829E+02
     20.929  0.7578E+00  0.2849E+02
     21.181  0.5826E+00  0.2863E+02
     21.433  0.6786E+00  0.2880E+02
     21.684  0.6738E+00  0.2897E+02
     21.936  0.9794E+00  0.2922E+02
     22.188  0.1245E+01  0.2953E+02
     22.440  0.6820E+00  0.2970E+02
     22.692  0.9599E+00  0.2995E+02
     22.943  0.1047E+01  0.3021E+02
     23.195  0.4373E+00  0.3032E+02
     23.447  0.9101E+00  0.3055E+02
     23.699  0.7686E+00  0.3074E+02
     23.951  0.1275E+01  0.3106E+02
     24.202  0.1132E+01  0.3135E+02
     24.454  0.9985E+00  0.3160E+02
     24.706  0.7259E+00  0.3178E+02
     24.958  0.1048E+01  0.3205E+02
     25.210  0.8722E+00  0.3227E+02
     25.461  0.1025E+01  0.3252E+02
     25.713  0.1032E+01  0.3278E+02
     25.965  0.7990E+00  0.3299E+02
     26.217  0.7804E+00  0.3318E+02
     26.469  0.8425E+00  0.3339E+02
     26.720  0.8376E+00  0.3360E+02
     26.972  0.1087E+01  0.3388E+02
     27.224  0.7168E+00  0.3406E+02
     27.476  0.6261E+00  0.3422E+02
     27.727  0.7897E+00  0.3442E+02
     27.979  0.8565E+00  0.3463E+02
     28.231  0.5847E+00  0.3478E+02
     28.483  0.5324E+00  0.3491E+02
     28.735  0.6097E+00  0.3507E+02
     28.986  0.8846E+00  0.3529E+02
     29.238  0.8464E+00  0.3550E+02
     29.490  0.7775E+00  0.3570E+02
     29.742  0.7564E+00  0.3589E+02
     29.994  0.5704E+00  0.3603E+02
     30.245  0.1192E+01  0.3633E+02
     30.497  0.1081E+01  0.3660E+02
     30.749  0.8232E+00  0.3681E+02
     31.001  0.6991E+00  0.3699E+02
     31.253  0.8047E+00  0.3719E+02
     31.504  0.6757E+00  0.3736E+02
     31.756  0.6989E+00  0.3754E+02
     32.008  0.9528E+00  0.3778E+02
     32.260  0.1272E+01  0.3810E+02
     32.511  0.7647E+00  0.3829E+02
     32.763  0.9664E+00  0.3853E+02
     33.015  0.9465E+00  0.3877E+02
     33.267  0.1097E+01  0.3905E+02
     33.519  0.1035E+01  0.3931E+02
     33.770  0.1141E+01  0.3959E+02
     34.022  0.1112E+01  0.3987E+02
     34.274  0.1229E+01  0.4018E+02
     34.526  0.7940E+00  0.4038E+02
     34.778  0.9660E+00  0.4063E+02
     35.029  0.1074E+01  0.4090E+02
     35.281  0.4886E+00  0.4102E+02
     35.533  0.7696E+00  0.4121E+02
     35.785  0.8556E+00  0.4143E+02
     36.037  0.5246E+00  0.4156E+02
     36.288  0.6371E+00  0.4172E+02
     36.540  0.9520E+00  0.4196E+02
     36.792  0.7456E+00  0.4215E+02
     37.044  0.9703E+00  0.4239E+02
     37.296  0.1159E+01  0.4269E+02
     37.547  0.1192E+01  0.4299E+02
     37.799  0.8912E+00  0.4321E+02
     38.051  0.7217E+00  0.4339E+02
     38.303  0.8543E+00  0.4361E+02
     38.554  0.8826E+00  0.4383E+02
     38.806  0.8097E+00  0.4403E+02
     39.058  0.9791E+00  0.4428E+02
     39.310  0.8799E+00  0.4450E+02
     39.562  0.1197E+01  0.4480E+02
     39.813  0.1436E+01  0.4516E+02
     40.065  0.9133E+00  0.4539E+02
     40.317  0.8807E+00  0.4562E+02
     40.569  0.1029E+01  0.4587E+02
     40.821  0.7196E+00  0.4606E+02
     41.072  0.1173E+01  0.4635E+02
     41.324  0.1373E+01  0.4670E+02
     41.576  0.1130E+01  0.4698E+02
     41.828  0.1253E+01  0.4730E+02
     42.080  0.1079E+01  0.4757E+02
     42.331  0.9965E+00  0.4782E+02
     42.583  0.1498E+01  0.4820E+02
     42.835  0.1011E+01  0.4845E+02
     43.087  0.7615E+00  0.4864E+02
     43.339  0.9745E+00  0.4889E+02
     43.590  0.9140E+00  0.4912E+02
     43.842  0.9037E+00  0.4935E+02
     44.094  0.3923E+00  0.4944E+02
     44.346  0.9389E+00  0.4968E+02
     44.597  0.9614E+00  0.4992E+02
     44.849  0.1209E+01  0.5023E+02
     45.101  0.1239E+01  0.5054E+02
     45.353  0.1183E+01  0.5084E+02
     45.605  0.9895E+00  0.5109E+02
     45.856  0.8014E+00  0.5129E+02
     46.108  0.8595E+00  0.5150E+02
     46.360  0.1485E+01  0.5188E+02
     46.612  0.1093E+01  0.5215E+02
     46.864  0.1214E+01  0.5246E+02
     47.115  0.8204E+00  0.5267E+02
     47.367  0.6834E+00  0.5284E+02
     47.619  0.9264E+00  0.5307E+02
     47.871  0.1840E+01  0.5353E+02
     48.123  0.1781E+01  0.5398E+02
     48.374  0.1169E+01  0.5428E+02
     48.626  0.1079E+01  0.5455E+02
     48.878  0.1178E+01  0.5485E+02
     49.130  0.9994E+00  0.5510E+02
     49.381  0.9010E+00  0.5532E+02
     49.633  0.9798E+00  0.5557E+02
     49.885  0.1129E+01  0.5585E+02
     50.137  0.1112E+01  0.5613E+02
     50.389  0.1058E+01  0.5640E+02
     50.640  0.1120E+01  0.5668E+02
     50.892  0.1337E+01  0.5702E+02
     51.144  0.1416E+01  0.5738E+02
     51.396  0.1021E+01  0.5763E+02
     51.648  0.1286E+01  0.5796E+02
     51.899  0.1562E+01  0.5835E+02
     52.151  0.1258E+01  0.5867E+02
     52.403  0.8957E+00  0.5889E+02
     52.655  0.1458E+01  0.5926E+02
     52.907  0.1280E+01  0.5958E+02
     53.158  0.1147E+01  0.5987E+02
     53.410  0.9958E+00  0.6012E+02
     53.662  0.1110E+01  0.6040E+02
     53.914  0.1292E+01  0.6073E+02
     54.166  0.2141E+01  0.6127E+02
     54.417  0.2044E+01  0.6178E+02
     54.669  0.1384E+01  0.6213E+02
     54.921  0.8125E+00  0.6233E+02
     55.173  0.1522E+01  0.6272E+02
     55.424  0.1346E+01  0.6306E+02
     55.676  0.1739E+01  0.6349E+02
     55.928  0.1464E+01  0.6386E+02
     56.180  0.1424E+01  0.6422E+02
     56.432  0.1397E+01  0.6457E+02
     56.683  0.1299E+01  0.6490E+02
     56.935  0.1615E+01  0.6531E+02
     57.187  0.1895E+01  0.6578E+02
     57.439  0.2049E+01  0.6630E+02
     57.691  0.1533E+01  0.6669E+02
     57.942  0.1238E+01  0.6700E+02
     58.194  0.1447E+01  0.6736E+02
     58.446  0.1195E+01  0.6766E+02
     58.698  0.1531E+01  0.6805E+02
     58.950  0.1302E+01  0.6838E+02
     59.201  0.1272E+01  0.6870E+02
     59.453  0.9392E+00  0.6893E+02
     59.705  0.1720E+01  0.6937E+02
     59.957  0.1930E+01  0.6985E+02
     60.209  0.1796E+01  0.7030E+02
     60.460  0.1462E+01  0.7067E+02
     60.712  0.1695E+01  0.7110E+02
     60.964  0.1737E+01  0.7154E+02
     61.216  0.1813E+01  0.7199E+02
     61.467  0.1521E+01  0.7238E+02
     61.719  0.1994E+01  0.7288E+02
     61.971  0.1786E+01  0.7333E+02
     62.223  0.1545E+01  0.7372E+02
     62.475  0.1536E+01  0.7410E+02
     62.726  0.1454E+01  0.7447E+02
     62.978  0.2546E+01  0.7511E+02
     63.230  0.2243E+01  0.7567E+02
     63.482  0.1835E+01  0.7614E+02
     63.734  0.1777E+01  0.7658E+02
     63.985  0.2055E+01  0.7710E+02
     64.237  0.2397E+01  0.7771E+02
     64.489  0.2138E+01  0.7824E+02
     64.741  0.1641E+01  0.7866E+02
     64.993  0.1658E+01  0.7907E+02
     65.244  0.1133E+01  0.7936E+02
     65.496  0.8174E+00  0.7957E+02
     65.748  0.1137E+01  0.7985E+02
     66.000  0.3457E+00  0.7994E+02
     66.251  0.1315E+00  0.7997E+02
     66.503  0.1122E+00  0.8000E+02
     66.755  0.1278E-02  0.8000E+02
     67.007 -0.8838E-03  0.8000E+02
     67.259 -0.1812E-05  0.8000E+02
     67.510 -0.1207E-09  0.8000E+02
     67.762 -0.3180E-15  0.8000E+02
     68.014  0.0000E+00  0.8000E+02
     68.266  0.0000E+00  0.8000E+02
     68.518  0.0000E+00  0.8000E+02
     68.769  0.0000E+00  0.8000E+02
     69.021  0.0000E+00  0.8000E+02
     69.273  0.0000E+00  0.8000E+02
     69.525  0.0000E+00  0.8000E+02
     69.777  0.0000E+00  0.8000E+02
