    2    2    1    1
  0.1084167E+02  0.2423200E-09  0.2423200E-09  0.4264000E-09  0.5000000E-15
  1.000000000000000E-004
  CAR 
 unknown system                          
     16     96     40
 
  0.0000000E+00  0.0000000E+00  0.0000000E+00  0.7513148E-03
    1       -2.327237   1.000000
    2        1.534112   1.000000
    3        4.208392   1.000000
    4        4.777911   1.000000
    5        4.778083   1.000000
    6        5.056570   1.000000
    7        5.056748   1.000000
    8        5.583324   1.000046
    9        5.914674   1.029049
   10        5.914715   1.029057
   11        6.881120  -0.000011
   12        6.881163  -0.000011
   13       12.930524   0.000000
   14       29.038024   0.000000
   15       29.072241   0.000000
   16       31.892041   0.000000
   17       33.555057   0.000000
   18       33.555117   0.000000
   19       34.413801   0.000000
   20       34.414038   0.000000
   21       35.150483   0.000000
   22       37.518212   0.000000
   23       37.518243   0.000000
   24       38.518537   0.000000
   25       40.753223   0.000000
   26       40.753235   0.000000
   27       41.125151   0.000000
   28       44.019933   0.000000
   29       44.020330   0.000000
   30       45.671213   0.000000
   31       45.671380   0.000000
   32       48.071670   0.000000
   33       55.856924   0.000000
   34       59.810428   0.000000
   35       59.811646   0.000000
   36       60.531231   0.000000
   37       60.990276   0.000000
   38       61.447349   0.000000
   39       61.457158   0.000000
   40       61.563896   0.000000
 
  0.9090909E-01 -0.2175438E-16  0.0000000E+00  0.4507889E-02
    1       -2.013158   1.000000
    2        1.766635   1.000000
    3        4.216905   1.000000
    4        4.726453   1.000000
    5        4.795647   1.000000
    6        4.953862   1.000000
    7        4.955335   1.000000
    8        5.219615   1.000000
    9        5.784312   1.005325
   10        5.815033   1.008901
   11        6.910509  -0.000004
   12        7.934389  -0.000000
   13       12.959721   0.000000
   14       27.603346   0.000000
   15       29.379336   0.000000
   16       30.061579   0.000000
   17       30.920523   0.000000
   18       33.486393   0.000000
   19       33.619181   0.000000
   20       34.991340   0.000000
   21       36.861352   0.000000
   22       37.272582   0.000000
   23       37.390379   0.000000
   24       37.941810   0.000000
   25       41.437953   0.000000
   26       41.680810   0.000000
   27       41.981537   0.000000
   28       42.445669   0.000000
   29       45.577245   0.000000
   30       47.023236   0.000000
   31       48.187672   0.000000
   32       50.135100   0.000000
   33       55.555171   0.000000
   34       57.864564   0.000000
   35       58.308900   0.000000
   36       58.751889   0.000000
   37       59.836265   0.000000
   38       61.427171   0.000000
   39       62.822788   0.000000
   40       63.473439   0.000000
 
  0.1818182E+00 -0.3158496E-16  0.0000000E+00  0.4507889E-02
    1       -1.119055   1.000000
    2        2.322407   1.000000
    3        3.829236   1.000000
    4        4.047236   1.000000
    5        4.562256   1.000000
    6        5.066901   1.000000
    7        5.442135   1.000000
    8        5.466334   1.000001
    9        5.578244   1.000039
   10        5.670321   1.000476
   11        6.961388  -0.000001
   12        9.651010  -0.000000
   13       13.074052   0.000000
   14       23.741867   0.000000
   15       28.217020   0.000000
   16       28.840444   0.000000
   17       29.293505   0.000000
   18       30.380361   0.000000
   19       33.625811   0.000000
   20       34.783494   0.000000
   21       35.082739   0.000000
   22       35.907498   0.000000
   23       38.096001   0.000000
   24       38.862704   0.000000
   25       41.523792   0.000000
   26       42.980026   0.000000
   27       44.602097   0.000000
   28       46.675607   0.000000
   29       47.946016   0.000000
   30       50.893978   0.000000
   31       51.101021   0.000000
   32       53.611420   0.000000
   33       54.343417   0.000000
   34       54.646802   0.000000
   35       56.563186   0.000000
   36       58.250904   0.000000
   37       59.205570   0.000000
   38       61.250987   0.000000
   39       64.140226   0.000000
   40       64.288537   0.000000
 
  0.2727273E+00 -0.5333934E-16  0.0000000E+00  0.4507889E-02
    1        0.173345   1.000000
    2        2.631772   1.000000
    3        3.093440   1.000000
    4        3.988216   1.000000
    5        4.390385   1.000000
    6        5.061595   1.000000
    7        5.307300   1.000000
    8        5.734249   1.002027
    9        6.134557   0.789729
   10        6.299558   0.154816
   11        6.988052  -0.000000
   12       11.609097  -0.000000
   13       13.335294   0.000000
   14       19.820045   0.000000
   15       25.707129   0.000000
   16       25.917065   0.000000
   17       27.092542   0.000000
   18       30.348951   0.000000
   19       31.667525   0.000000
   20       34.868096   0.000000
   21       35.191823   0.000000
   22       35.580982   0.000000
   23       35.718714   0.000000
   24       39.422173   0.000000
   25       45.135168   0.000000
   26       46.728928   0.000000
   27       47.982309   0.000000
   28       49.012343   0.000000
   29       49.936803   0.000000
   30       51.168424   0.000000
   31       52.574052   0.000000
   32       53.531764   0.000000
   33       56.329457   0.000000
   34       56.406728   0.000000
   35       57.172663   0.000000
   36       58.399522   0.000000
   37       60.902729   0.000000
   38       60.941886   0.000000
   39       63.628415   0.000000
   40       64.713310   0.000000
 
  0.3636364E+00 -0.7509372E-16  0.0000000E+00  0.4507889E-02
    1        1.398235   1.000000
    2        2.413212   1.000000
    3        2.614126   1.000000
    4        4.122027   1.000000
    5        4.700535   1.000000
    6        4.738753   1.000000
    7        5.081896   1.000000
    8        6.828505  -0.000052
    9        6.835274  -0.000043
   10        6.929419  -0.000002
   11        6.991234  -0.000000
   12       13.345146   0.000000
   13       13.726728   0.000000
   14       16.943764   0.000000
   15       22.470352   0.000000
   16       24.168670   0.000000
   17       24.190560   0.000000
   18       29.515912   0.000000
   19       30.668820   0.000000
   20       33.790412   0.000000
   21       34.735258   0.000000
   22       36.330475   0.000000
   23       36.817352   0.000000
   24       39.747685   0.000000
   25       46.610266   0.000000
   26       47.845514   0.000000
   27       48.676355   0.000000
   28       51.712835   0.000000
   29       51.938828   0.000000
   30       52.535098   0.000000
   31       54.704525   0.000000
   32       55.555374   0.000000
   33       55.879016   0.000000
   34       58.038202   0.000000
   35       59.912764   0.000000
   36       60.616734   0.000000
   37       61.608262   0.000000
   38       62.500099   0.000000
   39       64.419017   0.000000
   40       64.821674   0.000000
 
  0.4545455E+00 -0.2941315E-16  0.0000000E+00  0.4507889E-02
    1        1.967271   1.000000
    2        2.170365   1.000000
    3        2.381671   1.000000
    4        4.490529   1.000000
    5        4.599113   1.000000
    6        4.955768   1.000000
    7        4.956099   1.000000
    8        6.987445  -0.000000
    9        7.252990  -0.000000
   10        7.354862  -0.000000
   11        8.380568  -0.000000
   12       11.603698  -0.000000
   13       15.760762   0.000000
   14       16.926926   0.000000
   15       19.909586   0.000000
   16       21.513839   0.000000
   17       23.198919   0.000000
   18       28.926394   0.000000
   19       30.354447   0.000000
   20       32.729541   0.000000
   21       34.525297   0.000000
   22       37.137657   0.000000
   23       39.171170   0.000000
   24       39.578967   0.000000
   25       43.285802   0.000000
   26       48.016031   0.000000
   27       50.106799   0.000000
   28       54.249490   0.000000
   29       54.336302   0.000000
   30       54.979535   0.000000
   31       55.914519   0.000000
   32       57.782054   0.000000
   33       58.436535   0.000000
   34       59.419971   0.000000
   35       59.995385   0.000000
   36       60.062292   0.000000
   37       63.180720   0.000000
   38       63.325200   0.000000
   39       63.733360   0.000000
   40       64.289062   0.000000
 
  0.9090909E-01  0.9090909E-01  0.0000000E+00  0.4507889E-02
    1       -1.406948   1.000000
    2        2.176478   1.000000
    3        4.080435   1.000000
    4        4.084609   1.000000
    5        4.759046   1.000000
    6        4.790219   1.000000
    7        5.310664   1.000000
    8        5.437327   1.000000
    9        5.568391   1.000029
   10        5.782535   1.005159
   11        6.922530  -0.000003
   12        9.171087  -0.000000
   13       13.035590   0.000000
   14       25.532419   0.000000
   15       26.591023   0.000000
   16       29.870880   0.000000
   17       30.966861   0.000000
   18       32.139262   0.000000
   19       32.451310   0.000000
   20       33.659348   0.000000
   21       34.628948   0.000000
   22       38.615348   0.000000
   23       39.336736   0.000000
   24       39.574821   0.000000
   25       40.929150   0.000000
   26       40.938730   0.000000
   27       41.168673   0.000000
   28       47.324478   0.000000
   29       48.914487   0.000000
   30       49.062787   0.000000
   31       49.066653   0.000000
   32       53.187555   0.000000
   33       54.897157   0.000000
   34       55.513957   0.000000
   35       56.450306   0.000000
   36       58.104194   0.000000
   37       59.119961   0.000000
   38       62.022267   0.000000
   39       64.042986   0.000000
   40       64.064346   0.000000
 
  0.1818182E+00  0.9090909E-01  0.0000000E+00  0.9015778E-02
    1       -0.293588   1.000000
    2        2.716431   1.000000
    3        3.358294   1.000000
    4        3.802678   1.000000
    5        4.486353   1.000000
    6        5.047910   1.000000
    7        5.178796   1.000000
    8        5.556256   1.000020
    9        5.947903   1.034633
   10        6.215108   0.471172
   11        6.921779  -0.000003
   12       10.917514  -0.000000
   13       13.261926   0.000000
   14       21.835011   0.000000
   15       24.332424   0.000000
   16       27.536154   0.000000
   17       29.670679   0.000000
   18       29.770343   0.000000
   19       32.732486   0.000000
   20       33.003588   0.000000
   21       33.844332   0.000000
   22       37.996687   0.000000
   23       38.676665   0.000000
   24       39.344222   0.000000
   25       42.527058   0.000000
   26       43.645543   0.000000
   27       45.457914   0.000000
   28       49.078539   0.000000
   29       51.519698   0.000000
   30       51.761133   0.000000
   31       51.958521   0.000000
   32       54.010278   0.000000
   33       55.093186   0.000000
   34       55.406992   0.000000
   35       56.405288   0.000000
   36       56.753980   0.000000
   37       60.087725   0.000000
   38       62.273997   0.000000
   39       64.244677   0.000000
   40       64.607201   0.000000
 
  0.2727273E+00  0.9090909E-01  0.0000000E+00  0.9015778E-02
    1        1.041594   1.000000
    2        2.709120   1.000000
    3        2.827789   1.000000
    4        3.849479   1.000000
    5        4.533447   1.000000
    6        4.724267   1.000000
    7        5.229140   1.000000
    8        5.869349   1.018779
    9        6.643544  -0.004342
   10        6.913253  -0.000004
   11        7.056488  -0.000000
   12       12.930336   0.000000
   13       13.650496   0.000000
   14       18.204487   0.000000
   15       22.696909   0.000000
   16       24.176590   0.000000
   17       26.410263   0.000000
   18       28.530553   0.000000
   19       31.836983   0.000000
   20       33.013798   0.000000
   21       34.521625   0.000000
   22       37.709286   0.000000
   23       38.100705   0.000000
   24       40.736580   0.000000
   25       44.355086   0.000000
   26       47.242030   0.000000
   27       48.445505   0.000000
   28       48.723505   0.000000
   29       50.331338   0.000000
   30       52.598035   0.000000
   31       54.074562   0.000000
   32       55.213405   0.000000
   33       56.265502   0.000000
   34       57.234941   0.000000
   35       59.070581   0.000000
   36       61.226389   0.000000
   37       61.643047   0.000000
   38       62.118736   0.000000
   39       62.933458   0.000000
   40       64.944321   0.000000
 
  0.3636364E+00  0.9090909E-01  0.0000000E+00  0.9015778E-02
    1        1.966512   1.000000
    2        2.424240   1.000000
    3        2.517594   1.000000
    4        4.187624   1.000000
    5        4.523220   1.000000
    6        4.869668   1.000000
    7        4.945439   1.000000
    8        6.698842  -0.001426
    9        6.898764  -0.000006
   10        7.123001  -0.000000
   11        8.149348  -0.000000
   12       12.954708   0.000000
   13       15.077986   0.000000
   14       16.714611   0.000000
   15       21.223728   0.000000
   16       21.427468   0.000000
   17       23.243654   0.000000
   18       27.693272   0.000000
   19       30.900643   0.000000
   20       32.515858   0.000000
   21       35.747841   0.000000
   22       38.180490   0.000000
   23       38.947145   0.000000
   24       40.365193   0.000000
   25       45.221061   0.000000
   26       47.059427   0.000000
   27       48.708718   0.000000
   28       50.746215   0.000000
   29       51.833161   0.000000
   30       54.342861   0.000000
   31       55.256315   0.000000
   32       57.122537   0.000000
   33       58.357509   0.000000
   34       59.908945   0.000000
   35       60.561336   0.000000
   36       61.365030   0.000000
   37       62.087903   0.000000
   38       62.992008   0.000000
   39       64.049178   0.000000
   40       64.528926   0.000000
 
  0.4545455E+00  0.9090909E-01  0.0000000E+00  0.4507889E-02
    1        2.211524   1.000000
    2        2.277598   1.000000
    3        2.417239   1.000000
    4        4.460423   1.000000
    5        4.532371   1.000000
    6        4.831571   1.000000
    7        4.972013   1.000000
    8        6.892382  -0.000007
    9        7.172169  -0.000000
   10        7.192677  -0.000000
   11        9.313383  -0.000000
   12       11.299473  -0.000000
   13       16.556485   0.000000
   14       17.380407   0.000000
   15       19.492984   0.000000
   16       20.535058   0.000000
   17       21.898081   0.000000
   18       27.399894   0.000000
   19       30.524888   0.000000
   20       32.360960   0.000000
   21       35.965804   0.000000
   22       39.140204   0.000000
   23       39.244996   0.000000
   24       40.704469   0.000000
   25       42.900865   0.000000
   26       48.323871   0.000000
   27       48.763856   0.000000
   28       51.516179   0.000000
   29       53.980357   0.000000
   30       54.426148   0.000000
   31       57.524856   0.000000
   32       57.938313   0.000000
   33       58.733571   0.000000
   34       58.890806   0.000000
   35       59.451897   0.000000
   36       61.617140   0.000000
   37       63.924040   0.000000
   38       64.069219   0.000000
   39       64.469860   0.000000
   40       65.668942   0.000000
 
  0.1818182E+00  0.1818182E+00  0.0000000E+00  0.4507889E-02
    1        0.923144   1.000000
    2        2.954682   1.000000
    3        3.147111   1.000000
    4        3.397719   1.000000
    5        4.529169   1.000000
    6        4.651363   1.000000
    7        5.352804   1.000000
    8        5.401764   1.000000
    9        6.620051  -0.006581
   10        6.825630  -0.000057
   11        7.116146  -0.000000
   12       12.675022   0.000000
   13       13.759849   0.000000
   14       19.951710   0.000000
   15       20.582075   0.000000
   16       25.790814   0.000000
   17       26.879022   0.000000
   18       28.649567   0.000000
   19       29.279108   0.000000
   20       34.130053   0.000000
   21       35.683138   0.000000
   22       39.055245   0.000000
   23       39.247299   0.000000
   24       41.937007   0.000000
   25       42.653895   0.000000
   26       44.524501   0.000000
   27       45.687435   0.000000
   28       50.184821   0.000000
   29       51.072471   0.000000
   30       52.404089   0.000000
   31       52.431048   0.000000
   32       55.816935   0.000000
   33       56.166133   0.000000
   34       58.631476   0.000000
   35       58.967261   0.000000
   36       59.769299   0.000000
   37       60.057571   0.000000
   38       63.402361   0.000000
   39       63.582644   0.000000
   40       65.460784   0.000000
 
  0.2727273E+00  0.1818182E+00  0.0000000E+00  0.9015778E-02
    1        2.126948   1.000000
    2        2.704376   1.000000
    3        2.921466   1.000000
    4        3.551503   1.000000
    5        4.421064   1.000000
    6        4.781096   1.000000
    7        4.997657   1.000000
    8        5.913972   1.028898
    9        6.744843  -0.000492
   10        7.066045  -0.000000
   11        8.278109  -0.000000
   12       14.346782   0.000000
   13       14.743787   0.000000
   14       17.084735   0.000000
   15       19.070314   0.000000
   16       23.099752   0.000000
   17       25.234375   0.000000
   18       25.421937   0.000000
   19       27.978796   0.000000
   20       36.143298   0.000000
   21       36.219391   0.000000
   22       39.109677   0.000000
   23       41.476073   0.000000
   24       42.455956   0.000000
   25       43.651065   0.000000
   26       45.708448   0.000000
   27       46.836354   0.000000
   28       47.975494   0.000000
   29       51.221997   0.000000
   30       51.723644   0.000000
   31       54.199390   0.000000
   32       57.300824   0.000000
   33       58.594454   0.000000
   34       59.731682   0.000000
   35       61.853223   0.000000
   36       62.043357   0.000000
   37       62.712904   0.000000
   38       63.611850   0.000000
   39       64.440336   0.000000
   40       66.038096   0.000000
 
  0.3636364E+00  0.1818182E+00  0.0000000E+00  0.9015778E-02
    1        2.595748   1.000000
    2        2.621931   1.000000
    3        2.704783   1.000000
    4        3.975474   1.000000
    5        4.402109   1.000000
    6        4.653067   1.000000
    7        5.027796   1.000000
    8        6.548046  -0.018601
    9        6.696667  -0.001495
   10        7.072774  -0.000000
   11        9.786277  -0.000000
   12       12.655898   0.000000
   13       16.881979   0.000000
   14       17.382941   0.000000
   15       18.276130   0.000000
   16       20.464576   0.000000
   17       22.355006   0.000000
   18       24.872085   0.000000
   19       27.348310   0.000000
   20       36.057760   0.000000
   21       38.152658   0.000000
   22       39.597743   0.000000
   23       41.152117   0.000000
   24       41.957787   0.000000
   25       45.244800   0.000000
   26       46.030092   0.000000
   27       47.851209   0.000000
   28       48.166315   0.000000
   29       51.503147   0.000000
   30       53.082199   0.000000
   31       53.657368   0.000000
   32       57.337318   0.000000
   33       57.695513   0.000000
   34       59.255646   0.000000
   35       62.602308   0.000000
   36       63.714329   0.000000
   37       64.362634   0.000000
   38       64.611889   0.000000
   39       64.853448   0.000000
   40       65.411442   0.000000
 
  0.2727273E+00  0.2727273E+00  0.0000000E+00  0.4507889E-02
    1        2.718540   1.000000
    2        2.935100   1.000000
    3        3.243696   1.000000
    4        3.298104   1.000000
    5        4.278463   1.000000
    6        4.644616   1.000000
    7        5.064297   1.000000
    8        6.154208   0.719828
    9        6.594887  -0.009867
   10        7.042721  -0.000000
   11        9.897630  -0.000000
   12       14.689113   0.000000
   13       15.257243   0.000000
   14       16.904045   0.000000
   15       17.976479   0.000000
   16       22.359927   0.000000
   17       22.521136   0.000000
   18       24.037049   0.000000
   19       24.873812   0.000000
   20       37.883517   0.000000
   21       38.659657   0.000000
   22       41.762009   0.000000
   23       42.620606   0.000000
   24       43.596816   0.000000
   25       43.632637   0.000000
   26       44.290211   0.000000
   27       46.384639   0.000000
   28       48.773428   0.000000
   29       49.028463   0.000000
   30       52.908122   0.000000
   31       53.139086   0.000000
   32       55.410905   0.000000
   33       57.514180   0.000000
   34       59.487952   0.000000
   35       62.976250   0.000000
   36       64.126095   0.000000
   37       64.255271   0.000000
   38       65.508995   0.000000
   39       65.623640   0.000000
   40       65.779140   0.000000
 
  0.3636364E+00  0.2727273E+00  0.0000000E+00  0.4507889E-02
    1        2.754362   1.000000
    2        3.113186   1.000000
    3        3.123719   1.000000
    4        3.588567   1.000000
    5        4.339496   1.000000
    6        4.374275   1.000000
    7        5.198497   1.000000
    8        6.490033  -0.031449
    9        6.540980  -0.020166
   10        6.763159  -0.000312
   11       11.618926  -0.000000
   12       12.758601   0.000000
   13       14.879738   0.000000
   14       18.792506   0.000000
   15       18.965228   0.000000
   16       20.262411   0.000000
   17       22.273482   0.000000
   18       22.387664   0.000000
   19       24.288474   0.000000
   20       38.320860   0.000000
   21       40.951313   0.000000
   22       41.915446   0.000000
   23       41.978156   0.000000
   24       42.911321   0.000000
   25       44.566318   0.000000
   26       45.043686   0.000000
   27       47.999903   0.000000
   28       48.126008   0.000000
   29       48.493929   0.000000
   30       51.999798   0.000000
   31       53.418283   0.000000
   32       53.773992   0.000000
   33       57.217799   0.000000
   34       57.914498   0.000000
   35       64.106672   0.000000
   36       64.623996   0.000000
   37       65.678659   0.000000
   38       65.685978   0.000000
   39       65.819438   0.000000
   40       66.013999   0.000000
 
  0.0000000E+00  0.0000000E+00  0.9090909E-01  0.1502630E-02
    1       -2.251554   1.000000
    2        1.495799   1.000000
    3        4.189031   1.000000
    4        4.770019   1.000000
    5        4.770190   1.000000
    6        5.041282   1.000000
    7        5.041459   1.000000
    8        5.371934   1.000000
    9        5.948729   1.034714
   10        5.948771   1.034718
   11        6.872596  -0.000014
   12        6.872640  -0.000014
   13       13.306629   0.000000
   14       28.220420   0.000000
   15       29.248384   0.000000
   16       31.736259   0.000000
   17       33.611177   0.000000
   18       33.611231   0.000000
   19       34.430496   0.000000
   20       34.430725   0.000000
   21       35.719225   0.000000
   22       37.410963   0.000000
   23       37.410981   0.000000
   24       38.747088   0.000000
   25       40.381647   0.000000
   26       40.381663   0.000000
   27       41.341771   0.000000
   28       44.288207   0.000000
   29       44.288583   0.000000
   30       46.132215   0.000000
   31       46.132362   0.000000
   32       47.990063   0.000000
   33       55.362118   0.000000
   34       59.359363   0.000000
   35       59.359677   0.000000
   36       59.445949   0.000000
   37       59.447031   0.000000
   38       60.393598   0.000000
   39       61.543985   0.000000
   40       61.856395   0.000000
 
  0.9090909E-01 -0.2175438E-16  0.9090909E-01  0.9015778E-02
    1       -1.938998   1.000000
    2        1.732515   1.000000
    3        4.207637   1.000000
    4        4.642770   1.000000
    5        4.698567   1.000000
    6        4.943094   1.000000
    7        4.990685   1.000000
    8        5.202666   1.000000
    9        5.825091   1.010387
   10        5.855776   1.015911
   11        6.900728  -0.000006
   12        7.780365  -0.000000
   13       13.371737   0.000000
   14       27.595617   0.000000
   15       28.692927   0.000000
   16       30.078614   0.000000
   17       30.990085   0.000000
   18       32.834552   0.000000
   19       34.136191   0.000000
   20       35.442665   0.000000
   21       36.515833   0.000000
   22       37.370300   0.000000
   23       37.460525   0.000000
   24       38.200469   0.000000
   25       41.430185   0.000000
   26       41.508687   0.000000
   27       42.330345   0.000000
   28       42.771088   0.000000
   29       45.378297   0.000000
   30       47.334567   0.000000
   31       48.522963   0.000000
   32       50.145846   0.000000
   33       54.417542   0.000000
   34       57.507646   0.000000
   35       58.030931   0.000000
   36       58.895017   0.000000
   37       60.025261   0.000000
   38       60.998878   0.000000
   39       61.997268   0.000000
   40       62.758769   0.000000
 
  0.1818182E+00 -0.3158496E-16  0.9090909E-01  0.9015778E-02
    1       -1.051079   1.000000
    2        2.301992   1.000000
    3        3.754848   1.000000
    4        4.062733   1.000000
    5        4.535878   1.000000
    6        4.997610   1.000000
    7        5.392686   1.000000
    8        5.567680   1.000029
    9        5.602593   1.000080
   10        5.711003   1.001230
   11        6.943174  -0.000001
   12        9.299417  -0.000000
   13       13.614507   0.000000
   14       23.807660   0.000000
   15       28.301095   0.000000
   16       28.308386   0.000000
   17       29.599843   0.000000
   18       29.722619   0.000000
   19       33.428399   0.000000
   20       34.948534   0.000000
   21       35.352080   0.000000
   22       35.649585   0.000000
   23       38.574646   0.000000
   24       39.455399   0.000000
   25       41.754418   0.000000
   26       42.950393   0.000000
   27       44.379359   0.000000
   28       46.676567   0.000000
   29       47.886799   0.000000
   30       50.847665   0.000000
   31       51.411503   0.000000
   32       52.516522   0.000000
   33       53.600344   0.000000
   34       55.818356   0.000000
   35       56.239530   0.000000
   36       57.975126   0.000000
   37       59.675615   0.000000
   38       61.556014   0.000000
   39       62.760149   0.000000
   40       64.342337   0.000000
 
  0.2727273E+00 -0.5333934E-16  0.9090909E-01  0.9015778E-02
    1        0.223691   1.000000
    2        2.623067   1.000000
    3        3.071431   1.000000
    4        3.997535   1.000000
    5        4.351219   1.000000
    6        5.070812   1.000000
    7        5.326192   1.000000
    8        5.773420   1.004373
    9        6.143569   0.758608
   10        6.286691   0.194830
   11        6.968086  -0.000001
   12       10.905266  -0.000000
   13       14.170895   0.000000
   14       19.882906   0.000000
   15       25.216745   0.000000
   16       26.018630   0.000000
   17       27.489972   0.000000
   18       30.043826   0.000000
   19       31.655780   0.000000
   20       33.931200   0.000000
   21       34.057841   0.000000
   22       36.558119   0.000000
   23       36.889985   0.000000
   24       40.107538   0.000000
   25       45.235287   0.000000
   26       46.433010   0.000000
   27       47.589022   0.000000
   28       47.633349   0.000000
   29       51.003925   0.000000
   30       51.313829   0.000000
   31       52.840513   0.000000
   32       54.046728   0.000000
   33       55.222981   0.000000
   34       55.927991   0.000000
   35       57.541384   0.000000
   36       58.643511   0.000000
   37       61.196711   0.000000
   38       61.507005   0.000000
   39       62.981787   0.000000
   40       65.138105   0.000000
 
  0.3636364E+00 -0.7509372E-16  0.9090909E-01  0.9015778E-02
    1        1.399930   1.000000
    2        2.382653   1.000000
    3        2.683485   1.000000
    4        3.952282   1.000000
    5        4.743967   1.000000
    6        4.924382   1.000000
    7        5.112742   1.000000
    8        6.803496  -0.000107
    9        6.828841  -0.000052
   10        6.859554  -0.000021
   11        7.020635  -0.000000
   12       12.212684   0.000000
   13       14.870244   0.000000
   14       17.061068   0.000000
   15       22.019026   0.000000
   16       24.281799   0.000000
   17       24.699927   0.000000
   18       29.450188   0.000000
   19       30.662981   0.000000
   20       32.761520   0.000000
   21       34.886901   0.000000
   22       35.814551   0.000000
   23       37.700719   0.000000
   24       40.525489   0.000000
   25       45.210570   0.000000
   26       48.556288   0.000000
   27       49.259860   0.000000
   28       50.933660   0.000000
   29       51.552932   0.000000
   30       53.503812   0.000000
   31       54.139514   0.000000
   32       55.612360   0.000000
   33       56.326091   0.000000
   34       57.712107   0.000000
   35       60.094448   0.000000
   36       61.252468   0.000000
   37       61.636824   0.000000
   38       62.180032   0.000000
   39       64.604070   0.000000
   40       64.800795   0.000000
 
  0.4545455E+00 -0.2941315E-16  0.9090909E-01  0.9015778E-02
    1        1.890490   1.000000
    2        2.117558   1.000000
    3        2.564333   1.000000
    4        4.014045   1.000000
    5        4.919139   1.000000
    6        4.990344   1.000000
    7        5.197831   1.000000
    8        6.933793  -0.000002
    9        7.257437  -0.000000
   10        7.355767  -0.000000
   11        8.301433  -0.000000
   12       11.437148  -0.000000
   13       15.556359   0.000000
   14       17.035182   0.000000
   15       19.940676   0.000000
   16       21.960383   0.000000
   17       23.318469   0.000000
   18       28.907365   0.000000
   19       30.346219   0.000000
   20       31.919653   0.000000
   21       35.383901   0.000000