       N       E                     dE             d eps       ncg     rms          rms(c)
DAV:   1     0.607795600897E+02    0.60780E+02   -0.27161E+03  9104   0.315E+02
DAV:   2    -0.146989178919E+02   -0.75478E+02   -0.64343E+02  7984   0.948E+01
DAV:   3    -0.192421363960E+02   -0.45432E+01   -0.42997E+01  9440   0.243E+01
DAV:   4    -0.192656684698E+02   -0.23532E-01   -0.23515E-01  9128   0.183E+00
DAV:   5    -0.192657092639E+02   -0.40794E-04   -0.40794E-04  9160   0.712E-02    0.161E+01
DAV:   6    -0.163649038643E+02    0.29008E+01   -0.20921E+00 11104   0.264E+01    0.339E+00
DAV:   7    -0.160894142902E+02    0.27549E+00   -0.17620E-01 10128   0.663E+00    0.991E-01
DAV:   8    -0.160648737872E+02    0.24541E-01   -0.46522E-03 10216   0.452E-01    0.463E-01
DAV:   9    -0.160540193054E+02    0.10854E-01   -0.91051E-04 11376   0.176E-01    0.637E-02
DAV:  10    -0.160540465531E+02   -0.27248E-04   -0.40850E-05  9088   0.246E-02    0.281E-02
DAV:  11    -0.160540418364E+02    0.47166E-05   -0.48235E-07  9184   0.580E-03    0.171E-03
DAV:  12    -0.160540415520E+02    0.28449E-06   -0.42661E-08  5888   0.112E-03
   1 F= -.16054042E+02 E0= -.16055216E+02  d E =0.352307E-02
