<?xml version="1.0" encoding="ISO-8859-1"?>
<modeling>
 <generator>
  <i name="program" type="string">vasp </i>
  <i name="version" type="string">6.2.0  </i>
  <i name="subversion" type="string">18Jan21 (build Mar 17 2021 09:06:54) complex                          serial </i>
  <i name="platform" type="string">LinuxIFC </i>
  <i name="date" type="string">2021 09 09 </i>
  <i name="time" type="string">12:10:33 </i>
 </generator>
 <incar>
  <i type="string" name="PREC">normal</i>
  <i type="int" name="ICHARG">     1</i>
  <i type="int" name="IBRION">     1</i>
  <i name="EDIFF">      0.00000100</i>
  <i type="int" name="NSW">     0</i>
  <i type="int" name="ISIF">     2</i>
  <i name="ENCUT">    280.00000000</i>
  <i type="int" name="NBANDS">    40</i>
  <i type="int" name="ISMEAR">     1</i>
  <i name="SIGMA">      0.20000000</i>
  <i type="logical" name="LCHARG"> T  </i>
  <i type="int" name="KPAR">     1</i>
  <i type="int" name="NCORE">     1</i>
  <i type="string" name="GGA">PE</i>
 </incar>
 <primitive_cell>
  <structure name="primitive_cell" >
   <crystal>
    <varray name="basis" >
     <v>       2.42320000       0.00000000       0.00000000 </v>
     <v>      -1.21160000       2.09855276       0.00000000 </v>
     <v>       0.00000000       0.00000000       4.26400000 </v>
    </varray>
    <i name="volume">     21.68334842 </i>
    <varray name="rec_basis" >
     <v>       0.41267745       0.23825944       0.00000000 </v>
     <v>       0.00000000       0.47651888       0.00000000 </v>
     <v>       0.00000000       0.00000000       0.23452158 </v>
    </varray>
   </crystal>
   <varray name="positions" >
    <v>       0.00000000       0.00000000       0.00000000 </v>
    <v>       0.33333333       0.66666667       0.50000000 </v>
   </varray>
  </structure>
  <varray name="primitive_index" >
   <v type="int" >        1 </v>
   <v type="int" >        2 </v>
  </varray>
 </primitive_cell>
 <kpoints>
  <generation param="Monkhorst-Pack">
   <v type="int" name="divisions">      11       11       11 </v>
   <v name="usershift">      0.00000000       0.00000000       0.00000000 </v>
   <v name="genvec1">      0.09090909      -0.00000000       0.00000000 </v>
   <v name="genvec2">      0.00000000       0.09090909       0.00000000 </v>
   <v name="genvec3">      0.00000000       0.00000000       0.09090909 </v>
   <v name="shift">      0.00000000       0.00000000       0.00000000 </v>
  </generation>
  <varray name="kpointlist" >
   <v>       0.00000000       0.00000000       0.00000000 </v>
   <v>       0.09090909      -0.00000000       0.00000000 </v>
   <v>       0.18181818      -0.00000000       0.00000000 </v>
   <v>       0.27272727      -0.00000000       0.00000000 </v>
   <v>       0.36363636      -0.00000000       0.00000000 </v>
   <v>       0.45454545      -0.00000000       0.00000000 </v>
   <v>       0.09090909       0.09090909       0.00000000 </v>
   <v>       0.18181818       0.09090909       0.00000000 </v>
   <v>       0.27272727       0.09090909       0.00000000 </v>
   <v>       0.36363636       0.09090909       0.00000000 </v>
   <v>       0.45454545       0.09090909       0.00000000 </v>
   <v>       0.18181818       0.18181818       0.00000000 </v>
   <v>       0.27272727       0.18181818       0.00000000 </v>
   <v>       0.36363636       0.18181818       0.00000000 </v>
   <v>       0.27272727       0.27272727       0.00000000 </v>
   <v>       0.36363636       0.27272727       0.00000000 </v>
   <v>       0.00000000       0.00000000       0.09090909 </v>
   <v>       0.09090909      -0.00000000       0.09090909 </v>
   <v>       0.18181818      -0.00000000       0.09090909 </v>
   <v>       0.27272727      -0.00000000       0.09090909 </v>
   <v>       0.36363636      -0.00000000       0.09090909 </v>
   <v>       0.45454545      -0.00000000       0.09090909 </v>
   <v>       0.09090909       0.09090909       0.09090909 </v>
   <v>       0.18181818       0.09090909       0.09090909 </v>
   <v>       0.27272727       0.09090909       0.09090909 </v>
   <v>       0.36363636       0.09090909       0.09090909 </v>
   <v>       0.45454545       0.09090909       0.09090909 </v>
   <v>       0.18181818       0.18181818       0.09090909 </v>
   <v>       0.27272727       0.18181818       0.09090909 </v>
   <v>       0.36363636       0.18181818       0.09090909 </v>
   <v>       0.27272727       0.27272727       0.09090909 </v>
   <v>       0.36363636       0.27272727       0.09090909 </v>
   <v>       0.00000000       0.00000000       0.18181818 </v>
   <v>       0.09090909      -0.00000000       0.18181818 </v>
   <v>       0.18181818      -0.00000000       0.18181818 </v>
   <v>       0.27272727      -0.00000000       0.18181818 </v>
   <v>       0.36363636      -0.00000000       0.18181818 </v>
   <v>       0.45454545      -0.00000000       0.18181818 </v>
   <v>       0.09090909       0.09090909       0.18181818 </v>
   <v>       0.18181818       0.09090909       0.18181818 </v>
   <v>       0.27272727       0.09090909       0.18181818 </v>
   <v>       0.36363636       0.09090909       0.18181818 </v>
   <v>       0.45454545       0.09090909       0.18181818 </v>
   <v>       0.18181818       0.18181818       0.18181818 </v>
   <v>       0.27272727       0.18181818       0.18181818 </v>
   <v>       0.36363636       0.18181818       0.18181818 </v>
   <v>       0.27272727       0.27272727       0.18181818 </v>
   <v>       0.36363636       0.27272727       0.18181818 </v>
   <v>       0.00000000       0.00000000       0.27272727 </v>
   <v>       0.09090909      -0.00000000       0.27272727 </v>
   <v>       0.18181818      -0.00000000       0.27272727 </v>
   <v>       0.27272727      -0.00000000       0.27272727 </v>
   <v>       0.36363636      -0.00000000       0.27272727 </v>
   <v>       0.45454545      -0.00000000       0.27272727 </v>
   <v>       0.09090909       0.09090909       0.27272727 </v>
   <v>       0.18181818       0.09090909       0.27272727 </v>
   <v>       0.27272727       0.09090909       0.27272727 </v>
   <v>       0.36363636       0.09090909       0.27272727 </v>
   <v>       0.45454545       0.09090909       0.27272727 </v>
   <v>       0.18181818       0.18181818       0.27272727 </v>
   <v>       0.27272727       0.18181818       0.27272727 </v>
   <v>       0.36363636       0.18181818       0.27272727 </v>
   <v>       0.27272727       0.27272727       0.27272727 </v>
   <v>       0.36363636       0.27272727       0.27272727 </v>
   <v>       0.00000000       0.00000000       0.36363636 </v>
   <v>       0.09090909      -0.00000000       0.36363636 </v>
   <v>       0.18181818      -0.00000000       0.36363636 </v>
   <v>       0.27272727      -0.00000000       0.36363636 </v>
   <v>       0.36363636      -0.00000000       0.36363636 </v>
   <v>       0.45454545      -0.00000000       0.36363636 </v>
   <v>       0.09090909       0.09090909       0.36363636 </v>
   <v>       0.18181818       0.09090909       0.36363636 </v>
   <v>       0.27272727       0.09090909       0.36363636 </v>
   <v>       0.36363636       0.09090909       0.36363636 </v>
   <v>       0.45454545       0.09090909       0.36363636 </v>
   <v>       0.18181818       0.18181818       0.36363636 </v>
   <v>       0.27272727       0.18181818       0.36363636 </v>
   <v>       0.36363636       0.18181818       0.36363636 </v>
   <v>       0.27272727       0.27272727       0.36363636 </v>
   <v>       0.36363636       0.27272727       0.36363636 </v>
   <v>       0.00000000       0.00000000       0.45454545 </v>
   <v>       0.09090909      -0.00000000       0.45454545 </v>
   <v>       0.18181818      -0.00000000       0.45454545 </v>
   <v>       0.27272727      -0.00000000       0.45454545 </v>
   <v>       0.36363636      -0.00000000       0.45454545 </v>
   <v>       0.45454545      -0.00000000       0.45454545 </v>
   <v>       0.09090909       0.09090909       0.45454545 </v>
   <v>       0.18181818       0.09090909       0.45454545 </v>
   <v>       0.27272727       0.09090909       0.45454545 </v>
   <v>       0.36363636       0.09090909       0.45454545 </v>
   <v>       0.45454545       0.09090909       0.45454545 </v>
   <v>       0.18181818       0.18181818       0.45454545 </v>
   <v>       0.27272727       0.18181818       0.45454545 </v>
   <v>       0.36363636       0.18181818       0.45454545 </v>
   <v>       0.27272727       0.27272727       0.45454545 </v>
   <v>       0.36363636       0.27272727       0.45454545 </v>
  </varray>
  <varray name="weights" >
   <v>       0.00075131 </v>
   <v>       0.00450789 </v>
   <v>       0.00450789 </v>
   <v>       0.00450789 </v>
   <v>       0.00450789 </v>
   <v>       0.00450789 </v>
   <v>       0.00450789 </v>
   <v>       0.00901578 </v>
   <v>       0.00901578 </v>
   <v>       0.00901578 </v>
   <v>       0.00450789 </v>
   <v>       0.00450789 </v>
   <v>       0.00901578 </v>
   <v>       0.00901578 </v>
   <v>       0.00450789 </v>
   <v>       0.00450789 </v>
   <v>       0.00150263 </v>
   <v>       0.00901578 </v>
   <v>       0.00901578 </v>
   <v>       0.00901578 </v>
   <v>       0.00901578 </v>
   <v>       0.00901578 </v>
   <v>       0.00901578 </v>
   <v>       0.01803156 </v>
   <v>       0.01803156 </v>
   <v>       0.01803156 </v>
   <v>       0.00901578 </v>
   <v>       0.00901578 </v>
   <v>       0.01803156 </v>
   <v>       0.01803156 </v>
   <v>       0.00901578 </v>
   <v>       0.00901578 </v>
   <v>       0.00150263 </v>
   <v>       0.00901578 </v>
   <v>       0.00901578 </v>
   <v>       0.00901578 </v>
   <v>       0.00901578 </v>
   <v>       0.00901578 </v>
   <v>       0.00901578 </v>
   <v>       0.01803156 </v>
   <v>       0.01803156 </v>
   <v>       0.01803156 </v>
   <v>       0.00901578 </v>
   <v>       0.00901578 </v>
   <v>       0.01803156 </v>
   <v>       0.01803156 </v>
   <v>       0.00901578 </v>
   <v>       0.00901578 </v>
   <v>       0.00150263 </v>
   <v>       0.00901578 </v>
   <v>       0.00901578 </v>
   <v>       0.00901578 </v>
   <v>       0.00901578 </v>
   <v>       0.00901578 </v>
   <v>       0.00901578 </v>
   <v>       0.01803156 </v>
   <v>       0.01803156 </v>
   <v>       0.01803156 </v>
   <v>       0.00901578 </v>
   <v>       0.00901578 </v>
   <v>       0.01803156 </v>
   <v>       0.01803156 </v>
   <v>       0.00901578 </v>
   <v>       0.00901578 </v>
   <v>       0.00150263 </v>
   <v>       0.00901578 </v>
   <v>       0.00901578 </v>
   <v>       0.00901578 </v>
   <v>       0.00901578 </v>
   <v>       0.00901578 </v>
   <v>       0.00901578 </v>
   <v>       0.01803156 </v>
   <v>       0.01803156 </v>
   <v>       0.01803156 </v>
   <v>       0.00901578 </v>
   <v>       0.00901578 </v>
   <v>       0.01803156 </v>
   <v>       0.01803156 </v>
   <v>       0.00901578 </v>
   <v>       0.00901578 </v>
   <v>       0.00150263 </v>
   <v>       0.00901578 </v>
   <v>       0.00901578 </v>
   <v>       0.00901578 </v>
   <v>       0.00901578 </v>
   <v>       0.00901578 </v>
   <v>       0.00901578 </v>
   <v>       0.01803156 </v>
   <v>       0.01803156 </v>
   <v>       0.01803156 </v>
   <v>       0.00901578 </v>
   <v>       0.00901578 </v>
   <v>       0.01803156 </v>
   <v>       0.01803156 </v>
   <v>       0.00901578 </v>
   <v>       0.00901578 </v>
  </varray>
 </kpoints>
 <parameters>
  <separator name="general" >
   <i type="string" name="SYSTEM">unknown system</i>
   <i type="logical" name="LCOMPAT"> F  </i>
  </separator>
  <separator name="electronic" >
   <i type="string" name="PREC">normal</i>
   <i name="ENMAX">    280.00000000</i>
   <i name="ENAUG">    511.36800000</i>
   <i name="EDIFF">      0.00000100</i>
   <i type="int" name="IALGO">    38</i>
   <i type="int" name="IWAVPR">     0</i>
   <i type="int" name="NBANDS">    40</i>
   <i type="int" name="NBANDSLOW">    -1</i>
   <i type="int" name="NBANDSHIGH">    -1</i>
   <i name="NELECT">     16.00000000</i>
   <i type="int" name="TURBO">     0</i>
   <i type="int" name="IRESTART">     0</i>
   <i type="int" name="NREBOOT">     0</i>
   <i type="int" name="NMIN">     0</i>
   <i name="EREF">      0.00000000</i>
   <separator name="electronic smearing" >
    <i type="int" name="ISMEAR">     1</i>
    <i name="SIGMA">      0.20000000</i>
    <i name="KSPACING">      0.50000000</i>
    <i type="logical" name="KGAMMA"> T  </i>
    <i type="logical" name="KBLOWUP"> T  </i>
   </separator>
   <separator name="electronic projectors" >
    <i type="logical" name="LREAL"> F  </i>
    <v name="ROPT">      0.00000000</v>
    <i type="int" name="LMAXPAW">  -100</i>
    <i type="int" name="LMAXMIX">     2</i>
    <i type="logical" name="NLSPLINE"> F  </i>
   </separator>
   <separator name="electronic startup" >
    <i type="int" name="ISTART">     0</i>
    <i type="int" name="ICHARG">     1</i>
    <i type="int" name="INIWAV">     1</i>
   </separator>
   <separator name="electronic spin" >
    <i type="int" name="ISPIN">     1</i>
    <i type="logical" name="LNONCOLLINEAR"> F  </i>
    <v name="MAGMOM">      1.00000000      1.00000000</v>
    <i name="NUPDOWN">     -1.00000000</i>
    <i type="logical" name="LSORBIT"> F  </i>
    <v name="SAXIS">      0.00000000      0.00000000      1.00000000</v>
    <i type="logical" name="LSPIRAL"> F  </i>
    <v name="QSPIRAL">      0.00000000      0.00000000      0.00000000</v>
    <i type="logical" name="LZEROZ"> F  </i>
   </separator>
   <separator name="electronic exchange-correlation" >
    <i type="logical" name="LASPH"> F  </i>
    <i type="logical" name="LMETAGGA"> F  </i>
   </separator>
   <separator name="electronic convergence" >
    <i type="int" name="NELM">    60</i>
    <i type="int" name="NELMDL">    -5</i>
    <i type="int" name="NELMIN">     2</i>
    <i name="ENINI">    280.00000000</i>
    <separator name="electronic convergence detail" >
     <i type="logical" name="LDIAG"> T  </i>
     <i type="logical" name="LSUBROT"> F  </i>
     <i name="WEIMIN">      0.00000000</i>
     <i name="EBREAK">      0.00000001</i>
     <i name="DEPER">      0.30000000</i>
     <i type="int" name="NRMM">     4</i>
     <i name="TIME">      0.40000000</i>
    </separator>
   </separator>
   <separator name="electronic mixer" >
    <i name="AMIX">      0.40000000</i>
    <i name="BMIX">      1.00000000</i>
    <i name="AMIN">      0.10000000</i>
    <i name="AMIX_MAG">      1.60000000</i>
    <i name="BMIX_MAG">      1.00000000</i>
    <separator name="electronic mixer details" >
     <i type="int" name="IMIX">     4</i>
     <i type="logical" name="MIXFIRST"> F  </i>
     <i type="int" name="MAXMIX">   -45</i>
     <i name="WC">    100.00000000</i>
     <i type="int" name="INIMIX">     1</i>
     <i type="int" name="MIXPRE">     1</i>
     <i type="int" name="MREMOVE">     5</i>
    </separator>
   </separator>
   <separator name="electronic dipolcorrection" >
    <i type="logical" name="LDIPOL"> F  </i>
    <i type="logical" name="LMONO"> F  </i>
    <i type="int" name="IDIPOL">     0</i>
    <i name="EPSILON">      1.00000000</i>
    <v name="DIPOL">   -100.00000000   -100.00000000   -100.00000000</v>
    <i name="EFIELD">      0.00000000</i>
   </separator>
  </separator>
  <separator name="grids" >
   <i type="int" name="NGX">    10</i>
   <i type="int" name="NGY">    10</i>
   <i type="int" name="NGZ">    18</i>
   <i type="int" name="NGXF">    20</i>
   <i type="int" name="NGYF">    20</i>
   <i type="int" name="NGZF">    36</i>
   <i type="logical" name="ADDGRID"> F  </i>
  </separator>
  <separator name="ionic" >
   <i type="int" name="NSW">     0</i>
   <i type="int" name="IBRION">    -1</i>
   <i type="int" name="MDALGO">     0</i>
   <i type="int" name="ISIF">     2</i>
   <i name="PSTRESS">      0.00000000</i>
   <i name="EDIFFG">      0.00001000</i>
   <i type="int" name="NFREE">     0</i>
   <i name="POTIM">      0.50000000</i>
   <i name="SMASS">     -3.00000000</i>
   <i name="SCALEE">      1.00000000</i>
  </separator>
  <separator name="ionic md" >
   <i name="TEBEG">      0.00010000</i>
   <i name="TEEND">      0.00010000</i>
   <i type="int" name="NBLOCK">     1</i>
   <i type="int" name="KBLOCK">     1</i>
   <i type="int" name="NPACO">   256</i>
   <i name="APACO">     16.00000000</i>
  </separator>
  <separator name="symmetry" >
   <i type="int" name="ISYM">     2</i>
   <i name="SYMPREC">      0.00001000</i>
  </separator>
  <separator name="dos" >
   <i type="int" name="LORBIT">     0</i>
   <v name="RWIGS">     -1.00000000</v>
   <i type="int" name="NEDOS">   301</i>
   <i name="EMIN">     10.00000000</i>
   <i name="EMAX">    -10.00000000</i>
   <i name="EFERMI">      0.00000000</i>
  </separator>
  <separator name="writing" >
   <i type="int" name="NWRITE">     2</i>
   <i type="logical" name="LWAVE"> T  </i>
   <i type="logical" name="LDOWNSAMPLE"> F  </i>
   <i type="logical" name="LCHARG"> T  </i>
   <i type="logical" name="LPARD"> F  </i>
   <i type="logical" name="LVTOT"> F  </i>
   <i type="logical" name="LVHAR"> F  </i>
   <i type="logical" name="LELF"> F  </i>
   <i type="logical" name="LOPTICS"> F  </i>
   <v name="STM">      0.00000000      0.00000000      0.00000000      0.00000000      0.00000000      0.00000000      0.00000000</v>
  </separator>
  <separator name="performance" >
   <i type="int" name="NPAR">     1</i>
   <i type="int" name="NSIM">     4</i>
   <i type="int" name="NBLK">    -1</i>
   <i type="logical" name="LPLANE"> T  </i>
   <i type="logical" name="LSCALAPACK"> F  </i>
   <i type="logical" name="LSCAAWARE"> F  </i>
   <i type="logical" name="LSCALU"> F  </i>
   <i type="logical" name="LASYNC"> F  </i>
   <i type="logical" name="LORBITALREAL"> F  </i>
  </separator>
  <separator name="miscellaneous" >
   <i type="int" name="IDIOT">     3</i>
   <i type="int" name="PHON_NSTRUCT">    -1</i>
   <i type="logical" name="LMUSIC"> F  </i>
   <v name="POMASS">     55.84700000</v>
   <v name="DARWINR">      0.00000000</v>
   <v name="DARWINV">      1.00000000</v>
   <i type="logical" name="LCORR"> T  </i>
  </separator>
  <i type="logical" name="GGA_COMPAT"> T  </i>
  <i type="logical" name="LBERRY"> F  </i>
  <i type="int" name="ICORELEVEL">     0</i>
  <i type="logical" name="LDAU"> F  </i>
  <i type="int" name="I_CONSTRAINED_M">     0</i>
  <separator name="electronic exchange-correlation" >
   <i type="string" name="GGA">PE</i>
   <i type="int" name="VOSKOWN">     0</i>
   <i type="logical" name="LHFCALC"> F  </i>
   <i type="string" name="PRECFOCK"></i>
   <i type="logical" name="LSYMGRAD"> F  </i>
   <i type="logical" name="LHFONE"> F  </i>
   <i type="logical" name="LRHFCALC"> F  </i>
   <i type="logical" name="LTHOMAS"> F  </i>
   <i type="logical" name="LMODELHF"> F  </i>
   <i type="logical" name="LFOCKACE"> F  </i>
   <i name="ENCUT4O">     -1.00000000</i>
   <i type="int" name="EXXOEP">     0</i>
   <i type="int" name="FOURORBIT">     0</i>
   <i name="AEXX">      0.00000000</i>
   <i name="HFALPHA">      0.00000000</i>
   <i name="MCALPHA">      0.00000000</i>
   <i name="ALDAX">      1.00000000</i>
   <i name="AGGAX">      1.00000000</i>
   <i name="ALDAC">      1.00000000</i>
   <i name="AGGAC">      1.00000000</i>
   <i type="int" name="NKREDX">     1</i>
   <i type="int" name="NKREDY">     1</i>
   <i type="int" name="NKREDZ">     1</i>
   <i type="logical" name="SHIFTRED"> F  </i>
   <i type="logical" name="ODDONLY"> F  </i>
   <i type="logical" name="EVENONLY"> F  </i>
   <i type="int" name="LMAXFOCK">     0</i>
   <i type="int" name="NMAXFOCKAE">     0</i>
   <i type="logical" name="LFOCKAEDFT"> F  </i>
   <i name="HFSCREEN">      0.00000000</i>
   <i name="HFSCREENC">      0.00000000</i>
   <i type="int" name="NBANDSGWLOW">     0</i>
  </separator>
  <separator name="vdW DFT" >
   <i type="logical" name="LUSE_VDW"> F  </i>
   <i name="Zab_VDW">     -0.84910000</i>
   <i name="PARAM1">      0.12340000</i>
   <i name="PARAM2">      1.00000000</i>
   <i name="PARAM3">      0.00000000</i>
  </separator>
  <separator name="model GW" >
   <i type="int" name="MODEL_GW">     0</i>
   <i name="MODEL_EPS0">      6.50500453</i>
   <i name="MODEL_ALPHA">      1.00000000</i>
  </separator>
  <separator name="linear response parameters" >
   <i type="logical" name="LEPSILON"> F  </i>
   <i type="logical" name="LRPA"> F  </i>
   <i type="logical" name="LNABLA"> F  </i>
   <i type="logical" name="LVEL"> F  </i>
   <i type="int" name="KINTER">     0</i>
   <i name="CSHIFT">      0.10000000</i>
   <i name="OMEGAMAX">     -1.00000000</i>
   <i name="DEG_THRESHOLD">      0.00200000</i>
   <i name="RTIME">     -0.10000000</i>
   <i name="WPLASMAI">      0.00000000</i>
   <v name="DFIELD">      0.00000000      0.00000000      0.00000000</v>
   <v name="WPLASMA">      0.00000000      0.00000000      0.00000000      0.00000000      0.00000000      0.00000000      0.00000000      0.00000000      0.00000000</v>
  </separator>
  <separator name="orbital magnetization" >
   <i type="logical" name="NUCIND"> F  </i>
   <v name="MAGPOS">      0.00000000      0.00000000      0.00000000</v>
   <i type="logical" name="LNICSALL"> T  </i>
   <i type="logical" name="ORBITALMAG"> F  </i>
   <i type="logical" name="LMAGBLOCH"> F  </i>
   <i type="logical" name="LCHIMAG"> F  </i>
   <i type="logical" name="LGAUGE"> T  </i>
   <i type="int" name="MAGATOM">     0</i>
   <v name="MAGDIPOL">      0.00000000      0.00000000      0.00000000</v>
   <v name="AVECCONST">      0.00000000      0.00000000      0.00000000</v>
  </separator>
  <separator name="response functions" >
   <i type="logical" name="LFINITE_TEMPERATURE"> F  </i>
   <i type="logical" name="LADDER"> F  </i>
   <i type="logical" name="LRPAFORCE"> F  </i>
   <i type="logical" name="LFXC"> F  </i>
   <i type="logical" name="LHARTREE"> T  </i>
   <i type="int" name="IBSE">     0</i>
   <v type="int" name="KPOINT">    -1     0     0     0</v>
   <i type="logical" name="LTCTC"> F  </i>
   <i type="logical" name="LTCTE"> F  </i>
   <i type="logical" name="LTETE"> F  </i>
   <i type="logical" name="LTRIPLET"> F  </i>
   <i type="logical" name="LFXCEPS"> F  </i>
   <i type="logical" name="LFXHEG"> F  </i>
   <i type="int" name="NATURALO">     2</i>
   <i type="logical" name="LHOLEGF"> F  </i>
   <i type="logical" name="L2ORDER"> F  </i>
   <i type="logical" name="LDMP1"> F  </i>
   <i type="logical" name="LMP2LT"> F  </i>
   <i type="logical" name="LSMP2LT"> F  </i>
   <i type="logical" name="LGWLF"> F  </i>
   <i name="ENCUTGW">     -2.00000000</i>
   <i name="ENCUTGWSOFT">     -2.00000000</i>
   <i name="ENCUTLF">     -1.00000000</i>
   <i type="logical" name="LESF_SPLINES"> F  </i>
   <i type="int" name="LMAXMP2">    -1</i>
   <i name="SCISSOR">      0.00000000</i>
   <i type="int" name="NOMEGA">     0</i>
   <i type="int" name="NOMEGAR">     0</i>
   <i type="int" name="NBANDSGW">    -1</i>
   <i type="int" name="NBANDSO">    -1</i>
   <i type="int" name="NBANDSV">    -1</i>
   <i type="int" name="NELM">     1</i>
   <i type="int" name="NELMHF">     1</i>
   <i type="int" name="DIM">     3</i>
   <i type="int" name="IESPILON">     4</i>
   <i type="int" name="ANTIRES">     0</i>
   <i name="OMEGAMAX">    -30.00000000</i>
   <i name="OMEGAMIN">    -30.00000000</i>
   <i name="OMEGATL">   -200.00000000</i>
   <i type="int" name="OMEGAGRID">     0</i>
   <i name="CSHIFT">     -0.10000000</i>
   <i type="logical" name="LSELFENERGY"> F  </i>
   <i type="logical" name="LSPECTRAL"> F  </i>
   <i type="logical" name="LSPECTRALGW"> F  </i>
   <i type="logical" name="LSINGLES"> F  </i>
   <i type="logical" name="LFERMIGW"> F  </i>
   <i type="logical" name="ODDONLYGW"> F  </i>
   <i type="logical" name="EVENONLYGW"> F  </i>
   <i type="int" name="NKREDLFX">     1</i>
   <i type="int" name="NKREDLFY">     1</i>
   <i type="int" name="NKREDLFZ">     1</i>
   <i type="int" name="MAXMEM">  2800</i>
   <i type="int" name="TELESCOPE">     0</i>
   <i type="int" name="NTAUPAR">    -1</i>
   <i type="int" name="NOMEGAPAR">    -1</i>
   <i name="DAMP_NEWTON">      0.80000001</i>
   <i name="LAMBDA">      1.00000000</i>
  </separator>
  <separator name="External order field" >
   <i name="OFIELD_KAPPA">      0.00000000</i>
   <v name="OFIELD_K">      0.00000000      0.00000000      0.00000000</v>
   <i name="OFIELD_Q6_NEAR">      0.00000000</i>
   <i name="OFIELD_Q6_FAR">      0.00000000</i>
   <i name="OFIELD_A">      0.00000000</i>
  </separator>
 </parameters>
 <atominfo>
  <atoms>       2 </atoms>
  <types>       1 </types>
  <array name="atoms" >
   <dimension dim="1">ion</dimension>
   <field type="string">element</field>
   <field type="int">atomtype</field>
   <set>
    <rc><c>Fe</c><c>   1</c></rc>
    <rc><c>Fe</c><c>   1</c></rc>
   </set>
  </array>
  <array name="atomtypes" >
   <dimension dim="1">type</dimension>
   <field type="int">atomspertype</field>
   <field type="string">element</field>
   <field>mass</field>
   <field>valence</field>
   <field type="string">pseudopotential</field>
   <set>
    <rc><c>   2</c><c>Fe</c><c>     55.84700000</c><c>      8.00000000</c><c>  PAW_PBE Fe 06Sep2000                  </c></rc>
   </set>
  </array>
 </atominfo>
 <structure name="initialpos" >
  <crystal>
   <varray name="basis" >
    <v>       2.42320000       0.00000000       0.00000000 </v>
    <v>      -1.21160000       2.09855276       0.00000000 </v>
    <v>       0.00000000       0.00000000       4.26400000 </v>
   </varray>
   <i name="volume">     21.68334842 </i>
   <varray name="rec_basis" >
    <v>       0.41267745       0.23825944       0.00000000 </v>
    <v>       0.00000000       0.47651888       0.00000000 </v>
    <v>       0.00000000       0.00000000       0.23452158 </v>
   </varray>
  </crystal>
  <varray name="positions" >
   <v>       0.00000000       0.00000000       0.00000000 </v>
   <v>       0.33333333       0.66666667       0.50000000 </v>
  </varray>
 </structure>
 <calculation>
  <scstep>
   <time name="dav">    0.79    0.81</time>
   <time name="total">    0.80    0.83</time>
   <energy>
    <i name="alphaZ">    127.49650037 </i>
    <i name="ewald">  -1201.62847339 </i>
    <i name="hartreedc">   -216.85419304 </i>
    <i name="XCdc">      8.10872131 </i>
    <i name="pawpsdc">   1109.69170683 </i>
    <i name="pawaedc">  -1125.09647265 </i>
    <i name="eentropy">      0.00159438 </i>
    <i name="bandstr">    170.48526817 </i>
    <i name="atom">   1188.57490811 </i>
    <i name="e_fr_energy">     60.77956009 </i>
    <i name="e_wo_entrp">     60.77796570 </i>
    <i name="e_0_energy">     60.77902863 </i>
   </energy>
  </scstep>
  <scstep>
   <time name="dav">    0.70    0.70</time>
   <time name="total">    0.70    0.70</time>
   <energy>
    <i name="e_fr_energy">    -14.69891789 </i>
    <i name="e_wo_entrp">    -14.69758721 </i>
    <i name="e_0_energy">    -14.69847433 </i>
   </energy>
  </scstep>
  <scstep>
   <time name="dav">    0.79    0.79</time>
   <time name="total">    0.80    0.80</time>
   <energy>
    <i name="e_fr_energy">    -19.24213640 </i>
    <i name="e_wo_entrp">    -19.24292915 </i>
    <i name="e_0_energy">    -19.24240065 </i>
   </energy>
  </scstep>
  <scstep>
   <time name="dav">    0.77    0.77</time>
   <time name="total">    0.77    0.77</time>
   <energy>
    <i name="e_fr_energy">    -19.26566847 </i>
    <i name="e_wo_entrp">    -19.26652739 </i>
    <i name="e_0_energy">    -19.26595478 </i>
   </energy>
  </scstep>
  <scstep>
   <time name="dav">    0.77    0.77</time>
   <time name="total">    0.79    0.79</time>
   <energy>
    <i name="e_fr_energy">    -19.26570926 </i>
    <i name="e_wo_entrp">    -19.26656830 </i>
    <i name="e_0_energy">    -19.26599561 </i>
   </energy>
  </scstep>
  <scstep>
   <time name="dav">    0.91    0.91</time>
   <time name="total">    0.94    0.94</time>
   <energy>
    <i name="e_fr_energy">    -16.36490386 </i>
    <i name="e_wo_entrp">    -16.36830100 </i>
    <i name="e_0_energy">    -16.36603624 </i>
   </energy>
  </scstep>
  <scstep>
   <time name="dav">    0.85    0.85</time>
   <time name="total">    0.88    0.88</time>
   <energy>
    <i name="e_fr_energy">    -16.08941429 </i>
    <i name="e_wo_entrp">    -16.09285204 </i>
    <i name="e_0_energy">    -16.09056021 </i>
   </energy>
  </scstep>
  <scstep>
   <time name="dav">    0.85    0.85</time>
   <time name="total">    0.88    0.88</time>
   <energy>
    <i name="e_fr_energy">    -16.06487379 </i>
    <i name="e_wo_entrp">    -16.06840060 </i>
    <i name="e_0_energy">    -16.06604939 </i>
   </energy>
  </scstep>
  <scstep>
   <time name="dav">    0.93    0.93</time>
   <time name="total">    0.97    0.97</time>
   <energy>
    <i name="e_fr_energy">    -16.05401931 </i>
    <i name="e_wo_entrp">    -16.05754771 </i>
    <i name="e_0_energy">    -16.05519544 </i>
   </energy>
  </scstep>
  <scstep>
   <time name="dav">    0.77    0.77</time>
   <time name="total">    0.80    0.80</time>
   <energy>
    <i name="e_fr_energy">    -16.05404655 </i>
    <i name="e_wo_entrp">    -16.05756938 </i>
    <i name="e_0_energy">    -16.05522083 </i>
   </energy>
  </scstep>
  <scstep>
   <time name="dav">    0.78    0.78</time>
   <time name="total">    0.81    0.81</time>
   <energy>
    <i name="e_fr_energy">    -16.05404184 </i>
    <i name="e_wo_entrp">    -16.05756464 </i>
    <i name="e_0_energy">    -16.05521610 </i>
   </energy>
  </scstep>
  <scstep>
   <time name="dav">    0.58    0.58</time>
   <time name="total">    0.59    0.59</time>
   <energy>
    <i name="alphaZ">    127.49650037 </i>
    <i name="ewald">  -1201.62847339 </i>
    <i name="hartreedc">   -182.36795020 </i>
    <i name="XCdc">      6.51108472 </i>
    <i name="pawpsdc">   1411.16810988 </i>
    <i name="pawaedc">  -1428.11871567 </i>
    <i name="eentropy">      0.00352307 </i>
    <i name="bandstr">     62.30697154 </i>
    <i name="atom">   1188.57490811 </i>
    <i name="e_fr_energy">    -16.05404155 </i>
    <i name="e_wo_entrp">    -16.05756463 </i>
    <i name="e_0_energy">    -16.05521591 </i>
   </energy>
  </scstep>
  <structure>
   <crystal>
    <varray name="basis" >
     <v>       2.42320000       0.00000000       0.00000000 </v>
     <v>      -1.21160000       2.09855276       0.00000000 </v>
     <v>       0.00000000       0.00000000       4.26400000 </v>
    </varray>
    <i name="volume">     21.68334842 </i>
    <varray name="rec_basis" >
     <v>       0.41267745       0.23825944       0.00000000 </v>
     <v>       0.00000000       0.47651888       0.00000000 </v>
     <v>       0.00000000       0.00000000       0.23452158 </v>
    </varray>
   </crystal>
   <varray name="positions" >
    <v>       0.00000000       0.00000000       0.00000000 </v>
    <v>       0.33333333       0.66666667       0.50000000 </v>
   </varray>
  </structure>
  <varray name="forces" >
   <v>      -0.00000000       0.00000000      -0.00000000 </v>
   <v>       0.00000000      -0.00000000       0.00000000 </v>
  </varray>
  <varray name="stress" >
   <v>     -22.67101415       0.00000000       0.00000000 </v>
   <v>       0.00000000     -22.67101415      -0.00000000 </v>
   <v>       0.00000000       0.00000000    -410.58270586 </v>
  </varray>
  <energy>
   <i name="e_fr_energy">    -16.05404155 </i>
   <i name="e_wo_entrp">    -16.05756463 </i>
   <i name="e_0_energy">    -16.05521591 </i>
  </energy>
  <time name="totalsc">   10.08   10.10</time>
  <eigenvalues>
   <array>
    <dimension dim="1">band</dimension>
    <dimension dim="2">kpoint</dimension>
    <dimension dim="3">spin</dimension>
    <field>eigene</field>
    <field>occ</field>
    <set>
     <set comment="spin 1">
      <set comment="kpoint 1">
       <r>   -2.3272    1.0000 </r>
       <r>    1.5341    1.0000 </r>
       <r>    4.2084    1.0000 </r>
       <r>    4.7779    1.0000 </r>
       <r>    4.7781    1.0000 </r>
       <r>    5.0566    1.0000 </r>
       <r>    5.0567    1.0000 </r>
       <r>    5.5833    1.0000 </r>
       <r>    5.9147    1.0290 </r>
       <r>    5.9147    1.0291 </r>
       <r>    6.8811   -0.0000 </r>
       <r>    6.8812   -0.0000 </r>
       <r>   12.9305    0.0000 </r>
       <r>   29.0380    0.0000 </r>
       <r>   29.0722    0.0000 </r>
       <r>   31.8920    0.0000 </r>
       <r>   33.5551    0.0000 </r>
       <r>   33.5551    0.0000 </r>
       <r>   34.4138    0.0000 </r>
       <r>   34.4140    0.0000 </r>
       <r>   35.1505    0.0000 </r>
       <r>   37.5182    0.0000 </r>
       <r>   37.5182    0.0000 </r>
       <r>   38.5185    0.0000 </r>
       <r>   40.7532    0.0000 </r>
       <r>   40.7532    0.0000 </r>
       <r>   41.1252    0.0000 </r>
       <r>   44.0199    0.0000 </r>
       <r>   44.0203    0.0000 </r>
       <r>   45.6712    0.0000 </r>
       <r>   45.6714    0.0000 </r>
       <r>   48.0717    0.0000 </r>
       <r>   55.8569    0.0000 </r>
       <r>   59.8104    0.0000 </r>
       <r>   59.8116    0.0000 </r>
       <r>   60.5312    0.0000 </r>
       <r>   60.9903    0.0000 </r>
       <r>   61.4473    0.0000 </r>
       <r>   61.4572    0.0000 </r>
       <r>   61.5639    0.0000 </r>
      </set>
      <set comment="kpoint 2">
       <r>   -2.0132    1.0000 </r>
       <r>    1.7666    1.0000 </r>
       <r>    4.2169    1.0000 </r>
       <r>    4.7265    1.0000 </r>
       <r>    4.7956    1.0000 </r>
       <r>    4.9539    1.0000 </r>
       <r>    4.9553    1.0000 </r>
       <r>    5.2196    1.0000 </r>
       <r>    5.7843    1.0053 </r>
       <r>    5.8150    1.0089 </r>
       <r>    6.9105   -0.0000 </r>
       <r>    7.9344   -0.0000 </r>
       <r>   12.9597    0.0000 </r>
       <r>   27.6033    0.0000 </r>
       <r>   29.3793    0.0000 </r>
       <r>   30.0616    0.0000 </r>
       <r>   30.9205    0.0000 </r>
       <r>   33.4864    0.0000 </r>
       <r>   33.6192    0.0000 </r>
       <r>   34.9913    0.0000 </r>
       <r>   36.8614    0.0000 </r>
       <r>   37.2726    0.0000 </r>
       <r>   37.3904    0.0000 </r>
       <r>   37.9418    0.0000 </r>
       <r>   41.4380    0.0000 </r>
       <r>   41.6808    0.0000 </r>
       <r>   41.9815    0.0000 </r>
       <r>   42.4457    0.0000 </r>
       <r>   45.5772    0.0000 </r>
       <r>   47.0232    0.0000 </r>
       <r>   48.1877    0.0000 </r>
       <r>   50.1351    0.0000 </r>
       <r>   55.5552    0.0000 </r>
       <r>   57.8646    0.0000 </r>
       <r>   58.3089    0.0000 </r>
       <r>   58.7519    0.0000 </r>
       <r>   59.8363    0.0000 </r>
       <r>   61.4272    0.0000 </r>
       <r>   62.8228    0.0000 </r>
       <r>   63.4734    0.0000 </r>
      </set>
      <set comment="kpoint 3">
       <r>   -1.1191    1.0000 </r>
       <r>    2.3224    1.0000 </r>
       <r>    3.8292    1.0000 </r>
       <r>    4.0472    1.0000 </r>
       <r>    4.5623    1.0000 </r>
       <r>    5.0669    1.0000 </r>
       <r>    5.4421    1.0000 </r>
       <r>    5.4663    1.0000 </r>
       <r>    5.5782    1.0000 </r>
       <r>    5.6703    1.0005 </r>
       <r>    6.9614   -0.0000 </r>
       <r>    9.6510   -0.0000 </r>
       <r>   13.0741    0.0000 </r>
       <r>   23.7419    0.0000 </r>
       <r>   28.2170    0.0000 </r>
       <r>   28.8404    0.0000 </r>
       <r>   29.2935    0.0000 </r>
       <r>   30.3804    0.0000 </r>
       <r>   33.6258    0.0000 </r>
       <r>   34.7835    0.0000 </r>
       <r>   35.0827    0.0000 </r>
       <r>   35.9075    0.0000 </r>
       <r>   38.0960    0.0000 </r>
       <r>   38.8627    0.0000 </r>
       <r>   41.5238    0.0000 </r>
       <r>   42.9800    0.0000 </r>
       <r>   44.6021    0.0000 </r>
       <r>   46.6756    0.0000 </r>
       <r>   47.9460    0.0000 </r>
       <r>   50.8940    0.0000 </r>
       <r>   51.1010    0.0000 </r>
       <r>   53.6114    0.0000 </r>
       <r>   54.3434    0.0000 </r>
       <r>   54.6468    0.0000 </r>
       <r>   56.5632    0.0000 </r>
       <r>   58.2509    0.0000 </r>
       <r>   59.2056    0.0000 </r>
       <r>   61.2510    0.0000 </r>
       <r>   64.1402    0.0000 </r>
       <r>   64.2885    0.0000 </r>
      </set>
      <set comment="kpoint 4">
       <r>    0.1733    1.0000 </r>
       <r>    2.6318    1.0000 </r>
       <r>    3.0934    1.0000 </r>
       <r>    3.9882    1.0000 </r>
       <r>    4.3904    1.0000 </r>
       <r>    5.0616    1.0000 </r>
       <r>    5.3073    1.0000 </r>
       <r>    5.7342    1.0020 </r>
       <r>    6.1346    0.7897 </r>
       <r>    6.2996    0.1548 </r>
       <r>    6.9881   -0.0000 </r>
       <r>   11.6091   -0.0000 </r>
       <r>   13.3353    0.0000 </r>
       <r>   19.8200    0.0000 </r>
       <r>   25.7071    0.0000 </r>
       <r>   25.9171    0.0000 </r>
       <r>   27.0925    0.0000 </r>
       <r>   30.3490    0.0000 </r>
       <r>   31.6675    0.0000 </r>
       <r>   34.8681    0.0000 </r>
       <r>   35.1918    0.0000 </r>
       <r>   35.5810    0.0000 </r>
       <r>   35.7187    0.0000 </r>
       <r>   39.4222    0.0000 </r>
       <r>   45.1352    0.0000 </r>
       <r>   46.7289    0.0000 </r>
       <r>   47.9823    0.0000 </r>
       <r>   49.0123    0.0000 </r>
       <r>   49.9368    0.0000 </r>
       <r>   51.1684    0.0000 </r>
       <r>   52.5741    0.0000 </r>
       <r>   53.5318    0.0000 </r>
       <r>   56.3295    0.0000 </r>
       <r>   56.4067    0.0000 </r>
       <r>   57.1727    0.0000 </r>
       <r>   58.3995    0.0000 </r>
       <r>   60.9027    0.0000 </r>
       <r>   60.9419    0.0000 </r>
       <r>   63.6284    0.0000 </r>
       <r>   64.7133    0.0000 </r>
      </set>
      <set comment="kpoint 5">
       <r>    1.3982    1.0000 </r>
       <r>    2.4132    1.0000 </r>
       <r>    2.6141    1.0000 </r>
       <r>    4.1220    1.0000 </r>
       <r>    4.7005    1.0000 </r>
       <r>    4.7388    1.0000 </r>
       <r>    5.0819    1.0000 </r>
       <r>    6.8285   -0.0001 </r>
       <r>    6.8353   -0.0000 </r>
       <r>    6.9294   -0.0000 </r>
       <r>    6.9912   -0.0000 </r>
       <r>   13.3451    0.0000 </r>
       <r>   13.7267    0.0000 </r>
       <r>   16.9438    0.0000 </r>
       <r>   22.4704    0.0000 </r>
       <r>   24.1687    0.0000 </r>
       <r>   24.1906    0.0000 </r>
       <r>   29.5159    0.0000 </r>
       <r>   30.6688    0.0000 </r>
       <r>   33.7904    0.0000 </r>
       <r>   34.7353    0.0000 </r>
       <r>   36.3305    0.0000 </r>
       <r>   36.8174    0.0000 </r>
       <r>   39.7477    0.0000 </r>
       <r>   46.6103    0.0000 </r>
       <r>   47.8455    0.0000 </r>
       <r>   48.6764    0.0000 </r>
       <r>   51.7128    0.0000 </r>
       <r>   51.9388    0.0000 </r>
       <r>   52.5351    0.0000 </r>
       <r>   54.7045    0.0000 </r>
       <r>   55.5554    0.0000 </r>
       <r>   55.8790    0.0000 </r>
       <r>   58.0382    0.0000 </r>
       <r>   59.9128    0.0000 </r>
       <r>   60.6167    0.0000 </r>
       <r>   61.6083    0.0000 </r>
       <r>   62.5001    0.0000 </r>
       <r>   64.4190    0.0000 </r>
       <r>   64.8217    0.0000 </r>
      </set>
      <set comment="kpoint 6">
       <r>    1.9673    1.0000 </r>
       <r>    2.1704    1.0000 </r>
       <r>    2.3817    1.0000 </r>
       <r>    4.4905    1.0000 </r>
       <r>    4.5991    1.0000 </r>
       <r>    4.9558    1.0000 </r>
       <r>    4.9561    1.0000 </r>
       <r>    6.9874   -0.0000 </r>
       <r>    7.2530   -0.0000 </r>
       <r>    7.3549   -0.0000 </r>
       <r>    8.3806   -0.0000 </r>
       <r>   11.6037   -0.0000 </r>
       <r>   15.7608    0.0000 </r>
       <r>   16.9269    0.0000 </r>
       <r>   19.9096    0.0000 </r>
       <r>   21.5138    0.0000 </r>
       <r>   23.1989    0.0000 </r>
       <r>   28.9264    0.0000 </r>
       <r>   30.3544    0.0000 </r>
       <r>   32.7295    0.0000 </r>
       <r>   34.5253    0.0000 </r>
       <r>   37.1377    0.0000 </r>
       <r>   39.1712    0.0000 </r>
       <r>   39.5790    0.0000 </r>
       <r>   43.2858    0.0000 </r>
       <r>   48.0160    0.0000 </r>
       <r>   50.1068    0.0000 </r>
       <r>   54.2495    0.0000 </r>
       <r>   54.3363    0.0000 </r>
       <r>   54.9795    0.0000 </r>
       <r>   55.9145    0.0000 </r>
       <r>   57.7821    0.0000 </r>
       <r>   58.4365    0.0000 </r>
       <r>   59.4200    0.0000 </r>
       <r>   59.9954    0.0000 </r>
       <r>   60.0623    0.0000 </r>
       <r>   63.1807    0.0000 </r>
       <r>   63.3252    0.0000 </r>
       <r>   63.7334    0.0000 </r>
       <r>   64.2891    0.0000 </r>
      </set>
      <set comment="kpoint 7">
       <r>   -1.4069    1.0000 </r>
       <r>    2.1765    1.0000 </r>
       <r>    4.0804    1.0000 </r>
       <r>    4.0846    1.0000 </r>
       <r>    4.7590    1.0000 </r>
       <r>    4.7902    1.0000 </r>
       <r>    5.3107    1.0000 </r>
       <r>    5.4373    1.0000 </r>
       <r>    5.5684    1.0000 </r>
       <r>    5.7825    1.0052 </r>
       <r>    6.9225   -0.0000 </r>
       <r>    9.1711   -0.0000 </r>
       <r>   13.0356    0.0000 </r>
       <r>   25.5324    0.0000 </r>
       <r>   26.5910    0.0000 </r>
       <r>   29.8709    0.0000 </r>
       <r>   30.9669    0.0000 </r>
       <r>   32.1393    0.0000 </r>
       <r>   32.4513    0.0000 </r>
       <r>   33.6593    0.0000 </r>
       <r>   34.6289    0.0000 </r>
       <r>   38.6153    0.0000 </r>
       <r>   39.3367    0.0000 </r>
       <r>   39.5748    0.0000 </r>
       <r>   40.9292    0.0000 </r>
       <r>   40.9387    0.0000 </r>
       <r>   41.1687    0.0000 </r>
       <r>   47.3245    0.0000 </r>
       <r>   48.9145    0.0000 </r>
       <r>   49.0628    0.0000 </r>
       <r>   49.0667    0.0000 </r>
       <r>   53.1876    0.0000 </r>
       <r>   54.8972    0.0000 </r>
       <r>   55.5140    0.0000 </r>
       <r>   56.4503    0.0000 </r>
       <r>   58.1042    0.0000 </r>
       <r>   59.1200    0.0000 </r>
       <r>   62.0223    0.0000 </r>
       <r>   64.0430    0.0000 </r>
       <r>   64.0643    0.0000 </r>
      </set>
      <set comment="kpoint 8">
       <r>   -0.2936    1.0000 </r>
       <r>    2.7164    1.0000 </r>
       <r>    3.3583    1.0000 </r>
       <r>    3.8027    1.0000 </r>
       <r>    4.4864    1.0000 </r>
       <r>    5.0479    1.0000 </r>
       <r>    5.1788    1.0000 </r>
       <r>    5.5563    1.0000 </r>
       <r>    5.9479    1.0346 </r>
       <r>    6.2151    0.4712 </r>
       <r>    6.9218   -0.0000 </r>
       <r>   10.9175   -0.0000 </r>
       <r>   13.2619    0.0000 </r>
       <r>   21.8350    0.0000 </r>
       <r>   24.3324    0.0000 </r>
       <r>   27.5362    0.0000 </r>
       <r>   29.6707    0.0000 </r>
       <r>   29.7703    0.0000 </r>
       <r>   32.7325    0.0000 </r>
       <r>   33.0036    0.0000 </r>
       <r>   33.8443    0.0000 </r>
       <r>   37.9967    0.0000 </r>
       <r>   38.6767    0.0000 </r>
       <r>   39.3442    0.0000 </r>
       <r>   42.5271    0.0000 </r>
       <r>   43.6455    0.0000 </r>
       <r>   45.4579    0.0000 </r>
       <r>   49.0785    0.0000 </r>
       <r>   51.5197    0.0000 </r>
       <r>   51.7611    0.0000 </r>
       <r>   51.9585    0.0000 </r>
       <r>   54.0103    0.0000 </r>
       <r>   55.0932    0.0000 </r>
       <r>   55.4070    0.0000 </r>
       <r>   56.4053    0.0000 </r>
       <r>   56.7540    0.0000 </r>
       <r>   60.0877    0.0000 </r>
       <r>   62.2740    0.0000 </r>
       <r>   64.2447    0.0000 </r>
       <r>   64.6072    0.0000 </r>
      </set>
      <set comment="kpoint 9">
       <r>    1.0416    1.0000 </r>
       <r>    2.7091    1.0000 </r>
       <r>    2.8278    1.0000 </r>
       <r>    3.8495    1.0000 </r>
       <r>    4.5334    1.0000 </r>
       <r>    4.7243    1.0000 </r>
       <r>    5.2291    1.0000 </r>
       <r>    5.8693    1.0188 </r>
       <r>    6.6435   -0.0043 </r>
       <r>    6.9133   -0.0000 </r>
       <r>    7.0565   -0.0000 </r>
       <r>   12.9303    0.0000 </r>
       <r>   13.6505    0.0000 </r>
       <r>   18.2045    0.0000 </r>
       <r>   22.6969    0.0000 </r>
       <r>   24.1766    0.0000 </r>
       <r>   26.4103    0.0000 </r>
       <r>   28.5306    0.0000 </r>
       <r>   31.8370    0.0000 </r>
       <r>   33.0138    0.0000 </r>
       <r>   34.5216    0.0000 </r>
       <r>   37.7093    0.0000 </r>
       <r>   38.1007    0.0000 </r>
       <r>   40.7366    0.0000 </r>
       <r>   44.3551    0.0000 </r>
       <r>   47.2420    0.0000 </r>
       <r>   48.4455    0.0000 </r>
       <r>   48.7235    0.0000 </r>
       <r>   50.3313    0.0000 </r>
       <r>   52.5980    0.0000 </r>
       <r>   54.0746    0.0000 </r>
       <r>   55.2134    0.0000 </r>
       <r>   56.2655    0.0000 </r>
       <r>   57.2349    0.0000 </r>
       <r>   59.0706    0.0000 </r>
       <r>   61.2264    0.0000 </r>
       <r>   61.6430    0.0000 </r>
       <r>   62.1187    0.0000 </r>
       <r>   62.9335    0.0000 </r>
       <r>   64.9443    0.0000 </r>
      </set>
      <set comment="kpoint 10">
       <r>    1.9665    1.0000 </r>
       <r>    2.4242    1.0000 </r>
       <r>    2.5176    1.0000 </r>
       <r>    4.1876    1.0000 </r>
       <r>    4.5232    1.0000 </r>
       <r>    4.8697    1.0000 </r>
       <r>    4.9454    1.0000 </r>
       <r>    6.6988   -0.0014 </r>
       <r>    6.8988   -0.0000 </r>
       <r>    7.1230   -0.0000 </r>
       <r>    8.1493   -0.0000 </r>
       <r>   12.9547    0.0000 </r>
       <r>   15.0780    0.0000 </r>
       <r>   16.7146    0.0000 </r>
       <r>   21.2237    0.0000 </r>
       <r>   21.4275    0.0000 </r>
       <r>   23.2437    0.0000 </r>
       <r>   27.6933    0.0000 </r>
       <r>   30.9006    0.0000 </r>
       <r>   32.5159    0.0000 </r>
       <r>   35.7478    0.0000 </r>
       <r>   38.1805    0.0000 </r>
       <r>   38.9471    0.0000 </r>
       <r>   40.3652    0.0000 </r>
       <r>   45.2211    0.0000 </r>
       <r>   47.0594    0.0000 </r>
       <r>   48.7087    0.0000 </r>
       <r>   50.7462    0.0000 </r>
       <r>   51.8332    0.0000 </r>
       <r>   54.3429    0.0000 </r>
       <r>   55.2563    0.0000 </r>
       <r>   57.1225    0.0000 </r>
       <r>   58.3575    0.0000 </r>
       <r>   59.9089    0.0000 </r>
       <r>   60.5613    0.0000 </r>
       <r>   61.3650    0.0000 </r>
       <r>   62.0879    0.0000 </r>
       <r>   62.9920    0.0000 </r>
       <r>   64.0492    0.0000 </r>
       <r>   64.5289    0.0000 </r>
      </set>
      <set comment="kpoint 11">
       <r>    2.2115    1.0000 </r>
       <r>    2.2776    1.0000 </r>
       <r>    2.4172    1.0000 </r>
       <r>    4.4604    1.0000 </r>
       <r>    4.5324    1.0000 </r>
       <r>    4.8316    1.0000 </r>
       <r>    4.9720    1.0000 </r>
       <r>    6.8924   -0.0000 </r>
       <r>    7.1722   -0.0000 </r>
       <r>    7.1927   -0.0000 </r>
       <r>    9.3134   -0.0000 </r>
       <r>   11.2995   -0.0000 </r>
       <r>   16.5565    0.0000 </r>
       <r>   17.3804    0.0000 </r>
       <r>   19.4930    0.0000 </r>
       <r>   20.5351    0.0000 </r>
       <r>   21.8981    0.0000 </r>
       <r>   27.3999    0.0000 </r>
       <r>   30.5249    0.0000 </r>
       <r>   32.3610    0.0000 </r>
       <r>   35.9658    0.0000 </r>
       <r>   39.1402    0.0000 </r>
       <r>   39.2450    0.0000 </r>
       <r>   40.7045    0.0000 </r>
       <r>   42.9009    0.0000 </r>
       <r>   48.3239    0.0000 </r>
       <r>   48.7639    0.0000 </r>
       <r>   51.5162    0.0000 </r>
       <r>   53.9804    0.0000 </r>
       <r>   54.4261    0.0000 </r>
       <r>   57.5249    0.0000 </r>
       <r>   57.9383    0.0000 </r>
       <r>   58.7336    0.0000 </r>
       <r>   58.8908    0.0000 </r>
       <r>   59.4519    0.0000 </r>
       <r>   61.6171    0.0000 </r>
       <r>   63.9240    0.0000 </r>
       <r>   64.0692    0.0000 </r>
       <r>   64.4699    0.0000 </r>
       <r>   65.6689    0.0000 </r>
      </set>
      <set comment="kpoint 12">
       <r>    0.9231    1.0000 </r>
       <r>    2.9547    1.0000 </r>
       <r>    3.1471    1.0000 </r>
       <r>    3.3977    1.0000 </r>
       <r>    4.5292    1.0000 </r>
       <r>    4.6514    1.0000 </r>
       <r>    5.3528    1.0000 </r>
       <r>    5.4018    1.0000 </r>
       <r>    6.6201   -0.0066 </r>
       <r>    6.8256   -0.0001 </r>
       <r>    7.1161   -0.0000 </r>
       <r>   12.6750    0.0000 </r>
       <r>   13.7598    0.0000 </r>
       <r>   19.9517    0.0000 </r>
       <r>   20.5821    0.0000 </r>
       <r>   25.7908    0.0000 </r>
       <r>   26.8790    0.0000 </r>
       <r>   28.6496    0.0000 </r>
       <r>   29.2791    0.0000 </r>
       <r>   34.1301    0.0000 </r>
       <r>   35.6831    0.0000 </r>
       <r>   39.0552    0.0000 </r>
       <r>   39.2473    0.0000 </r>
       <r>   41.9370    0.0000 </r>
       <r>   42.6539    0.0000 </r>
       <r>   44.5245    0.0000 </r>
       <r>   45.6874    0.0000 </r>
       <r>   50.1848    0.0000 </r>
       <r>   51.0725    0.0000 </r>
       <r>   52.4041    0.0000 </r>
       <r>   52.4310    0.0000 </r>
       <r>   55.8169    0.0000 </r>
       <r>   56.1661    0.0000 </r>
       <r>   58.6315    0.0000 </r>
       <r>   58.9673    0.0000 </r>
       <r>   59.7693    0.0000 </r>
       <r>   60.0576    0.0000 </r>
       <r>   63.4024    0.0000 </r>
       <r>   63.5826    0.0000 </r>
       <r>   65.4608    0.0000 </r>
      </set>
      <set comment="kpoint 13">
       <r>    2.1269    1.0000 </r>
       <r>    2.7044    1.0000 </r>
       <r>    2.9215    1.0000 </r>
       <r>    3.5515    1.0000 </r>
       <r>    4.4211    1.0000 </r>
       <r>    4.7811    1.0000 </r>
       <r>    4.9977    1.0000 </r>
       <r>    5.9140    1.0289 </r>
       <r>    6.7448   -0.0005 </r>
       <r>    7.0660   -0.0000 </r>
       <r>    8.2781   -0.0000 </r>
       <r>   14.3468    0.0000 </r>
       <r>   14.7438    0.0000 </r>
       <r>   17.0847    0.0000 </r>
       <r>   19.0703    0.0000 </r>
       <r>   23.0998    0.0000 </r>
       <r>   25.2344    0.0000 </r>
       <r>   25.4219    0.0000 </r>
       <r>   27.9788    0.0000 </r>
       <r>   36.1433    0.0000 </r>
       <r>   36.2194    0.0000 </r>
       <r>   39.1097    0.0000 </r>
       <r>   41.4761    0.0000 </r>
       <r>   42.4560    0.0000 </r>
       <r>   43.6511    0.0000 </r>
       <r>   45.7084    0.0000 </r>
       <r>   46.8364    0.0000 </r>
       <r>   47.9755    0.0000 </r>
       <r>   51.2220    0.0000 </r>
       <r>   51.7236    0.0000 </r>
       <r>   54.1994    0.0000 </r>
       <r>   57.3008    0.0000 </r>
       <r>   58.5945    0.0000 </r>
       <r>   59.7317    0.0000 </r>
       <r>   61.8532    0.0000 </r>
       <r>   62.0434    0.0000 </r>
       <r>   62.7129    0.0000 </r>
       <r>   63.6118    0.0000 </r>
       <r>   64.4403    0.0000 </r>
       <r>   66.0381    0.0000 </r>
      </set>
      <set comment="kpoint 14">
       <r>    2.5957    1.0000 </r>
       <r>    2.6219    1.0000 </r>
       <r>    2.7048    1.0000 </r>
       <r>    3.9755    1.0000 </r>
       <r>    4.4021    1.0000 </r>
       <r>    4.6531    1.0000 </r>
       <r>    5.0278    1.0000 </r>
       <r>    6.5480   -0.0186 </r>
       <r>    6.6967   -0.0015 </r>
       <r>    7.0728   -0.0000 </r>
       <r>    9.7863   -0.0000 </r>
       <r>   12.6559    0.0000 </r>
       <r>   16.8820    0.0000 </r>
       <r>   17.3829    0.0000 </r>
       <r>   18.2761    0.0000 </r>
       <r>   20.4646    0.0000 </r>
       <r>   22.3550    0.0000 </r>
       <r>   24.8721    0.0000 </r>
       <r>   27.3483    0.0000 </r>
       <r>   36.0578    0.0000 </r>
       <r>   38.1527    0.0000 </r>
       <r>   39.5977    0.0000 </r>
       <r>   41.1521    0.0000 </r>
       <r>   41.9578    0.0000 </r>
       <r>   45.2448    0.0000 </r>
       <r>   46.0301    0.0000 </r>
       <r>   47.8512    0.0000 </r>
       <r>   48.1663    0.0000 </r>
       <r>   51.5031    0.0000 </r>
       <r>   53.0822    0.0000 </r>
       <r>   53.6574    0.0000 </r>
       <r>   57.3373    0.0000 </r>
       <r>   57.6955    0.0000 </r>
       <r>   59.2556    0.0000 </r>
       <r>   62.6023    0.0000 </r>
       <r>   63.7143    0.0000 </r>
       <r>   64.3626    0.0000 </r>
       <r>   64.6119    0.0000 </r>
       <r>   64.8534    0.0000 </r>
       <r>   65.4114    0.0000 </r>
      </set>
      <set comment="kpoint 15">
       <r>    2.7185    1.0000 </r>
       <r>    2.9351    1.0000 </r>
       <r>    3.2437    1.0000 </r>
       <r>    3.2981    1.0000 </r>
       <r>    4.2785    1.0000 </r>
       <r>    4.6446    1.0000 </r>
       <r>    5.0643    1.0000 </r>
       <r>    6.1542    0.7198 </r>
       <r>    6.5949   -0.0099 </r>
       <r>    7.0427   -0.0000 </r>
       <r>    9.8976   -0.0000 </r>
       <r>   14.6891    0.0000 </r>
       <r>   15.2572    0.0000 </r>
       <r>   16.9040    0.0000 </r>
       <r>   17.9765    0.0000 </r>
       <r>   22.3599    0.0000 </r>
       <r>   22.5211    0.0000 </r>
       <r>   24.0370    0.0000 </r>
       <r>   24.8738    0.0000 </r>
       <r>   37.8835    0.0000 </r>
       <r>   38.6597    0.0000 </r>
       <r>   41.7620    0.0000 </r>
       <r>   42.6206    0.0000 </r>
       <r>   43.5968    0.0000 </r>
       <r>   43.6326    0.0000 </r>
       <r>   44.2902    0.0000 </r>
       <r>   46.3846    0.0000 </r>
       <r>   48.7734    0.0000 </r>
       <r>   49.0285    0.0000 </r>
       <r>   52.9081    0.0000 </r>
       <r>   53.1391    0.0000 </r>
       <r>   55.4109    0.0000 </r>
       <r>   57.5142    0.0000 </r>
       <r>   59.4880    0.0000 </r>
       <r>   62.9762    0.0000 </r>
       <r>   64.1261    0.0000 </r>
       <r>   64.2553    0.0000 </r>
       <r>   65.5090    0.0000 </r>
       <r>   65.6236    0.0000 </r>
       <r>   65.7791    0.0000 </r>
      </set>
      <set comment="kpoint 16">
       <r>    2.7544    1.0000 </r>
       <r>    3.1132    1.0000 </r>
       <r>    3.1237    1.0000 </r>
       <r>    3.5886    1.0000 </r>
       <r>    4.3395    1.0000 </r>
       <r>    4.3743    1.0000 </r>
       <r>    5.1985    1.0000 </r>
       <r>    6.4900   -0.0314 </r>
       <r>    6.5410   -0.0202 </r>
       <r>    6.7632   -0.0003 </r>
       <r>   11.6189   -0.0000 </r>
       <r>   12.7586    0.0000 </r>
       <r>   14.8797    0.0000 </r>
       <r>   18.7925    0.0000 </r>
       <r>   18.9652    0.0000 </r>
       <r>   20.2624    0.0000 </r>
       <r>   22.2735    0.0000 </r>
       <r>   22.3877    0.0000 </r>
       <r>   24.2885    0.0000 </r>
       <r>   38.3209    0.0000 </r>
       <r>   40.9513    0.0000 </r>
       <r>   41.9154    0.0000 </r>
       <r>   41.9782    0.0000 </r>
       <r>   42.9113    0.0000 </r>
       <r>   44.5663    0.0000 </r>
       <r>   45.0437    0.0000 </r>
       <r>   47.9999    0.0000 </r>
       <r>   48.1260    0.0000 </r>
       <r>   48.4939    0.0000 </r>
       <r>   51.9998    0.0000 </r>
       <r>   53.4183    0.0000 </r>
       <r>   53.7740    0.0000 </r>
       <r>   57.2178    0.0000 </r>
       <r>   57.9145    0.0000 </r>
       <r>   64.1067    0.0000 </r>
       <r>   64.6240    0.0000 </r>
       <r>   65.6787    0.0000 </r>
       <r>   65.6860    0.0000 </r>
       <r>   65.8194    0.0000 </r>
       <r>   66.0140    0.0000 </r>
      </set>
      <set comment="kpoint 17">
       <r>   -2.2516    1.0000 </r>
       <r>    1.4958    1.0000 </r>
       <r>    4.1890    1.0000 </r>
       <r>    4.7700    1.0000 </r>
       <r>    4.7702    1.0000 </r>
       <r>    5.0413    1.0000 </r>
       <r>    5.0415    1.0000 </r>
       <r>    5.3719    1.0000 </r>
       <r>    5.9487    1.0347 </r>
       <r>    5.9488    1.0347 </r>
       <r>    6.8726   -0.0000 </r>
       <r>    6.8726   -0.0000 </r>
       <r>   13.3066    0.0000 </r>
       <r>   28.2204    0.0000 </r>
       <r>   29.2484    0.0000 </r>
       <r>   31.7363    0.0000 </r>
       <r>   33.6112    0.0000 </r>
       <r>   33.6112    0.0000 </r>
       <r>   34.4305    0.0000 </r>
       <r>   34.4307    0.0000 </r>
       <r>   35.7192    0.0000 </r>
       <r>   37.4110    0.0000 </r>
       <r>   37.4110    0.0000 </r>
       <r>   38.7471    0.0000 </r>
       <r>   40.3816    0.0000 </r>
       <r>   40.3817    0.0000 </r>
       <r>   41.3418    0.0000 </r>
       <r>   44.2882    0.0000 </r>
       <r>   44.2886    0.0000 </r>
       <r>   46.1322    0.0000 </r>
       <r>   46.1324    0.0000 </r>
       <r>   47.9901    0.0000 </r>
       <r>   55.3621    0.0000 </r>
       <r>   59.3594    0.0000 </r>
       <r>   59.3597    0.0000 </r>
       <r>   59.4459    0.0000 </r>
       <r>   59.4470    0.0000 </r>
       <r>   60.3936    0.0000 </r>
       <r>   61.5440    0.0000 </r>
       <r>   61.8564    0.0000 </r>
      </set>
      <set comment="kpoint 18">
       <r>   -1.9390    1.0000 </r>
       <r>    1.7325    1.0000 </r>
       <r>    4.2076    1.0000 </r>
       <r>    4.6428    1.0000 </r>
       <r>    4.6986    1.0000 </r>
       <r>    4.9431    1.0000 </r>
       <r>    4.9907    1.0000 </r>
       <r>    5.2027    1.0000 </r>
       <r>    5.8251    1.0104 </r>
       <r>    5.8558    1.0159 </r>
       <r>    6.9007   -0.0000 </r>
       <r>    7.7804   -0.0000 </r>
       <r>   13.3717    0.0000 </r>
       <r>   27.5956    0.0000 </r>
       <r>   28.6929    0.0000 </r>
       <r>   30.0786    0.0000 </r>
       <r>   30.9901    0.0000 </r>
       <r>   32.8346    0.0000 </r>
       <r>   34.1362    0.0000 </r>
       <r>   35.4427    0.0000 </r>
       <r>   36.5158    0.0000 </r>
       <r>   37.3703    0.0000 </r>
       <r>   37.4605    0.0000 </r>
       <r>   38.2005    0.0000 </r>
       <r>   41.4302    0.0000 </r>
       <r>   41.5087    0.0000 </r>
       <r>   42.3303    0.0000 </r>
       <r>   42.7711    0.0000 </r>
       <r>   45.3783    0.0000 </r>
       <r>   47.3346    0.0000 </r>
       <r>   48.5230    0.0000 </r>
       <r>   50.1458    0.0000 </r>
       <r>   54.4175    0.0000 </r>
       <r>   57.5076    0.0000 </r>
       <r>   58.0309    0.0000 </r>
       <r>   58.8950    0.0000 </r>
       <r>   60.0253    0.0000 </r>
       <r>   60.9989    0.0000 </r>
       <r>   61.9973    0.0000 </r>
       <r>   62.7588    0.0000 </r>
      </set>
      <set comment="kpoint 19">
       <r>   -1.0511    1.0000 </r>
       <r>    2.3020    1.0000 </r>
       <r>    3.7548    1.0000 </r>
       <r>    4.0627    1.0000 </r>
       <r>    4.5359    1.0000 </r>
       <r>    4.9976    1.0000 </r>
       <r>    5.3927    1.0000 </r>
       <r>    5.5677    1.0000 </r>
       <r>    5.6026    1.0001 </r>
       <r>    5.7110    1.0012 </r>
       <r>    6.9432   -0.0000 </r>
       <r>    9.2994   -0.0000 </r>
       <r>   13.6145    0.0000 </r>
       <r>   23.8077    0.0000 </r>
       <r>   28.3011    0.0000 </r>
       <r>   28.3084    0.0000 </r>
       <r>   29.5998    0.0000 </r>
       <r>   29.7226    0.0000 </r>
       <r>   33.4284    0.0000 </r>
       <r>   34.9485    0.0000 </r>
       <r>   35.3521    0.0000 </r>
       <r>   35.6496    0.0000 </r>
       <r>   38.5746    0.0000 </r>
       <r>   39.4554    0.0000 </r>
       <r>   41.7544    0.0000 </r>
       <r>   42.9504    0.0000 </r>
       <r>   44.3794    0.0000 </r>
       <r>   46.6766    0.0000 </r>
       <r>   47.8868    0.0000 </r>
       <r>   50.8477    0.0000 </r>
       <r>   51.4115    0.0000 </r>
       <r>   52.5165    0.0000 </r>
       <r>   53.6003    0.0000 </r>
       <r>   55.8184    0.0000 </r>
       <r>   56.2395    0.0000 </r>
       <r>   57.9751    0.0000 </r>
       <r>   59.6756    0.0000 </r>
       <r>   61.5560    0.0000 </r>
       <r>   62.7601    0.0000 </r>
       <r>   64.3423    0.0000 </r>
      </set>
      <set comment="kpoint 20">
       <r>    0.2237    1.0000 </r>
       <r>    2.6231    1.0000 </r>
       <r>    3.0714    1.0000 </r>
       <r>    3.9975    1.0000 </r>
       <r>    4.3512    1.0000 </r>
       <r>    5.0708    1.0000 </r>
       <r>    5.3262    1.0000 </r>
       <r>    5.7734    1.0044 </r>
       <r>    6.1436    0.7586 </r>
       <r>    6.2867    0.1948 </r>
       <r>    6.9681   -0.0000 </r>
       <r>   10.9053   -0.0000 </r>
       <r>   14.1709    0.0000 </r>
       <r>   19.8829    0.0000 </r>
       <r>   25.2167    0.0000 </r>
       <r>   26.0186    0.0000 </r>
       <r>   27.4900    0.0000 </r>
       <r>   30.0438    0.0000 </r>
       <r>   31.6558    0.0000 </r>
       <r>   33.9312    0.0000 </r>
       <r>   34.0578    0.0000 </r>
       <r>   36.5581    0.0000 </r>
       <r>   36.8900    0.0000 </r>
       <r>   40.1075    0.0000 </r>
       <r>   45.2353    0.0000 </r>
       <r>   46.4330    0.0000 </r>
       <r>   47.5890    0.0000 </r>
       <r>   47.6333    0.0000 </r>
       <r>   51.0039    0.0000 </r>
       <r>   51.3138    0.0000 </r>
       <r>   52.8405    0.0000 </r>
       <r>   54.0467    0.0000 </r>
       <r>   55.2230    0.0000 </r>
       <r>   55.9280    0.0000 </r>
       <r>   57.5414    0.0000 </r>
       <r>   58.6435    0.0000 </r>
       <r>   61.1967    0.0000 </r>
       <r>   61.5070    0.0000 </r>
       <r>   62.9818    0.0000 </r>
       <r>   65.1381    0.0000 </r>
      </set>
      <set comment="kpoint 21">
       <r>    1.3999    1.0000 </r>
       <r>    2.3827    1.0000 </r>
       <r>    2.6835    1.0000 </r>
       <r>    3.9523    1.0000 </r>
       <r>    4.7440    1.0000 </r>
       <r>    4.9244    1.0000 </r>
       <r>    5.1127    1.0000 </r>
       <r>    6.8035   -0.0001 </r>
       <r>    6.8288   -0.0001 </r>
       <r>    6.8596   -0.0000 </r>
       <r>    7.0206   -0.0000 </r>
       <r>   12.2127    0.0000 </r>
       <r>   14.8702    0.0000 </r>
       <r>   17.0611    0.0000 </r>
       <r>   22.0190    0.0000 </r>
       <r>   24.2818    0.0000 </r>
       <r>   24.6999    0.0000 </r>
       <r>   29.4502    0.0000 </r>
       <r>   30.6630    0.0000 </r>
       <r>   32.7615    0.0000 </r>
       <r>   34.8869    0.0000 </r>
       <r>   35.8146    0.0000 </r>
       <r>   37.7007    0.0000 </r>
       <r>   40.5255    0.0000 </r>
       <r>   45.2106    0.0000 </r>
       <r>   48.5563    0.0000 </r>
       <r>   49.2599    0.0000 </r>
       <r>   50.9337    0.0000 </r>
       <r>   51.5529    0.0000 </r>
       <r>   53.5038    0.0000 </r>
       <r>   54.1395    0.0000 </r>
       <r>   55.6124    0.0000 </r>
       <r>   56.3261    0.0000 </r>
       <r>   57.7121    0.0000 </r>
       <r>   60.0944    0.0000 </r>
       <r>   61.2525    0.0000 </r>
       <r>   61.6368    0.0000 </r>
       <r>   62.1800    0.0000 </r>
       <r>   64.6041    0.0000 </r>
       <r>   64.8008    0.0000 </r>
      </set>
      <set comment="kpoint 22">
       <r>    1.8905    1.0000 </r>
       <r>    2.1176    1.0000 </r>
       <r>    2.5643    1.0000 </r>
       <r>    4.0140    1.0000 </r>
       <r>    4.9191    1.0000 </r>
       <r>    4.9903    1.0000 </r>
       <r>    5.1978    1.0000 </r>
       <r>    6.9338   -0.0000 </r>
       <r>    7.2574   -0.0000 </r>
       <r>    7.3558   -0.0000 </r>
       <r>    8.3014   -0.0000 </r>
       <r>   11.4371   -0.0000 </r>
       <r>   15.5564    0.0000 </r>
       <r>   17.0352    0.0000 </r>
       <r>   19.9407    0.0000 </r>
       <r>   21.9604    0.0000 </r>
       <r>   23.3185    0.0000 </r>
       <r>   28.9074    0.0000 </r>
       <r>   30.3462    0.0000 </r>
       <r>   31.9197    0.0000 </r>
       <r>   35.3839    0.0000 </r>
       <r>   36.4900    0.0000 </r>
       <r>   37.8663    0.0000 </r>
       <r>   41.1345    0.0000 </r>
       <r>   43.2373    0.0000 </r>
       <r>   48.8623    0.0000 </r>
       <r>   49.5706    0.0000 </r>
       <r>   52.9796    0.0000 </r>
       <r>   54.1483    0.0000 </r>
       <r>   55.3906    0.0000 </r>
       <r>   56.6354    0.0000 </r>
       <r>   58.0467    0.0000 </r>
       <r>   58.0728    0.0000 </r>
       <r>   59.5518    0.0000 </r>
       <r>   60.3257    0.0000 </r>
       <r>   60.4896    0.0000 </r>
       <r>   63.1313    0.0000 </r>
       <r>   63.3217    0.0000 </r>
       <r>   63.9626    0.0000 </r>
       <r>   64.1562    0.0000 </r>
      </set>
      <set comment="kpoint 23">
       <r>   -1.3365    1.0000 </r>
       <r>    2.1514    1.0000 </r>
       <r>    3.9883    1.0000 </r>
       <r>    4.0947    1.0000 </r>
       <r>    4.7097    1.0000 </r>
       <r>    4.7811    1.0000 </r>
       <r>    5.2839    1.0000 </r>
       <r>    5.4679    1.0000 </r>
       <r>    5.6096    1.0001 </r>
       <r>    5.8240    1.0102 </r>
       <r>    6.9080   -0.0000 </r>
       <r>    8.8828   -0.0000 </r>
       <r>   13.5282    0.0000 </r>
       <r>   25.5746    0.0000 </r>
       <r>   26.6492    0.0000 </r>
       <r>   29.1347    0.0000 </r>
       <r>   30.4920    0.0000 </r>
       <r>   32.2876    0.0000 </r>
       <r>   32.9311    0.0000 </r>
       <r>   33.0823    0.0000 </r>
       <r>   35.3404    0.0000 </r>
       <r>   38.6359    0.0000 </r>
       <r>   39.3324    0.0000 </r>
       <r>   40.0327    0.0000 </r>
       <r>   40.1114    0.0000 </r>
       <r>   41.3185    0.0000 </r>
       <r>   41.8992    0.0000 </r>
       <r>   47.1248    0.0000 </r>
       <r>   48.4986    0.0000 </r>
       <r>   49.2530    0.0000 </r>
       <r>   49.6007    0.0000 </r>
       <r>   53.0750    0.0000 </r>
       <r>   53.0908    0.0000 </r>
       <r>   55.5861    0.0000 </r>
       <r>   57.2179    0.0000 </r>
       <r>   58.8555    0.0000 </r>
       <r>   58.8830    0.0000 </r>
       <r>   61.2807    0.0000 </r>
       <r>   62.8223    0.0000 </r>
       <r>   64.3694    0.0000 </r>
      </set>
      <set comment="kpoint 24">
       <r>   -0.2340    1.0000 </r>
       <r>    2.7093    1.0000 </r>
       <r>    3.3062    1.0000 </r>
       <r>    3.8215    1.0000 </r>
       <r>    4.4657    1.0000 </r>
       <r>    4.9138    1.0000 </r>
       <r>    5.3397    1.0000 </r>
       <r>    5.5298    1.0000 </r>
       <r>    5.9954    1.0306 </r>
       <r>    6.1985    0.5413 </r>
       <r>    6.9087   -0.0000 </r>
       <r>   10.3715   -0.0000 </r>
       <r>   13.9603    0.0000 </r>
       <r>   21.8964    0.0000 </r>
       <r>   24.3930    0.0000 </r>
       <r>   27.1419    0.0000 </r>
       <r>   29.1542    0.0000 </r>
       <r>   30.2179    0.0000 </r>
       <r>   31.9081    0.0000 </r>
       <r>   33.2025    0.0000 </r>
       <r>   34.3313    0.0000 </r>
       <r>   37.9698    0.0000 </r>
       <r>   38.8131    0.0000 </r>
       <r>   40.0248    0.0000 </r>
       <r>   42.5291    0.0000 </r>
       <r>   43.5061    0.0000 </r>
       <r>   45.6860    0.0000 </r>
       <r>   48.5018    0.0000 </r>
       <r>   50.7777    0.0000 </r>
       <r>   51.6166    0.0000 </r>
       <r>   52.4994    0.0000 </r>
       <r>   54.0762    0.0000 </r>
       <r>   54.3414    0.0000 </r>
       <r>   55.7777    0.0000 </r>
       <r>   56.3723    0.0000 </r>
       <r>   57.7392    0.0000 </r>
       <r>   60.0948    0.0000 </r>
       <r>   61.9573    0.0000 </r>
       <r>   63.3387    0.0000 </r>
       <r>   64.2371    0.0000 </r>
      </set>
      <set comment="kpoint 25">
       <r>    1.0714    1.0000 </r>
       <r>    2.6884    1.0000 </r>
       <r>    2.8460    1.0000 </r>
       <r>    3.8390    1.0000 </r>
       <r>    4.4715    1.0000 </r>
       <r>    4.8243    1.0000 </r>
       <r>    5.2319    1.0000 </r>
       <r>    5.8842    1.0221 </r>
       <r>    6.6613   -0.0031 </r>
       <r>    6.8231   -0.0001 </r>
       <r>    7.1023   -0.0000 </r>
       <r>   11.8991    0.0000 </r>
       <r>   14.7857    0.0000 </r>
       <r>   18.2730    0.0000 </r>
       <r>   22.7436    0.0000 </r>
       <r>   23.7949    0.0000 </r>
       <r>   26.8436    0.0000 </r>
       <r>   28.2525    0.0000 </r>
       <r>   32.1088    0.0000 </r>
       <r>   32.7221    0.0000 </r>
       <r>   33.8872    0.0000 </r>
       <r>   37.5495    0.0000 </r>
       <r>   38.9411    0.0000 </r>
       <r>   41.3220    0.0000 </r>
       <r>   44.1334    0.0000 </r>
       <r>   46.1293    0.0000 </r>
       <r>   47.8465    0.0000 </r>
       <r>   49.8362    0.0000 </r>
       <r>   50.8016    0.0000 </r>
       <r>   52.1214    0.0000 </r>
       <r>   54.3666    0.0000 </r>
       <r>   55.2827    0.0000 </r>
       <r>   56.1446    0.0000 </r>
       <r>   57.4689    0.0000 </r>
       <r>   59.2735    0.0000 </r>
       <r>   60.6453    0.0000 </r>
       <r>   61.5749    0.0000 </r>
       <r>   62.2880    0.0000 </r>
       <r>   63.1199    0.0000 </r>
       <r>   64.6104    0.0000 </r>
      </set>
      <set comment="kpoint 26">
       <r>    1.9179    1.0000 </r>
       <r>    2.3778    1.0000 </r>
       <r>    2.6616    1.0000 </r>
       <r>    3.9211    1.0000 </r>
       <r>    4.7813    1.0000 </r>
       <r>    4.8471    1.0000 </r>
       <r>    5.0516    1.0000 </r>
       <r>    6.6862   -0.0019 </r>
       <r>    6.8444   -0.0000 </r>
       <r>    7.1362   -0.0000 </r>
       <r>    8.1351   -0.0000 </r>
       <r>   12.5140    0.0000 </r>
       <r>   15.2217    0.0000 </r>
       <r>   17.0550    0.0000 </r>
       <r>   20.7681    0.0000 </r>
       <r>   21.6995    0.0000 </r>
       <r>   23.7041    0.0000 </r>
       <r>   27.4163    0.0000 </r>
       <r>   31.1797    0.0000 </r>
       <r>   32.4844    0.0000 </r>
       <r>   34.9867    0.0000 </r>
       <r>   37.3261    0.0000 </r>
       <r>   39.7856    0.0000 </r>
       <r>   41.0916    0.0000 </r>
       <r>   44.5556    0.0000 </r>
       <r>   47.1680    0.0000 </r>
       <r>   48.8282    0.0000 </r>
       <r>   50.7523    0.0000 </r>
       <r>   52.6118    0.0000 </r>
       <r>   54.0631    0.0000 </r>
       <r>   55.1794    0.0000 </r>
       <r>   56.9177    0.0000 </r>
       <r>   58.3923    0.0000 </r>
       <r>   59.9017    0.0000 </r>
       <r>   60.9090    0.0000 </r>
       <r>   61.1818    0.0000 </r>
       <r>   62.3476    0.0000 </r>
       <r>   62.8195    0.0000 </r>
       <r>   64.2303    0.0000 </r>
       <r>   64.7043    0.0000 </r>
      </set>
      <set comment="kpoint 27">
       <r>    2.0920    1.0000 </r>
       <r>    2.2239    1.0000 </r>
       <r>    2.6529    1.0000 </r>
       <r>    3.9910    1.0000 </r>
       <r>    4.7669    1.0000 </r>
       <r>    5.0368    1.0000 </r>
       <r>    5.0769    1.0000 </r>
       <r>    6.8360   -0.0000 </r>
       <r>    7.1680   -0.0000 </r>
       <r>    7.1951   -0.0000 </r>
       <r>    9.2602   -0.0000 </r>
       <r>   11.2305   -0.0000 </r>
       <r>   16.3711    0.0000 </r>
       <r>   16.9931    0.0000 </r>
       <r>   20.0286    0.0000 </r>
       <r>   20.7788    0.0000 </r>
       <r>   22.1134    0.0000 </r>
       <r>   27.1232    0.0000 </r>
       <r>   30.7941    0.0000 </r>
       <r>   32.3547    0.0000 </r>
       <r>   35.5961    0.0000 </r>
       <r>   37.4697    0.0000 </r>
       <r>   39.4792    0.0000 </r>
       <r>   42.5209    0.0000 </r>
       <r>   42.5553    0.0000 </r>
       <r>   47.8188    0.0000 </r>
       <r>   49.0300    0.0000 </r>
       <r>   52.0894    0.0000 </r>
       <r>   54.0505    0.0000 </r>
       <r>   54.5298    0.0000 </r>
       <r>   57.1320    0.0000 </r>
       <r>   57.3684    0.0000 </r>
       <r>   58.6128    0.0000 </r>
       <r>   59.1287    0.0000 </r>
       <r>   59.6342    0.0000 </r>
       <r>   62.4013    0.0000 </r>
       <r>   63.9257    0.0000 </r>
       <r>   64.0141    0.0000 </r>
       <r>   64.5796    0.0000 </r>
       <r>   65.2498    0.0000 </r>
      </set>
      <set comment="kpoint 28">
       <r>    0.9635    1.0000 </r>
       <r>    2.9107    1.0000 </r>
       <r>    3.1756    1.0000 </r>
       <r>    3.4152    1.0000 </r>
       <r>    4.5282    1.0000 </r>
       <r>    4.6117    1.0000 </r>
       <r>    5.3295    1.0000 </r>
       <r>    5.4732    1.0000 </r>
       <r>    6.6530   -0.0036 </r>
       <r>    6.7438   -0.0005 </r>
       <r>    7.1580   -0.0000 </r>
       <r>   11.7805    0.0000 </r>
       <r>   14.7770    0.0000 </r>
       <r>   20.0183    0.0000 </r>
       <r>   20.6586    0.0000 </r>
       <r>   25.4143    0.0000 </r>
       <r>   26.4364    0.0000 </r>
       <r>   29.1437    0.0000 </r>
       <r>   29.6354    0.0000 </r>
       <r>   33.0945    0.0000 </r>
       <r>   36.1690    0.0000 </r>
       <r>   39.2147    0.0000 </r>
       <r>   39.8321    0.0000 </r>
       <r>   41.7524    0.0000 </r>
       <r>   42.0353    0.0000 </r>
       <r>   45.1923    0.0000 </r>
       <r>   45.5816    0.0000 </r>
       <r>   49.6693    0.0000 </r>
       <r>   50.4378    0.0000 </r>
       <r>   51.8756    0.0000 </r>
       <r>   54.4075    0.0000 </r>
       <r>   56.0281    0.0000 </r>
       <r>   56.1938    0.0000 </r>
       <r>   58.0286    0.0000 </r>
       <r>   58.6029    0.0000 </r>
       <r>   60.3380    0.0000 </r>
       <r>   60.4920    0.0000 </r>
       <r>   62.8176    0.0000 </r>
       <r>   63.3045    0.0000 </r>
       <r>   63.9209    0.0000 </r>
      </set>
      <set comment="kpoint 29">
       <r>    2.1187    1.0000 </r>
       <r>    2.7036    1.0000 </r>
       <r>    2.9455    1.0000 </r>
       <r>    3.5602    1.0000 </r>
       <r>    4.4347    1.0000 </r>
       <r>    4.7669    1.0000 </r>
       <r>    5.0170    1.0000 </r>
       <r>    5.9385    1.0335 </r>
       <r>    6.6818   -0.0020 </r>
       <r>    7.0914   -0.0000 </r>
       <r>    8.2939   -0.0000 </r>
       <r>   13.2486    0.0000 </r>
       <r>   15.8197    0.0000 </r>
       <r>   17.2520    0.0000 </r>
       <r>   19.1411    0.0000 </r>
       <r>   22.6550    0.0000 </r>
       <r>   24.9842    0.0000 </r>
       <r>   25.7856    0.0000 </r>
       <r>   28.4863    0.0000 </r>
       <r>   34.6424    0.0000 </r>
       <r>   36.7854    0.0000 </r>
       <r>   39.6077    0.0000 </r>
       <r>   41.2264    0.0000 </r>
       <r>   42.5880    0.0000 </r>
       <r>   43.6820    0.0000 </r>
       <r>   44.7985    0.0000 </r>
       <r>   47.6876    0.0000 </r>
       <r>   48.0716    0.0000 </r>
       <r>   50.6566    0.0000 </r>
       <r>   52.7519    0.0000 </r>
       <r>   54.5060    0.0000 </r>
       <r>   57.3469    0.0000 </r>
       <r>   58.5371    0.0000 </r>
       <r>   59.6602    0.0000 </r>
       <r>   61.6394    0.0000 </r>
       <r>   62.0415    0.0000 </r>
       <r>   62.3939    0.0000 </r>
       <r>   63.5039    0.0000 </r>
       <r>   64.2228    0.0000 </r>
       <r>   64.9756    0.0000 </r>
      </set>
      <set comment="kpoint 30">
       <r>    2.4287    1.0000 </r>
       <r>    2.6764    1.0000 </r>
       <r>    2.8820    1.0000 </r>
       <r>    3.8014    1.0000 </r>
       <r>    4.4987    1.0000 </r>
       <r>    4.6515    1.0000 </r>
       <r>    5.1118    1.0000 </r>
       <r>    6.5534   -0.0174 </r>
       <r>    6.6346   -0.0051 </r>
       <r>    7.0896   -0.0000 </r>
       <r>    9.8028   -0.0000 </r>
       <r>   12.5737    0.0000 </r>
       <r>   16.3015    0.0000 </r>
       <r>   17.8986    0.0000 </r>
       <r>   18.2158    0.0000 </r>
       <r>   20.5254    0.0000 </r>
       <r>   22.8392    0.0000 </r>
       <r>   24.4257    0.0000 </r>
       <r>   27.9052    0.0000 </r>
       <r>   35.7138    0.0000 </r>
       <r>   37.2885    0.0000 </r>
       <r>   38.8022    0.0000 </r>
       <r>   41.9860    0.0000 </r>
       <r>   42.7012    0.0000 </r>
       <r>   44.9648    0.0000 </r>
       <r>   45.3453    0.0000 </r>
       <r>   47.8137    0.0000 </r>
       <r>   49.4984    0.0000 </r>
       <r>   51.9404    0.0000 </r>
       <r>   52.9009    0.0000 </r>
       <r>   53.7839    0.0000 </r>
       <r>   57.2990    0.0000 </r>
       <r>   57.5359    0.0000 </r>
       <r>   59.5749    0.0000 </r>
       <r>   61.8030    0.0000 </r>
       <r>   63.5015    0.0000 </r>
       <r>   64.2463    0.0000 </r>
       <r>   64.6186    0.0000 </r>
       <r>   65.2286    0.0000 </r>
       <r>   65.5231    0.0000 </r>
      </set>
      <set comment="kpoint 31">
       <r>    2.7084    1.0000 </r>
       <r>    2.9378    1.0000 </r>
       <r>    3.2214    1.0000 </r>
       <r>    3.3476    1.0000 </r>
       <r>    4.3203    1.0000 </r>
       <r>    4.5807    1.0000 </r>
       <r>    5.0863    1.0000 </r>
       <r>    6.1865    0.5916 </r>
       <r>    6.5314   -0.0224 </r>
       <r>    7.0660   -0.0000 </r>
       <r>    9.9339   -0.0000 </r>
       <r>   14.3644    0.0000 </r>
       <r>   15.3287    0.0000 </r>
       <r>   16.7699    0.0000 </r>
       <r>   18.4738    0.0000 </r>
       <r>   21.9029    0.0000 </r>
       <r>   22.0853    0.0000 </r>
       <r>   24.7187    0.0000 </r>
       <r>   25.4260    0.0000 </r>
       <r>   36.3777    0.0000 </r>
       <r>   39.3608    0.0000 </r>
       <r>   41.3234    0.0000 </r>
       <r>   41.6960    0.0000 </r>
       <r>   43.6139    0.0000 </r>
       <r>   43.6649    0.0000 </r>
       <r>   45.4217    0.0000 </r>
       <r>   47.1770    0.0000 </r>
       <r>   48.7250    0.0000 </r>
       <r>   48.9789    0.0000 </r>
       <r>   53.0279    0.0000 </r>
       <r>   53.6044    0.0000 </r>
       <r>   55.6577    0.0000 </r>
       <r>   57.1875    0.0000 </r>
       <r>   59.7983    0.0000 </r>
       <r>   62.9701    0.0000 </r>
       <r>   64.0388    0.0000 </r>
       <r>   64.0518    0.0000 </r>
       <r>   65.4153    0.0000 </r>
       <r>   65.4825    0.0000 </r>
       <r>   65.8779    0.0000 </r>
      </set>
      <set comment="kpoint 32">
       <r>    2.7468    1.0000 </r>
       <r>    3.1328    1.0000 </r>
       <r>    3.1684    1.0000 </r>
       <r>    3.5472    1.0000 </r>
       <r>    4.3135    1.0000 </r>
       <r>    4.3792    1.0000 </r>
       <r>    5.2124    1.0000 </r>
       <r>    6.4711   -0.0344 </r>
       <r>    6.5126   -0.0267 </r>
       <r>    6.7873   -0.0002 </r>
       <r>   11.6849    0.0000 </r>
       <r>   12.7581    0.0000 </r>
       <r>   14.8954    0.0000 </r>
       <r>   18.3736    0.0000 </r>
       <r>   18.5210    0.0000 </r>
       <r>   20.6305    0.0000 </r>
       <r>   22.1101    0.0000 </r>
       <r>   22.8381    0.0000 </r>
       <r>   24.8925    0.0000 </r>
       <r>   37.3693    0.0000 </r>
       <r>   39.6475    0.0000 </r>
       <r>   41.2226    0.0000 </r>
       <r>   42.0796    0.0000 </r>
       <r>   44.0668    0.0000 </r>
       <r>   44.6365    0.0000 </r>
       <r>   46.2745    0.0000 </r>
       <r>   47.6759    0.0000 </r>
       <r>   48.3972    0.0000 </r>
       <r>   48.9680    0.0000 </r>
       <r>   51.7617    0.0000 </r>
       <r>   53.1407    0.0000 </r>
       <r>   54.1016    0.0000 </r>
       <r>   57.4565    0.0000 </r>
       <r>   58.1178    0.0000 </r>
       <r>   63.9481    0.0000 </r>
       <r>   64.5521    0.0000 </r>
       <r>   65.2873    0.0000 </r>
       <r>   65.6316    0.0000 </r>
       <r>   65.7275    0.0000 </r>
       <r>   66.0339    0.0000 </r>
      </set>
      <set comment="kpoint 33">
       <r>   -2.0273    1.0000 </r>
       <r>    1.3604    1.0000 </r>
       <r>    4.1346    1.0000 </r>
       <r>    4.7531    1.0000 </r>
       <r>    4.7533    1.0000 </r>
       <r>    4.8846    1.0000 </r>
       <r>    4.9990    1.0000 </r>
       <r>    4.9992    1.0000 </r>
       <r>    6.0429    0.9966 </r>
       <r>    6.0429    0.9966 </r>
       <r>    6.8476   -0.0000 </r>
       <r>    6.8477   -0.0000 </r>
       <r>   14.3076    0.0000 </r>
       <r>   26.7115    0.0000 </r>
       <r>   29.2772    0.0000 </r>
       <r>   31.3412    0.0000 </r>
       <r>   33.7753    0.0000 </r>
       <r>   33.7754    0.0000 </r>
       <r>   34.4828    0.0000 </r>
       <r>   34.4830    0.0000 </r>
       <r>   36.9863    0.0000 </r>
[...]
       <r>   20.2426    0.0000 </r>
       <r>   20.9555    0.0000 </r>
       <r>   25.2429    0.0000 </r>
       <r>   26.3046    0.0000 </r>
       <r>   30.5547    0.0000 </r>
       <r>   31.5884    0.0000 </r>
       <r>   33.8632    0.0000 </r>
       <r>   35.3050    0.0000 </r>
       <r>   39.8414    0.0000 </r>
       <r>   40.1728    0.0000 </r>
       <r>   49.1403    0.0000 </r>
       <r>   49.8148    0.0000 </r>
       <r>   50.2183    0.0000 </r>
       <r>   51.8671    0.0000 </r>
       <r>   53.8600    0.0000 </r>
       <r>   54.4843    0.0000 </r>
       <r>   54.9690    0.0000 </r>
       <r>   56.5807    0.0000 </r>
       <r>   58.7039    0.0000 </r>
       <r>   59.4938    0.0000 </r>
       <r>   60.6708    0.0000 </r>
       <r>   61.7244    0.0000 </r>
       <r>   62.8352    0.0000 </r>
       <r>   62.9723    0.0000 </r>
       <r>   63.8019    0.0000 </r>
       <r>   64.1261    0.0000 </r>
      </set>
      <set comment="kpoint 95">
       <r>    2.6890    1.0000 </r>
       <r>    2.7257    1.0000 </r>
       <r>    3.5753    1.0000 </r>
       <r>    3.7758    1.0000 </r>
       <r>    4.1186    1.0000 </r>
       <r>    4.3034    1.0000 </r>
       <r>    5.4018    1.0000 </r>
       <r>    5.5852    1.0000 </r>
       <r>    6.9251   -0.0000 </r>
       <r>    7.0898   -0.0000 </r>
       <r>   10.8051   -0.0000 </r>
       <r>   11.3076   -0.0000 </r>
       <r>   16.7861    0.0000 </r>
       <r>   17.1766    0.0000 </r>
       <r>   18.4012    0.0000 </r>
       <r>   18.7645    0.0000 </r>
       <r>   25.3686    0.0000 </r>
       <r>   26.9138    0.0000 </r>
       <r>   30.7022    0.0000 </r>
       <r>   32.0093    0.0000 </r>
       <r>   33.6193    0.0000 </r>
       <r>   34.6377    0.0000 </r>
       <r>   42.1715    0.0000 </r>
       <r>   42.5562    0.0000 </r>
       <r>   45.9698    0.0000 </r>
       <r>   46.0917    0.0000 </r>
       <r>   52.5495    0.0000 </r>
       <r>   53.3947    0.0000 </r>
       <r>   53.9130    0.0000 </r>
       <r>   54.7908    0.0000 </r>
       <r>   56.2137    0.0000 </r>
       <r>   56.4924    0.0000 </r>
       <r>   57.6094    0.0000 </r>
       <r>   57.8171    0.0000 </r>
       <r>   59.4826    0.0000 </r>
       <r>   60.4331    0.0000 </r>
       <r>   62.7979    0.0000 </r>
       <r>   63.0335    0.0000 </r>
       <r>   63.9497    0.0000 </r>
       <r>   63.9692    0.0000 </r>
      </set>
      <set comment="kpoint 96">
       <r>    2.8797    1.0000 </r>
       <r>    2.9928    1.0000 </r>
       <r>    3.5234    1.0000 </r>
       <r>    3.6097    1.0000 </r>
       <r>    4.1178    1.0000 </r>
       <r>    4.2324    1.0000 </r>
       <r>    5.4521    1.0000 </r>
       <r>    5.5925    1.0001 </r>
       <r>    6.9039   -0.0000 </r>
       <r>    6.9639   -0.0000 </r>
       <r>   12.5714    0.0000 </r>
       <r>   12.6907    0.0000 </r>
       <r>   15.1452    0.0000 </r>
       <r>   15.4466    0.0000 </r>
       <r>   17.7576    0.0000 </r>
       <r>   18.2029    0.0000 </r>
       <r>   27.0606    0.0000 </r>
       <r>   27.6582    0.0000 </r>
       <r>   29.7442    0.0000 </r>
       <r>   30.1653    0.0000 </r>
       <r>   33.3177    0.0000 </r>
       <r>   34.1159    0.0000 </r>
       <r>   43.2303    0.0000 </r>
       <r>   43.8463    0.0000 </r>
       <r>   47.8596    0.0000 </r>
       <r>   48.2612    0.0000 </r>
       <r>   50.1239    0.0000 </r>
       <r>   50.5014    0.0000 </r>
       <r>   53.9943    0.0000 </r>
       <r>   55.1442    0.0000 </r>
       <r>   56.3950    0.0000 </r>
       <r>   57.5306    0.0000 </r>
       <r>   57.7693    0.0000 </r>
       <r>   58.3165    0.0000 </r>
       <r>   59.5964    0.0000 </r>
       <r>   60.5214    0.0000 </r>
       <r>   61.8550    0.0000 </r>
       <r>   61.9833    0.0000 </r>
       <r>   65.5093    0.0000 </r>
       <r>   65.5240    0.0000 </r>
      </set>
     </set>
    </set>
   </array>
  </eigenvalues>
  <separator name="orbital magnetization" >
   <v name="MAGDIPOLOUT">      0.00000000      0.00000000      0.00000000</v>
  </separator>
  <dos>
   <i name="efermi">      6.20829047 </i>
   <total>
    <array>
     <dimension dim="1">gridpoints</dimension>
     <dimension dim="2">spin</dimension>
     <field>energy</field>
     <field>total</field>
     <field>integrated</field>
     <set>
      <set comment="spin 1">
       <r>    -5.7608     0.0000     0.0000 </r>
       <r>    -5.5090     0.0000     0.0000 </r>
       <r>    -5.2572     0.0000     0.0000 </r>
       <r>    -5.0054     0.0000     0.0000 </r>
       <r>    -4.7536     0.0000     0.0000 </r>
       <r>    -4.5018     0.0000     0.0000 </r>
       <r>    -4.2500     0.0000     0.0000 </r>
       <r>    -3.9982    -0.0000    -0.0000 </r>
       <r>    -3.7464    -0.0000    -0.0000 </r>
       <r>    -3.4946    -0.0000    -0.0000 </r>
       <r>    -3.2428    -0.0000    -0.0000 </r>
       <r>    -2.9910    -0.0000    -0.0000 </r>
       <r>    -2.7393    -0.0001    -0.0000 </r>
       <r>    -2.4875    -0.0004    -0.0001 </r>
       <r>    -2.2357     0.0087     0.0021 </r>
       <r>    -1.9839     0.0605     0.0173 </r>
       <r>    -1.7321     0.1045     0.0436 </r>
       <r>    -1.4803     0.0644     0.0598 </r>
       <r>    -1.2285     0.1648     0.1013 </r>
       <r>    -0.9767     0.1872     0.1484 </r>
       <r>    -0.7249     0.1929     0.1970 </r>
       <r>    -0.4731     0.0850     0.2184 </r>
       <r>    -0.2213     0.2888     0.2911 </r>
       <r>     0.0304     0.2834     0.3625 </r>
       <r>     0.2822     0.3257     0.4445 </r>
       <r>     0.5340     0.2922     0.5181 </r>
       <r>     0.7858     0.2179     0.5730 </r>
       <r>     1.0376     0.4877     0.6958 </r>
       <r>     1.2894     0.6475     0.8588 </r>
       <r>     1.5412     0.7943     1.0588 </r>
       <r>     1.7930     1.2045     1.3621 </r>
       <r>     2.0448     1.9794     1.8605 </r>
       <r>     2.2966     2.6879     2.5373 </r>
       <r>     2.5484     2.2978     3.1159 </r>
       <r>     2.8001     3.1204     3.9016 </r>
       <r>     3.0519     2.4265     4.5125 </r>
       <r>     3.3037     3.3662     5.3601 </r>
       <r>     3.5555     3.4340     6.2248 </r>
       <r>     3.8073     3.3998     7.0808 </r>
       <r>     4.0591     2.5582     7.7249 </r>
       <r>     4.3109     2.9590     8.4700 </r>
       <r>     4.5627     4.5073     9.6049 </r>
       <r>     4.8145     4.1867    10.6591 </r>
       <r>     5.0663     4.2969    11.7410 </r>
       <r>     5.3181     4.0075    12.7500 </r>
       <r>     5.5698     4.0391    13.7670 </r>
       <r>     5.8216     3.3752    14.6169 </r>
       <r>     6.0734     3.7313    15.5564 </r>
       <r>     6.3252     3.0802    16.3320 </r>
       <r>     6.5770     3.5894    17.2358 </r>
       <r>     6.8288     5.4785    18.6152 </r>
       <r>     7.0806     5.3468    19.9615 </r>
       <r>     7.3324     4.3097    21.0466 </r>
       <r>     7.5842     0.8214    21.2534 </r>
       <r>     7.8360     0.2597    21.3188 </r>
       <r>     8.0878     0.8162    21.5244 </r>
       <r>     8.3395     0.8890    21.7482 </r>
       <r>     8.5913     0.6906    21.9221 </r>
       <r>     8.8431     0.5648    22.0643 </r>
       <r>     9.0949     0.4664    22.1817 </r>
       <r>     9.3467     0.4050    22.2837 </r>
       <r>     9.5985     0.3925    22.3825 </r>
       <r>     9.8503     0.6947    22.5575 </r>
       <r>    10.1021     0.6717    22.7266 </r>
       <r>    10.3539     0.4022    22.8278 </r>
       <r>    10.6057     0.4018    22.9290 </r>
       <r>    10.8575     0.5241    23.0610 </r>
       <r>    11.1092     0.4905    23.1845 </r>
       <r>    11.3610     0.2499    23.2474 </r>
       <r>    11.6128     0.2964    23.3220 </r>
       <r>    11.8646     0.4090    23.4250 </r>
       <r>    12.1164     0.4383    23.5354 </r>
       <r>    12.3682     0.2628    23.6015 </r>
       <r>    12.6200     0.4276    23.7092 </r>
       <r>    12.8718     0.5958    23.8592 </r>
       <r>    13.1236     0.2406    23.9198 </r>
       <r>    13.3754     0.2888    23.9925 </r>
       <r>    13.6272     0.2653    24.0593 </r>
       <r>    13.8790     0.2051    24.1110 </r>
       <r>    14.1307     0.1325    24.1444 </r>
       <r>    14.3825     0.1689    24.1869 </r>
       <r>    14.6343     0.1435    24.2230 </r>
       <r>    14.8861     0.4951    24.3477 </r>
       <r>    15.1379     0.5062    24.4751 </r>
       <r>    15.3897     0.9041    24.7028 </r>
       <r>    15.6415     0.9194    24.9343 </r>
       <r>    15.8933     0.7748    25.1294 </r>
       <r>    16.1451     0.5871    25.2772 </r>
       <r>    16.3969     0.6552    25.4422 </r>
       <r>    16.6487     0.5692    25.5855 </r>
       <r>    16.9004     0.7156    25.7657 </r>
       <r>    17.1522     0.9895    26.0148 </r>
       <r>    17.4040     0.6880    26.1881 </r>
       <r>    17.6558     0.6004    26.3392 </r>
       <r>    17.9076     0.8644    26.5569 </r>
       <r>    18.1594     0.6129    26.7112 </r>
       <r>    18.4112     0.7763    26.9067 </r>
       <r>    18.6630     0.5927    27.0559 </r>
       <r>    18.9148     0.6697    27.2245 </r>
       <r>    19.1666     0.7291    27.4081 </r>
       <r>    19.4184     0.5070    27.5358 </r>
       <r>    19.6701     0.6106    27.6895 </r>
       <r>    19.9219     0.4715    27.8082 </r>
       <r>    20.1737     0.6166    27.9635 </r>
       <r>    20.4255     0.5720    28.1075 </r>
       <r>    20.6773     0.7415    28.2942 </r>
       <r>    20.9291     0.7578    28.4850 </r>
       <r>    21.1809     0.5826    28.6317 </r>
       <r>    21.4327     0.6786    28.8026 </r>
       <r>    21.6845     0.6738    28.9723 </r>
       <r>    21.9363     0.9794    29.2189 </r>
       <r>    22.1881     1.2453    29.5324 </r>
       <r>    22.4398     0.6820    29.7041 </r>
       <r>    22.6916     0.9599    29.9458 </r>
       <r>    22.9434     1.0466    30.2093 </r>
       <r>    23.1952     0.4373    30.3194 </r>
       <r>    23.4470     0.9101    30.5486 </r>
       <r>    23.6988     0.7686    30.7421 </r>
       <r>    23.9506     1.2754    31.0632 </r>
       <r>    24.2024     1.1322    31.3483 </r>
       <r>    24.4542     0.9985    31.5997 </r>
       <r>    24.7060     0.7259    31.7825 </r>
       <r>    24.9578     1.0482    32.0464 </r>
       <r>    25.2095     0.8722    32.2661 </r>
       <r>    25.4613     1.0247    32.5241 </r>
       <r>    25.7131     1.0317    32.7838 </r>
       <r>    25.9649     0.7990    32.9850 </r>
       <r>    26.2167     0.7804    33.1815 </r>
       <r>    26.4685     0.8425    33.3936 </r>
       <r>    26.7203     0.8376    33.6045 </r>
       <r>    26.9721     1.0869    33.8782 </r>
       <r>    27.2239     0.7168    34.0587 </r>
       <r>    27.4757     0.6261    34.2163 </r>
       <r>    27.7275     0.7897    34.4152 </r>
       <r>    27.9792     0.8565    34.6308 </r>
       <r>    28.2310     0.5847    34.7780 </r>
       <r>    28.4828     0.5324    34.9121 </r>
       <r>    28.7346     0.6097    35.0656 </r>
       <r>    28.9864     0.8846    35.2883 </r>
       <r>    29.2382     0.8464    35.5014 </r>
       <r>    29.4900     0.7775    35.6972 </r>
       <r>    29.7418     0.7564    35.8876 </r>
       <r>    29.9936     0.5704    36.0312 </r>
       <r>    30.2454     1.1917    36.3313 </r>
       <r>    30.4972     1.0805    36.6034 </r>
       <r>    30.7489     0.8232    36.8106 </r>
       <r>    31.0007     0.6991    36.9867 </r>
       <r>    31.2525     0.8047    37.1893 </r>
       <r>    31.5043     0.6757    37.3594 </r>
       <r>    31.7561     0.6989    37.5354 </r>
       <r>    32.0079     0.9528    37.7753 </r>
       <r>    32.2597     1.2719    38.0956 </r>
       <r>    32.5115     0.7647    38.2881 </r>
       <r>    32.7633     0.9664    38.5314 </r>
       <r>    33.0151     0.9465    38.7698 </r>
       <r>    33.2669     1.0974    39.0461 </r>
       <r>    33.5187     1.0351    39.3067 </r>
       <r>    33.7704     1.1409    39.5940 </r>
       <r>    34.0222     1.1125    39.8741 </r>
       <r>    34.2740     1.2287    40.1834 </r>
       <r>    34.5258     0.7940    40.3834 </r>
       <r>    34.7776     0.9660    40.6266 </r>
       <r>    35.0294     1.0737    40.8969 </r>
       <r>    35.2812     0.4886    41.0200 </r>
       <r>    35.5330     0.7696    41.2137 </r>
       <r>    35.7848     0.8556    41.4292 </r>
       <r>    36.0366     0.5246    41.5613 </r>
       <r>    36.2884     0.6371    41.7217 </r>
       <r>    36.5401     0.9520    41.9614 </r>
       <r>    36.7919     0.7456    42.1491 </r>
       <r>    37.0437     0.9703    42.3935 </r>
       <r>    37.2955     1.1594    42.6854 </r>
       <r>    37.5473     1.1919    42.9855 </r>
       <r>    37.7991     0.8912    43.2099 </r>
       <r>    38.0509     0.7217    43.3916 </r>
       <r>    38.3027     0.8543    43.6067 </r>
       <r>    38.5545     0.8826    43.8290 </r>
       <r>    38.8063     0.8097    44.0328 </r>
       <r>    39.0581     0.9791    44.2793 </r>
       <r>    39.3098     0.8799    44.5009 </r>
       <r>    39.5616     1.1969    44.8023 </r>
       <r>    39.8134     1.4361    45.1638 </r>
       <r>    40.0652     0.9133    45.3938 </r>
       <r>    40.3170     0.8807    45.6156 </r>
       <r>    40.5688     1.0288    45.8746 </r>
       <r>    40.8206     0.7196    46.0558 </r>
       <r>    41.0724     1.1726    46.3510 </r>
       <r>    41.3242     1.3727    46.6967 </r>
       <r>    41.5760     1.1303    46.9813 </r>
       <r>    41.8278     1.2528    47.2967 </r>
       <r>    42.0795     1.0790    47.5684 </r>
       <r>    42.3313     0.9965    47.8193 </r>
       <r>    42.5831     1.4980    48.1965 </r>
       <r>    42.8349     1.0108    48.4510 </r>
       <r>    43.0867     0.7615    48.6427 </r>
       <r>    43.3385     0.9745    48.8881 </r>
       <r>    43.5903     0.9140    49.1182 </r>
       <r>    43.8421     0.9037    49.3458 </r>
       <r>    44.0939     0.3923    49.4446 </r>
       <r>    44.3457     0.9389    49.6810 </r>
       <r>    44.5975     0.9614    49.9231 </r>
       <r>    44.8492     1.2085    50.2273 </r>
       <r>    45.1010     1.2386    50.5392 </r>
       <r>    45.3528     1.1828    50.8370 </r>
       <r>    45.6046     0.9895    51.0862 </r>
       <r>    45.8564     0.8014    51.2880 </r>
       <r>    46.1082     0.8595    51.5044 </r>
       <r>    46.3600     1.4850    51.8783 </r>
       <r>    46.6118     1.0928    52.1534 </r>
       <r>    46.8636     1.2141    52.4591 </r>
       <r>    47.1154     0.8204    52.6657 </r>
       <r>    47.3672     0.6834    52.8378 </r>
       <r>    47.6189     0.9264    53.0711 </r>
       <r>    47.8707     1.8403    53.5344 </r>
       <r>    48.1225     1.7807    53.9828 </r>
       <r>    48.3743     1.1690    54.2771 </r>
       <r>    48.6261     1.0785    54.5487 </r>
       <r>    48.8779     1.1784    54.8454 </r>
       <r>    49.1297     0.9994    55.0970 </r>
       <r>    49.3815     0.9010    55.3239 </r>
       <r>    49.6333     0.9798    55.5706 </r>
       <r>    49.8851     1.1291    55.8549 </r>
       <r>    50.1369     1.1120    56.1349 </r>
       <r>    50.3887     1.0582    56.4013 </r>
       <r>    50.6404     1.1205    56.6835 </r>
       <r>    50.8922     1.3370    57.0201 </r>
       <r>    51.1440     1.4161    57.3767 </r>
       <r>    51.3958     1.0210    57.6338 </r>
       <r>    51.6476     1.2858    57.9575 </r>
       <r>    51.8994     1.5616    58.3507 </r>
       <r>    52.1512     1.2579    58.6674 </r>
       <r>    52.4030     0.8957    58.8929 </r>
       <r>    52.6548     1.4585    59.2602 </r>
       <r>    52.9066     1.2801    59.5825 </r>
       <r>    53.1584     1.1474    59.8714 </r>
       <r>    53.4101     0.9958    60.1221 </r>
       <r>    53.6619     1.1104    60.4017 </r>
       <r>    53.9137     1.2915    60.7269 </r>
       <r>    54.1655     2.1406    61.2659 </r>
       <r>    54.4173     2.0442    61.7806 </r>
       <r>    54.6691     1.3845    62.1292 </r>
       <r>    54.9209     0.8125    62.3338 </r>
       <r>    55.1727     1.5218    62.7169 </r>
       <r>    55.4245     1.3456    63.0557 </r>
       <r>    55.6763     1.7389    63.4936 </r>
       <r>    55.9281     1.4638    63.8622 </r>
       <r>    56.1798     1.4236    64.2206 </r>
       <r>    56.4316     1.3974    64.5724 </r>
       <r>    56.6834     1.2987    64.8994 </r>
       <r>    56.9352     1.6150    65.3061 </r>
       <r>    57.1870     1.8948    65.7832 </r>
       <r>    57.4388     2.0491    66.2991 </r>
       <r>    57.6906     1.5326    66.6850 </r>
       <r>    57.9424     1.2385    66.9968 </r>
       <r>    58.1942     1.4465    67.3611 </r>
       <r>    58.4460     1.1949    67.6619 </r>
       <r>    58.6978     1.5312    68.0475 </r>
       <r>    58.9495     1.3020    68.3753 </r>
       <r>    59.2013     1.2716    68.6955 </r>
       <r>    59.4531     0.9392    68.9320 </r>
       <r>    59.7049     1.7203    69.3651 </r>
       <r>    59.9567     1.9305    69.8512 </r>
       <r>    60.2085     1.7959    70.3034 </r>
       <r>    60.4603     1.4618    70.6715 </r>
       <r>    60.7121     1.6948    71.0982 </r>
       <r>    60.9639     1.7369    71.5355 </r>
       <r>    61.2157     1.8130    71.9920 </r>
       <r>    61.4675     1.5213    72.3751 </r>
       <r>    61.7192     1.9945    72.8773 </r>
       <r>    61.9710     1.7865    73.3271 </r>
       <r>    62.2228     1.5446    73.7160 </r>
       <r>    62.4746     1.5365    74.1029 </r>
       <r>    62.7264     1.4542    74.4690 </r>
       <r>    62.9782     2.5460    75.1101 </r>
       <r>    63.2300     2.2431    75.6749 </r>
       <r>    63.4818     1.8354    76.1370 </r>
       <r>    63.7336     1.7770    76.5845 </r>
       <r>    63.9854     2.0549    77.1019 </r>
       <r>    64.2372     2.3968    77.7054 </r>
       <r>    64.4889     2.1382    78.2437 </r>
       <r>    64.7407     1.6406    78.6568 </r>
       <r>    64.9925     1.6576    79.0742 </r>
       <r>    65.2443     1.1325    79.3594 </r>
       <r>    65.4961     0.8174    79.5652 </r>
       <r>    65.7479     1.1371    79.8515 </r>
       <r>    65.9997     0.3457    79.9385 </r>
       <r>    66.2515     0.1315    79.9716 </r>
       <r>    66.5033     0.1122    79.9999 </r>
       <r>    66.7551     0.0013    80.0002 </r>
       <r>    67.0069    -0.0009    80.0000 </r>
       <r>    67.2587    -0.0000    80.0000 </r>
       <r>    67.5104    -0.0000    80.0000 </r>
       <r>    67.7622    -0.0000    80.0000 </r>
       <r>    68.0140     0.0000    80.0000 </r>
       <r>    68.2658     0.0000    80.0000 </r>
       <r>    68.5176     0.0000    80.0000 </r>
       <r>    68.7694     0.0000    80.0000 </r>
       <r>    69.0212     0.0000    80.0000 </r>
       <r>    69.2730     0.0000    80.0000 </r>
       <r>    69.5248     0.0000    80.0000 </r>
       <r>    69.7766     0.0000    80.0000 </r>
      </set>
     </set>
    </array>
   </total>
  </dos>
 </calculation>
 <structure name="finalpos" >
  <crystal>
   <varray name="basis" >
    <v>       2.42320000       0.00000000       0.00000000 </v>
    <v>      -1.21160000       2.09855276       0.00000000 </v>
    <v>       0.00000000       0.00000000       4.26400000 </v>
   </varray>
   <i name="volume">     21.68334842 </i>
   <varray name="rec_basis" >
    <v>       0.41267745       0.23825944       0.00000000 </v>
    <v>       0.00000000       0.47651888       0.00000000 </v>
    <v>       0.00000000       0.00000000       0.23452158 </v>
   </varray>
  </crystal>
  <varray name="positions" >
   <v>       0.00000000       0.00000000       0.00000000 </v>
   <v>       0.33333333       0.66666667       0.50000000 </v>
  </varray>
 </structure>
</modeling>
