unknown system                          
   1.00000000000000     
     2.283400    0.000000    0.000000
    -1.141700    1.977482    0.000000
     0.000000    0.000000    3.977820
   Fe
     2
Direct
  0.000000  0.000000  0.000000
  0.333333  0.666667  0.500000
 
   20   20   32
  150.61      143.02      122.52      94.788      66.237      41.870      24.396      14.277      10.046      8.9174    
  8.6119      8.9175      10.046      14.277      24.396      41.870      66.237      94.788      122.52      143.02    
  143.02      143.02      129.01      105.05      77.262      51.324      31.019      17.874      11.335      9.1896    
  8.6017      8.6016      9.1894      11.336      17.873      31.018      51.323      77.265      105.06      129.02    
  122.53      128.98      122.52      105.05      81.328      56.838      35.978      21.190      12.858      9.5395    
  8.6118      8.3209      8.6113      9.5396      12.859      21.189      35.975      56.836      81.330      105.06    
  94.785      104.98      104.98      94.788      77.262      56.838      37.817      23.180      14.102      9.9386    
  8.6334      8.1123      8.1121      8.6333      9.9392      14.103      23.180      37.815      56.834      77.258    
  66.229      77.163      81.192      77.170      66.237      51.324      35.978      23.180      14.582      10.213    
  8.6555      7.9853      7.7470      7.9852      8.6555      10.213      14.585      23.183      35.978      51.319    
  41.869      51.244      56.697      56.699      51.248      41.870      31.019      21.190      14.102      10.213    
  8.6665      7.9284      7.5359      7.5361      7.9282      8.6655      10.212      14.105      21.195      31.023    
  24.402      30.993      35.900      37.714      35.897      30.988      24.396      17.874      12.858      9.9386    
  8.6555      7.9284      7.4683      7.3153      7.4687      7.9277      8.6529      9.9361      12.859      17.878    
  14.277      17.891      21.197      23.169      23.166      21.191      17.886      14.277      11.335      9.5395    
  8.6334      7.9853      7.5359      7.3153      7.3158      7.5369      7.9851      8.6307      9.5348      11.331    
  10.040      11.368      12.918      14.171      14.651      14.169      12.918      11.372      10.046      9.1896    
  8.6118      8.1123      7.7470      7.5360      7.4687      7.5369      7.7492      8.1148      8.6117      9.1855    
  8.9172      9.2278      9.6150      10.043      10.333      10.334      10.046      9.6197      9.2318      8.9174    
  8.6017      8.3209      8.1121      7.9852      7.9282      7.9277      7.9850      8.1148      8.3260      8.6057    
  8.6177      8.6484      8.6952      8.7489      8.7951      8.8162      8.7976      8.7515      8.6948      8.6443    
  8.6118      8.6015      8.6114      8.6333      8.6555      8.6655      8.6529      8.6307      8.6118      8.6057    
  8.9172      8.6484      8.4102      8.2371      8.1376      8.0972      8.0977      8.1377      8.2344      8.4052    
  8.6445      8.9174      9.1894      9.5396      9.9392      10.213      10.212      9.9361      9.5349      9.1855    
  10.040      9.2278      8.6952      8.2371      7.9057      7.7176      7.6584      7.7168      7.9035      8.2346    
  8.6952      9.2320      10.046      11.336      12.859      14.103      14.585      14.105      12.859      11.331    
  14.277      11.368      9.6150      8.7489      8.1376      7.7176      7.5130      7.5125      7.7167      8.1377    
  8.7516      9.6196      11.372      14.277      17.873      21.189      23.180      23.183      21.195      17.878    
  24.402      17.891      12.918      10.043      8.7950      8.0972      7.6584      7.5125      7.6580      8.0979    
  8.7976      10.046      12.917      17.887      24.396      31.018      35.975      37.815      35.978      31.023    
  41.869      30.993      21.197      14.171      10.333      8.8162      8.0977      7.7168      7.7167      8.0979    
  8.8171      10.333      14.168      21.192      30.989      41.870      51.323      56.836      56.834      51.319    
  66.229      51.244      35.900      23.169      14.651      10.334      8.7975      8.1377      7.9035      8.1378    
  8.7976      10.333      14.649      23.166      35.900      51.249      66.237      77.265      81.330      77.258    
  94.785      77.163      56.697      37.714      23.166      14.169      10.046      8.7515      8.2345      8.2346    
  8.7516      10.046      14.168      23.166      37.716      56.700      77.167      94.788      105.06      105.06    
  122.53      104.98      81.192      56.699      35.897      21.191      12.918      9.6197      8.6948      8.4052    
  8.6952      9.6196      12.917      21.192      35.900      56.700      81.190      104.98      122.52      129.02    
  143.02      128.98      104.98      77.170      51.248      30.988      17.886      11.372      9.2318      8.6443    
  8.6445      9.2320      11.372      17.887      30.989      51.249      77.167      104.98      128.97      143.02    
  141.63      134.50      115.23      89.132      62.251      39.341      22.996      13.637      9.7994      8.7650    
  8.4667      8.7650      9.7995      13.637      22.996      39.341      62.251      89.132      115.23      134.50    
  134.50      134.50      121.33      98.789      72.618      48.206      29.159      16.929      10.942      9.0127    
  8.4455      8.4453      9.0125      10.942      16.929      29.158      48.205      72.621      98.796      121.34    
  115.24      121.31      115.23      98.789      76.442      53.382      33.787      19.985      12.309      9.3123    
  8.4483      8.1660      8.4479      9.3123      12.309      19.984      33.784      53.380      76.444      98.795    
  89.130      98.737      98.737      89.132      72.618      53.382      35.505      21.825      13.434      9.6555    
  8.4657      7.9609      7.9607      8.4655      9.6560      13.435      21.825      35.503      53.378      72.615    
  62.243      72.549      76.347      72.555      62.251      48.206      33.787      21.825      13.869      9.8933    
  8.4845      7.8370      7.6082      7.8370      8.4845      9.8940      13.871      21.828      33.787      48.201    
  39.340      48.161      53.297      53.299      48.164      39.341      29.159      19.985      13.434      9.8933    
  8.4932      7.7818      7.4057      7.4058      7.7817      8.4923      9.8931      13.436      19.990      29.162    
  23.002      29.167      33.771      35.476      33.769      29.163      22.996      16.929      12.309      9.6555    
  8.4845      7.7818      7.3410      7.1951      7.3414      7.7812      8.4822      9.6532      12.309      16.933    
  13.637      16.978      20.052      21.892      21.889      20.047      16.974      13.637      10.942      9.3123    
  8.4657      7.8370      7.4056      7.1950      7.1956      7.4065      7.8368      8.4632      9.3080      10.938    
  9.7937      11.003      12.423      13.578      14.021      13.576      12.423      11.007      9.7994      9.0127    
  8.4483      7.9609      7.6082      7.4058      7.3414      7.4065      7.6102      7.9632      8.4483      9.0088    
  8.7648      9.0779      9.4400      9.8326      10.098      10.098      9.8354      9.4443      9.0815      8.7650    
  8.4455      8.1660      7.9607      7.8370      7.7817      7.7812      7.8368      7.9632      8.1707      8.4492    
  8.4721      8.5180      8.5822      8.6524      8.7091      8.7327      8.7114      8.6547      8.5818      8.5142    
  8.4667      8.4453      8.4479      8.4656      8.4845      8.4924      8.4822      8.4632      8.4483      8.4492    
  8.7648      8.5180      8.3051      8.1561      8.0752      8.0448      8.0453      8.0754      8.1537      8.3004    
  8.5144      8.7650      9.0125      9.3123      9.6560      9.8940      9.8931      9.6532      9.3080      9.0088    
  9.7936      9.0779      8.5822      8.1561      7.8529      7.6836      7.6309      7.6829      7.8509      8.1538    
  8.5822      9.0817      9.7995      10.942      12.309      13.435      13.871      13.436      12.309      10.938    
  13.637      11.003      9.4400      8.6524      8.0752      7.6836      7.4945      7.4940      7.6828      8.0754    
  8.6548      9.4442      11.007      13.637      16.929      19.984      21.825      21.828      19.990      16.933    
  23.002      16.978      12.423      9.8326      8.7091      8.0448      7.6309      7.4940      7.6305      8.0455    
  8.7114      9.8349      12.423      16.974      22.996      29.158      33.784      35.503      33.787      29.162    
  39.340      29.167      20.052      13.578      10.098      8.7327      8.0453      7.6829      7.6827      8.0455    
  8.7335      10.098      13.575      20.047      29.164      39.341      48.205      53.380      53.378      48.201    
  62.243      48.161      33.771      21.892      14.021      10.098      8.7114      8.0753      7.8509      8.0754    
  8.7114      10.098      14.019      21.889      33.771      48.165      62.251      72.621      76.444      72.615    
  89.130      72.549      53.297      35.476      21.889      13.576      9.8354      8.6547      8.1537      8.1539    
  8.6548      9.8349      13.575      21.889      35.478      53.300      72.553      89.132      98.796      98.795    
  115.24      98.737      76.347      53.299      33.769      20.047      12.423      9.4443      8.5818      8.3004    
  8.5822      9.4442      12.423      20.047      33.771      53.300      76.345      98.731      115.23      121.34    
  134.50      121.31      98.737      72.555      48.164      29.163      16.974      11.007      9.0815      8.5142    
  8.5144      9.0817      11.007      16.974      29.164      48.165      72.553      98.731      121.30      134.50    
  117.82      111.89      95.859      74.086      51.663      32.672      19.365      12.020      9.1827      8.3509    
  8.0752      8.3509      9.1827      12.020      19.365      32.672      51.663      74.087      95.859      111.89    
  111.90      111.89      100.93      82.126      60.271      39.951      24.293      14.513      9.9616      8.5465    
  8.0258      8.0256      8.5463      9.9618      14.513      24.293      39.951      60.273      82.131      100.94    
  95.863      100.93      95.859      82.126      63.448      44.218      28.031      16.877      10.927      8.7367    
  8.0075      7.7509      8.0071      8.7367      10.928      16.876      28.029      44.217      63.450      82.130    
  74.085      82.123      82.124      74.087      60.271      44.218      29.425      18.316      11.743      8.9460    
  8.0103      7.5537      7.5536      8.0101      8.9463      11.743      18.316      29.423      44.215      60.268    
  51.657      60.280      63.461      60.285      51.663      39.951      28.031      18.316      12.062      9.0947    
  8.0203      7.4360      7.2337      7.4360      8.0204      9.0951      12.064      18.318      28.031      39.948    
  32.672      39.999      44.284      44.285      40.002      32.672      24.293      16.877      11.743      9.0946    
  8.0253      7.3838      7.0528      7.0529      7.3838      8.0247      9.0945      11.745      16.881      24.296    
  19.370      24.391      28.179      29.587      28.177      24.388      19.365      14.513      10.927      8.9460    
  8.0204      7.3838      6.9954      6.8685      6.9958      7.3833      8.0186      8.9442      10.928      14.516    
  12.020      14.642      17.098      18.582      18.580      17.094      14.639      12.020      9.9616      8.7367    
  8.0103      7.4360      7.0527      6.8685      6.8688      7.0534      7.4359      8.0084      8.7333      9.9587    
  9.1780      10.095      11.181      12.076      12.422      12.075      11.181      10.098      9.1827      8.5465    
  8.0075      7.5538      7.2337      7.0529      6.9958      7.0534      7.2351      7.5555      8.0074      8.5434    
  8.3507      8.6773      8.9914      9.2992      9.5025      9.5031      9.3013      8.9947      8.6802      8.3509    
  8.0258      7.7509      7.5536      7.4360      7.3838      7.3833      7.4358      7.5555      7.7547      8.0287    
  8.0795      8.1599      8.2614      8.3650      8.4444      8.4751      8.4462      8.3667      8.2610      8.1569    
  8.0752      8.0256      8.0071      8.0101      8.0204      8.0247      8.0186      8.0084      8.0075      8.0287    
  8.3507      8.1599      8.0070      7.9118      7.8702      7.8600      7.8605      7.8704      7.9099      8.0033    
  8.1571      8.3509      8.5463      8.7367      8.9463      9.0951      9.0945      8.9442      8.7333      8.5434    
  9.1780      8.6773      8.2614      7.9118      7.6724      7.5439      7.5050      7.5435      7.6710      7.9101    
  8.2614      8.6804      9.1827      9.9618      10.928      11.743      12.064      11.745      10.928      9.9587    
  12.020      10.095      8.9914      8.3650      7.8702      7.5439      7.3895      7.3892      7.5433      7.8704    
  8.3668      8.9947      10.098      12.020      14.513      16.876      18.316      18.318      16.881      14.516    
  19.370      14.642      11.181      9.2991      8.4444      7.8601      7.5051      7.3892      7.5047      7.8605    
  8.4462      9.3009      11.180      14.639      19.365      24.293      28.029      29.423      28.031      24.296    
  32.672      24.391      17.098      12.076      9.5025      8.4751      7.8605      7.5435      7.5433      7.8605    
  8.4757      9.5027      12.074      17.095      24.389      32.672      39.951      44.217      44.215      39.948    
  51.656      39.999      28.179      18.582      12.422      9.5031      8.4462      7.8704      7.6710      7.8704    
  8.4462      9.5027      12.421      18.581      28.179      40.002      51.663      60.273      63.450      60.268    
  74.085      60.280      44.284      29.587      18.581      12.075      9.3012      8.3667      7.9099      7.9101    
  8.3668      9.3009      12.074      18.581      29.589      44.287      60.283      74.087      82.131      82.130    
  95.863      82.123      63.461      44.285      28.177      17.094      11.181      8.9947      8.2610      8.0033    
  8.2614      8.9947      11.180      17.095      28.179      44.287      63.460      82.118      95.859      100.94    
  111.90      100.93      82.124      60.285      40.002      24.388      14.639      10.098      8.6802      8.1569    
  8.1571      8.6804      10.098      14.639      24.389      40.002      60.283      82.118      100.92      111.89    
  86.731      82.355      70.499      54.397      37.898      24.164      14.905      10.146      8.4527      7.7868    
  7.5496      7.7868      8.4527      10.146      14.905      24.164      37.898      54.397      70.499      82.355    
  82.357      82.355      74.237      60.307      44.159      29.318      18.201      11.634      8.8433      7.9154    
  7.4643      7.4642      7.9153      8.8435      11.634      18.200      29.317      44.160      60.311      74.241    
  70.502      74.261      70.499      60.307      46.477      32.366      20.752      13.104      9.3370      8.0242    
  7.4129      7.1974      7.4126      8.0242      9.3374      13.104      20.751      32.365      46.478      60.310    
  54.395      60.370      60.370      54.397      44.159      32.366      21.712      14.020      9.7739      8.1072    
  7.3885      7.0071      7.0069      7.3883      8.1073      9.7743      14.020      21.711      32.364      44.157    
  37.894      44.270      46.630      44.273      37.898      29.318      20.752      14.020      9.9494      8.1626    
  7.3802      6.8922      6.7282      6.8923      7.3802      8.1628      9.9502      14.021      20.752      29.316    
  24.164      29.483      32.623      32.624      29.485      24.164      18.201      13.104      9.7739      8.1626    
  7.3787      6.8404      6.5726      6.5728      6.8405      7.3783      8.1625      9.7752      13.107      18.203    
  14.908      18.410      21.104      22.115      21.103      18.408      14.905      11.634      9.3370      8.1072    
  7.3802      6.8404      6.5236      6.4219      6.5239      6.8402      7.3791      8.1061      9.3374      11.636    
  10.146      11.860      13.514      14.531      14.530      13.512      11.858      10.146      8.8433      8.0242    
  7.3885      6.8923      6.5726      6.4219      6.4221      6.5730      6.8921      7.3872      8.0221      8.8414    
  8.4495      9.0618      9.7563      10.333      10.558      10.332      9.7562      9.0639      8.4527      7.9154    
  7.4129      7.0071      6.7282      6.5728      6.5239      6.5730      6.7289      7.0081      7.4129      7.9134    
  7.7867      8.1228      8.4269      8.6647      8.8064      8.8067      8.6660      8.4290      8.1247      7.7868    
  7.4643      7.1974      7.0069      6.8923      6.8405      6.8402      6.8921      7.0081      7.1999      7.4663    
  7.5524      7.6688      7.8031      7.9323      8.0275      8.0632      8.0286      7.9334      7.8028      7.6668    
  7.5496      7.4642      7.4126      7.3883      7.3802      7.3783      7.3791      7.3872      7.4129      7.4663    
  7.7867      7.6688      7.5846      7.5440      7.5379      7.5442      7.5446      7.5381      7.5428      7.5822    
  7.6670      7.7868      7.9153      8.0242      8.1073      8.1628      8.1625      8.1061      8.0221      7.9134    
  8.4495      8.1228      7.8031      7.5440      7.3731      7.2848      7.2589      7.2846      7.3723      7.5430    
  7.8031      8.1249      8.4527      8.8435      9.3373      9.7743      9.9502      9.7752      9.3373      8.8414    
  10.146      9.0618      8.4269      7.9323      7.5379      7.2848      7.1671      7.1670      7.2845      7.5380    
  7.9335      8.4290      9.0637      10.146      11.634      13.104      14.020      14.021      13.107      11.636    
  14.908      11.860      9.7562      8.6647      8.0275      7.5442      7.2589      7.1669      7.2586      7.5444    
  8.0286      8.6658      9.7559      11.858      14.905      18.200      20.751      21.711      20.752      18.203    
  24.164      18.410      13.514      10.333      8.8064      8.0632      7.5446      7.2846      7.2844      7.5444    
  8.0635      8.8065      10.332      13.512      18.408      24.164      29.317      32.365      32.364      29.316    
  37.894      29.483      21.104      14.531      10.558      8.8067      8.0286      7.5380      7.3723      7.5380    
  8.0286      8.8065      10.557      14.530      21.104      29.485      37.898      44.160      46.478      44.157    
  54.395      44.270      32.623      22.115      14.530      10.332      8.6659      7.9334      7.5428      7.5430    
  7.9335      8.6658      10.331      14.530      22.116      32.625      44.272      54.397      60.311      60.310    
  70.502      60.370      46.630      32.624      21.103      13.512      9.7562      8.4290      7.8028      7.5822    
  7.8031      8.4290      9.7559      13.512      21.104      32.625      46.629      60.366      70.499      74.241    
  82.357      74.261      60.370      44.273      29.485      18.408      11.858      9.0639      8.1247      7.6668    
  7.6670      8.1249      9.0637      11.858      18.408      29.485      44.272      60.366      74.257      82.355    
  56.441      53.574      45.821      35.362      24.834      16.400      11.109      8.6790      7.7518      7.2073    
  7.0207      7.2073      7.7518      8.6790      11.109      16.400      24.834      35.362      45.821      53.574    
  53.575      53.574      48.248      39.147      28.731      19.426      12.835      9.3022      7.9303      7.2542    
  6.8970      6.8969      7.2541      7.9305      9.3025      12.835      19.426      28.731      39.149      48.250    
  45.823      48.294      45.821      39.147      30.184      21.249      14.224      9.9608      8.0849      7.2944    
  6.8048      6.6394      6.8045      7.2943      8.0851      9.9609      14.224      21.249      30.185      39.149    
  35.361      39.268      39.268      35.362      28.731      21.249      14.756      10.389      8.2203      7.3191    
  6.7432      6.4512      6.4510      6.7430      7.3191      8.2204      10.389      14.756      21.248      28.730    
  24.832      28.931      30.461      28.932      24.834      19.426      14.224      10.389      8.2768      7.3294    
  6.7085      6.3329      6.2106      6.3330      6.7085      7.3294      8.2770      10.389      14.224      19.425    
  16.400      19.694      21.674      21.675      19.695      16.400      12.835      9.9608      8.2203      7.3294    
  6.6974      6.2771      6.0760      6.0762      6.2773      6.6973      7.3293      8.2209      9.9622      12.837    
  11.111      13.142      14.755      15.369      14.755      13.141      11.109      9.3022      8.0848      7.3191    
  6.7085      6.2771      6.0333      5.9565      6.0336      6.2771      6.7081      7.3186      8.0851      9.3033    
  8.6788      9.6153      10.537      11.116      11.115      10.536      9.6144      8.6790      7.9303      7.2943    
  6.7432      6.3329      6.0760      5.9565      5.9565      6.0761      6.3328      6.7426      7.2933      7.9293    
  7.7501      8.2281      8.6560      8.9846      9.1106      8.9841      8.6560      8.2293      7.7518      7.2542    
  6.8048      6.4512      6.2106      6.0762      6.0336      6.0761      6.2108      6.4516      6.8048      7.2531    
  7.2072      7.5358      7.8395      8.0724      8.1984      8.1985      8.0729      7.8405      7.5368      7.2073    
  6.8970      6.6394      6.4511      6.3330      6.2773      6.2771      6.3328      6.4516      6.6407      6.8980    
  7.0222      7.1710      7.3298      7.4749      7.5781      7.6159      7.5786      7.4753      7.3295      7.1699    
  7.0207      6.8969      6.8045      6.7430      6.7085      6.6974      6.7081      6.7426      6.8048      6.8980    
  7.2072      7.1710      7.1577      7.1694      7.1949      7.2151      7.2154      7.1950      7.1688      7.1564    
  7.1700      7.2073      7.2541      7.2943      7.3190      7.3294      7.3293      7.3186      7.2933      7.2531    
  7.7500      7.5358      7.3298      7.1694      7.0689      7.0203      7.0070      7.0205      7.0687      7.1689    
  7.3298      7.5369      7.7518      7.9305      8.0851      8.2204      8.2770      8.2209      8.0851      7.9293    
  8.6788      8.2281      7.8396      7.4749      7.1949      7.0203      6.9409      6.9408      7.0203      7.1950    
  7.4755      7.8406      8.2291      8.6790      9.3025      9.9609      10.389      10.389      9.9622      9.3033    
  11.111      9.6153      8.6560      8.0724      7.5781      7.2152      7.0070      6.9408      7.0067      7.2151    
  7.5786      8.0729      8.6557      9.6141      11.109      12.835      14.224      14.756      14.224      12.837    
  16.400      13.142      10.537      8.9846      8.1984      7.6159      7.2154      7.0204      7.0203      7.2151    
  7.6160      8.1985      8.9840      10.536      13.141      16.400      19.426      21.249      21.248      19.425    
  24.832      19.694      14.755      11.116      9.1106      8.1985      7.5786      7.1950      7.0687      7.1950    
  7.5786      8.1985      9.1104      11.116      14.755      19.695      24.834      28.731      30.185      28.730    
  35.361      28.931      21.674      15.369      11.115      8.9841      8.0729      7.4753      7.1688      7.1689    
  7.4755      8.0729      8.9840      11.116      15.370      21.675      28.932      35.362      39.149      39.149    
  45.823      39.268      30.461      21.675      14.755      10.536      8.6560      7.8405      7.3295      7.1564    
  7.3298      7.8406      8.6557      10.536      14.755      21.675      30.460      39.266      45.821      48.250    
  53.575      48.294      39.268      28.932      19.695      13.141      9.6144      8.2293      7.5368      7.1699    
  7.1700      7.5369      8.2291      9.6141      13.141      19.695      28.932      39.266      48.292      53.574    
  32.568      30.943      26.587      20.829      15.265      11.123      8.8044      7.7765      7.1238      6.7206    
  6.5878      6.7206      7.1238      7.7765      8.8044      11.123      15.265      20.829      26.587      30.943    
  30.944      30.943      27.928      22.850      17.215      12.462      9.4058      7.9426      7.1972      6.6805    
  6.4238      6.4237      6.6804      7.1973      7.9429      9.4060      12.462      17.215      22.851      27.928    
  26.587      27.986      26.587      22.850      17.955      13.300      9.9251      8.0990      7.2409      6.6463    
  6.2890      6.1728      6.2888      6.6462      7.2411      8.0992      9.9251      13.300      17.955      22.850    
  20.829      23.002      23.002      20.829      17.215      13.300      10.131      8.2060      7.2578      6.6180    
  6.1888      5.9823      5.9823      6.1886      6.6179      7.2578      8.2059      10.131      13.300      17.215    
  15.265      17.466      18.301      17.466      15.265      12.462      9.9251      8.2060      7.2612      6.6011    
  6.1267      5.8563      5.7707      5.8564      6.1267      6.6010      7.2610      8.2060      9.9251      12.462    
  11.123      12.790      13.822      13.822      12.790      11.123      9.4058      8.0990      7.2578      6.6011    
  6.1056      5.7941      5.6495      5.6497      5.7943      6.1056      6.6010      7.2580      8.0996      9.4063    
  8.8049      9.7748      10.567      10.873      10.566      9.7745      8.8044      7.9426      7.2409      6.6180    
  6.1267      5.7941      5.6103      5.5528      5.6105      5.7942      6.1266      6.6179      7.2411      7.9431    
  7.7763      8.3198      8.7932      9.0824      9.0823      8.7929      8.3196      7.7765      7.1972      6.6463    
  6.1888      5.8563      5.6495      5.5528      5.5528      5.6495      5.8563      6.1886      6.6460      7.1969    
  7.1232      7.5645      7.9395      8.1898      8.2775      8.1896      7.9395      7.5650      7.1238      6.6805    
  6.2890      5.9823      5.7707      5.6496      5.6105      5.6495      5.7706      5.9824      6.2890      6.6800    
  6.7205      7.0355      7.3299      7.5594      7.6851      7.6850      7.5593      7.3302      7.0358      6.7206    
  6.4238      6.1728      5.9823      5.8564      5.7943      5.7942      5.8562      5.9824      6.1733      6.4241    
  6.5883      6.7719      6.9583      7.1228      7.2372      7.2783      7.2372      7.1228      6.9581      6.7715    
  6.5878      6.4237      6.2889      6.1886      6.1267      6.1057      6.1266      6.1886      6.2890      6.4241    
  6.7205      6.7719      6.8368      6.9095      6.9752      7.0148      7.0149      6.9753      6.9094      6.8364    
  6.7716      6.7206      6.6804      6.6462      6.6179      6.6010      6.6010      6.6179      6.6460      6.6800    
  7.1231      7.0355      6.9583      6.9095      6.8913      6.8913      6.8938      6.8915      6.8914      6.9095    
  6.9583      7.0359      7.1238      7.1974      7.2411      7.2578      7.2611      7.2580      7.2411      7.1969    
  7.7763      7.5645      7.3300      7.1228      6.9752      6.8913      6.8566      6.8566      6.8914      6.9753    
  7.1229      7.3302      7.5648      7.7765      7.9429      8.0992      8.2059      8.2060      8.0996      7.9431    
  8.8049      8.3198      7.9395      7.5593      7.2372      7.0148      6.8938      6.8566      6.8936      7.0147    
  7.2372      7.5594      7.9393      8.3193      8.8044      9.4060      9.9251      10.131      9.9251      9.4063    
  11.123      9.7748      8.7932      8.1898      7.6851      7.2783      7.0149      6.8915      6.8913      7.0147    
  7.2783      7.6852      8.1897      8.7927      9.7743      11.123      12.462      13.300      13.300      12.462    
  15.265      12.790      10.567      9.0824      8.2775      7.6850      7.2372      6.9753      6.8914      6.9753    
  7.2372      7.6852      8.2776      9.0824      10.567      12.790      15.265      17.215      17.955      17.215    
  20.829      17.466      13.822      10.873      9.0823      8.1896      7.5593      7.1228      6.9094      6.9095    
  7.1229      7.5594      8.1897      9.0824      10.874      13.822      17.466      20.829      22.851      22.850    
  26.587      23.002      18.301      13.822      10.566      8.7929      7.9395      7.3302      6.9581      6.8364    
  6.9583      7.3302      7.9393      8.7927      10.567      13.822      18.301      23.002      26.587      27.928    
  30.944      27.986      23.002      17.466      12.790      9.7745      8.3196      7.5650      7.0358      6.7715    
  6.7716      7.0359      7.5648      8.3193      9.7743      12.790      17.466      23.002      27.985      30.943    
  17.389      16.653      14.715      12.262      10.062      8.5862      7.7519      7.1218      6.6576      6.3890    
  6.3032      6.3890      6.6576      7.1217      7.7519      8.5862      10.062      12.262      14.715      16.653    
  16.653      16.653      15.288      13.060      10.728      8.9316      7.8616      7.1690      6.6222      6.2649    
  6.0954      6.0953      6.2649      6.6222      7.1692      7.8619      8.9316      10.728      13.060      15.288    
  14.715      15.347      14.715      13.060      10.990      9.1632      7.9453      7.1917      6.5902      6.1626    