unknown system                          
   1.00000000000000     
     2.283400    0.000000    0.000000
    -1.141700    1.977482    0.000000
     0.000000    0.000000    3.977820
   Fe
     2
Direct
  0.000000  0.000000  0.000000
  0.333333  0.666667  0.500000
 
   20   20   32
 0.15060980614E+03 0.14301707483E+03 0.12252296853E+03 0.94787961278E+02 0.66237375012E+02
 0.41870250169E+02 0.24396048216E+02 0.14277191375E+02 0.10046105812E+02 0.89173928697E+01
 0.86118510278E+01 0.89174541314E+01 0.10046161647E+02 0.14277192620E+02 0.24396021103E+02
 0.41870254799E+02 0.66237424339E+02 0.94788008786E+02 0.12252297493E+03 0.14301705769E+03
 0.14302100864E+03 0.14301706039E+03 0.12900839768E+03 0.10505359170E+03 0.77262295932E+02
 0.51324284073E+02 0.31019393435E+02 0.17873639876E+02 0.11335389391E+02 0.91896059630E+01
 0.86017488090E+01 0.86015523648E+01 0.91894146445E+01 0.11335521779E+02 0.17873351791E+02
 0.31018017318E+02 0.51323323120E+02 0.77264959526E+02 0.10506110210E+03 0.12901719255E+03
 0.12252881389E+03 0.12898268348E+03 0.12252297395E+03 0.10505360720E+03 0.81327613428E+02
 0.56838181679E+02 0.35977699731E+02 0.21189864914E+02 0.12858480815E+02 0.95395377480E+01
 0.86117751564E+01 0.83208849353E+01 0.86113412075E+01 0.95395678290E+01 0.12858859574E+02
 0.21189045020E+02 0.35975166064E+02 0.56836447555E+02 0.81330106988E+02 0.10506019459E+03
 0.94785333618E+02 0.10498326703E+03 0.10498416035E+03 0.94787991033E+02 0.77262287408E+02
 0.56838166740E+02 0.37816843160E+02 0.23180280211E+02 0.14102483111E+02 0.99386243272E+01
 0.86333990929E+01 0.81123114133E+01 0.81121003049E+01 0.86332540508E+01 0.99392283703E+01
 0.14103443332E+02 0.23180154947E+02 0.37814583086E+02 0.56834264255E+02 0.77258333402E+02
 0.66229034225E+02 0.77163373506E+02 0.81192351304E+02 0.77169954715E+02 0.66237374651E+02
 0.51324254746E+02 0.35977711708E+02 0.23180293525E+02 0.14582378156E+02 0.10212545800E+02
 0.86554666533E+01 0.79852598306E+01 0.77470498958E+01 0.79852001908E+01 0.86554909264E+01
 0.10213324123E+02 0.14584530402E+02 0.23182830116E+02 0.35977717220E+02 0.51319372164E+02
 0.41869286625E+02 0.51244399975E+02 0.56696579268E+02 0.56698754671E+02 0.51248332798E+02
 0.41870235525E+02 0.31019398459E+02 0.21189891760E+02 0.14102467665E+02 0.10212534558E+02
 0.86664753164E+01 0.79284189881E+01 0.75359307108E+01 0.75360533651E+01 0.79282049056E+01
 0.86655277440E+01 0.10212355949E+02 0.14105150327E+02 0.21194871662E+02 0.31022936447E+02
 0.24401860060E+02 0.30992802335E+02 0.35899883921E+02 0.37713989394E+02 0.35897373392E+02
 0.30987925866E+02 0.24396036117E+02 0.17873654948E+02 0.12858471073E+02 0.99386011140E+01
 0.86554855064E+01 0.79284282244E+01 0.74683350727E+01 0.73152997591E+01 0.74687142461E+01
 0.79276553222E+01 0.86529397702E+01 0.99361346113E+01 0.12858859574E+02 0.17877721337E+02
 0.14277063237E+02 0.17890787757E+02 0.21196623786E+02 0.23168588829E+02 0.23165943063E+02
 0.21190849623E+02 0.17886437610E+02 0.14277183083E+02 0.11335398983E+02 0.95395234212E+01
 0.86334132513E+01 0.79852790236E+01 0.75359084380E+01 0.73152920532E+01 0.73158477327E+01
 0.75368921560E+01 0.79850708077E+01 0.86307082655E+01 0.95348387435E+01 0.11331441440E+02
 0.10039917978E+02 0.11368157141E+02 0.12917524704E+02 0.14171057633E+02 0.14651208332E+02
 0.14169363136E+02 0.12917519644E+02 0.11372201197E+02 0.10046122499E+02 0.91896114201E+01
 0.86117675764E+01 0.81123235847E+01 0.77470316564E+01 0.75360378211E+01 0.74687397838E+01
 0.75368988847E+01 0.77491963409E+01 0.81147754734E+01 0.86117459186E+01 0.91854636892E+01
 0.89172370471E+01 0.92278391416E+01 0.96149709331E+01 0.10043290886E+02 0.10332940170E+02
 0.10333891521E+02 0.10046352874E+02 0.96196805847E+01 0.92317754276E+01 0.89174104072E+01
 0.86017297448E+01 0.83208809863E+01 0.81121065004E+01 0.79851913224E+01 0.79282267183E+01
 0.79276678985E+01 0.79850427463E+01 0.81147694974E+01 0.83259604883E+01 0.86057204044E+01
 0.86176899857E+01 0.86484474298E+01 0.86951602041E+01 0.87489400693E+01 0.87950547534E+01
 0.88161521338E+01 0.87975586569E+01 0.87514640848E+01 0.86947997864E+01 0.86443362863E+01
 0.86118433660E+01 0.86015382280E+01 0.86113628653E+01 0.86332583006E+01 0.86554855064E+01
 0.86655327101E+01 0.86529154971E+01 0.86306983568E+01 0.86117751564E+01 0.86057253319E+01
 0.89172083463E+01 0.86484441770E+01 0.84102271759E+01 0.82370950182E+01 0.81375731909E+01
 0.80971547653E+01 0.80976894872E+01 0.81376832632E+01 0.82344402337E+01 0.84052198869E+01
 0.86445463774E+01 0.89174429681E+01 0.91894268967E+01 0.95395785615E+01 0.99392042279E+01
 0.10213318208E+02 0.10212361276E+02 0.99361336821E+01 0.95348638028E+01 0.91854704843E+01
 0.10039894027E+02 0.92278363270E+01 0.86951865362E+01 0.82370959947E+01 0.79056772846E+01
 0.77176336846E+01 0.76583640599E+01 0.77168186375E+01 0.79035449026E+01 0.82346247572E+01
 0.86951726141E+01 0.92319925119E+01 0.10046154382E+02 0.11335528366E+02 0.12858843901E+02
 0.14103435839E+02 0.14584556485E+02 0.14105158280E+02 0.12858853643E+02 0.11331438435E+02
 0.14277070261E+02 0.11368163693E+02 0.96149919566E+01 0.87489382173E+01 0.81375509135E+01
 0.77176352127E+01 0.75129963993E+01 0.75124704736E+01 0.77166975231E+01 0.81377466722E+01
 0.87515596317E+01 0.96195846149E+01 0.11372080083E+02 0.14277191351E+02 0.17873357472E+02
 0.21189044701E+02 0.23180172411E+02 0.23182834265E+02 0.21194844497E+02 0.17877711946E+02
 0.24401887174E+02 0.17890797323E+02 0.12917516482E+02 0.10043281567E+02 0.87950382142E+01
 0.80971612486E+01 0.76583811141E+01 0.75124668731E+01 0.76579912322E+01 0.80979133754E+01
 0.87975586569E+01 0.10045727378E+02 0.12917114933E+02 0.17886716638E+02 0.24396036117E+02
 0.31018021873E+02 0.35975160552E+02 0.37814576403E+02 0.35977699731E+02 0.31022935979E+02
 0.41869302533E+02 0.30992798895E+02 0.21196598194E+02 0.14171049421E+02 0.10332949432E+02
 0.88161630850E+01 0.80977004726E+01 0.77168086915E+01 0.77166860490E+01 0.80979178775E+01
 0.88171253370E+01 0.10333160969E+02 0.14168415501E+02 0.21191667876E+02 0.30989292092E+02
 0.41870256063E+02 0.51323307110E+02 0.56836439207E+02 0.56834270846E+02 0.51319385482E+02
 0.66229025791E+02 0.51244381529E+02 0.35899871071E+02 0.23168596102E+02 0.14651230829E+02
 0.10333897068E+02 0.87975484772E+01 0.81376720280E+01 0.79035398493E+01 0.81377577143E+01
 0.87975650164E+01 0.10333157254E+02 0.14649102780E+02 0.23166072446E+02 0.35899883655E+02
 0.51249300972E+02 0.66237415544E+02 0.77264962577E+02 0.81330123690E+02 0.77258344977E+02
 0.94785316696E+02 0.77163360131E+02 0.56696589794E+02 0.37714010696E+02 0.23165951519E+02
 0.14169352474E+02 0.10046334561E+02 0.87514616854E+01 0.82344514122E+01 0.82346349591E+01
 0.87515590843E+01 0.10045718384E+02 0.14168413050E+02 0.23166073629E+02 0.37716215386E+02
 0.56700431079E+02 0.77167310133E+02 0.94788021619E+02 0.10506111026E+03 0.10506018724E+03
 0.12252880749E+03 0.10498327792E+03 0.81192367584E+02 0.56698767934E+02 0.35897360808E+02
 0.21190827836E+02 0.12917516482E+02 0.96196935644E+01 0.86948137086E+01 0.84052199302E+01
 0.86951602041E+01 0.96195765710E+01 0.12917119993E+02 0.21191671681E+02 0.35899883921E+02
 0.56700433817E+02 0.81189800148E+02 0.10497666246E+03 0.12252297395E+03 0.12901717135E+03
 0.14302101154E+03 0.12898271063E+03 0.10498416393E+03 0.77169941424E+02 0.51248318239E+02
 0.30987914548E+02 0.17886452201E+02 0.11372221518E+02 0.92317730377E+01 0.86443229429E+01
 0.86445362867E+01 0.92319929366E+01 0.11372093852E+02 0.17886721663E+02 0.30989284214E+02
 0.51249304860E+02 0.77167310216E+02 0.10497665515E+03 0.12897388830E+03 0.14301704615E+03
 0.14163082976E+03 0.13449836743E+03 0.11523251626E+03 0.89132084351E+02 0.62250574369E+02
 0.39340803241E+02 0.22996208635E+02 0.13636773423E+02 0.97994307742E+01 0.87649752687E+01
 0.84666956286E+01 0.87650346922E+01 0.97994854153E+01 0.13636775391E+02 0.22996182125E+02
 0.39340805659E+02 0.62250619183E+02 0.89132128475E+02 0.11523252252E+03 0.13449835168E+03
 0.13450201423E+03 0.13449835327E+03 0.12132874216E+03 0.98788614048E+02 0.72618464813E+02
 0.48205761925E+02 0.29159133564E+02 0.16929138812E+02 0.10941853014E+02 0.90126693224E+01
 0.84454711608E+01 0.84452792896E+01 0.90124824536E+01 0.10941999367E+02 0.16928929631E+02
 0.29157913902E+02 0.48204891841E+02 0.72620922461E+02 0.98795560033E+02 0.12133689050E+03
 0.11523793773E+03 0.12130985459E+03 0.11523252157E+03 0.98788629231E+02 0.76441982421E+02
 0.53381720987E+02 0.33786643380E+02 0.19985060705E+02 0.12308564846E+02 0.93123224805E+01
 0.84482823511E+01 0.81659826129E+01 0.84478526234E+01 0.93123348384E+01 0.12308940602E+02
 0.19984346792E+02 0.33784320154E+02 0.53380102581E+02 0.76444269862E+02 0.98794725233E+02
 0.89129659472E+02 0.98736639533E+02 0.98737462066E+02 0.89132113479E+02 0.72618456452E+02
 0.53381706381E+02 0.35505271080E+02 0.21825441416E+02 0.13433780602E+02 0.96554871350E+01
 0.84657044038E+01 0.79609311819E+01 0.79607254458E+01 0.84655461450E+01 0.96560211896E+01
 0.13434647799E+02 0.21825302813E+02 0.35503153780E+02 0.53378074236E+02 0.72614790910E+02
 0.62242863668E+02 0.72548908065E+02 0.76346989590E+02 0.72554999005E+02 0.62250574012E+02
 0.48205733251E+02 0.33786655106E+02 0.21825454414E+02 0.13869434591E+02 0.98933154116E+01
 0.84845134721E+01 0.78370235925E+01 0.76082291543E+01 0.78369827594E+01 0.84845371279E+01
 0.98940049982E+01 0.13871379500E+02 0.21827771816E+02 0.33786660459E+02 0.48201229293E+02
 0.39339930673E+02 0.48160804686E+02 0.53296730989E+02 0.53298751884E+02 0.48164450522E+02
 0.39340788924E+02 0.29159138473E+02 0.19985086923E+02 0.13433765517E+02 0.98933044578E+01
 0.84932033420E+01 0.77818367830E+01 0.74056705092E+01 0.74058073497E+01 0.77816831481E+01
 0.84923480539E+01 0.98931300123E+01 0.13436241816E+02 0.19989719127E+02 0.29162451436E+02
 0.23001597336E+02 0.29167042013E+02 0.33771282929E+02 0.35475672072E+02 0.33768978971E+02
 0.29162543086E+02 0.22996196771E+02 0.16929153549E+02 0.12308555348E+02 0.96554645005E+01
 0.84845318449E+01 0.77818457665E+01 0.73410108784E+01 0.71950555279E+01 0.73413872082E+01
 0.77811611162E+01 0.84821968235E+01 0.96531992325E+01 0.12308940602E+02 0.16932945134E+02
 0.13636631990E+02 0.16977772372E+02 0.20052037916E+02 0.21891533876E+02 0.21889091269E+02
 0.20046712151E+02 0.16973772699E+02 0.13636765344E+02 0.10941862413E+02 0.93123084750E+01
 0.84657181871E+01 0.78370422793E+01 0.74056488192E+01 0.71950480328E+01 0.71955518831E+01
 0.74065389345E+01 0.78368393583E+01 0.84632205430E+01 0.93079808910E+01 0.10938193418E+02
 0.97936690017E+01 0.11003427631E+02 0.12423227566E+02 0.13577851978E+02 0.14021237403E+02
 0.13576269936E+02 0.12423222602E+02 0.11007198374E+02 0.97994470863E+01 0.90126745976E+01
 0.84482749332E+01 0.79609430752E+01 0.76082113969E+01 0.74057922204E+01 0.73414120811E+01
 0.74065454952E+01 0.76101682559E+01 0.79631944489E+01 0.84482538262E+01 0.90088199054E+01
 0.87648231108E+01 0.90778749214E+01 0.94399751430E+01 0.98326267712E+01 0.10097612163E+02
 0.10098472849E+02 0.98354221787E+01 0.94443134316E+01 0.90815240723E+01 0.87649923735E+01
 0.84454525647E+01 0.81659788270E+01 0.79607314938E+01 0.78369740991E+01 0.77817043939E+01
 0.77811733785E+01 0.78368120111E+01 0.79631886036E+01 0.81706915429E+01 0.84491534192E+01
 0.84721108394E+01 0.85179846579E+01 0.85821571392E+01 0.86523747977E+01 0.87090670561E+01
 0.87326645132E+01 0.87113645839E+01 0.86546822010E+01 0.85817993033E+01 0.85141647023E+01
 0.84666881840E+01 0.84452655281E+01 0.84478737304E+01 0.84655502412E+01 0.84845318449E+01
 0.84923529009E+01 0.84821731677E+01 0.84632108559E+01 0.84482823511E+01 0.84491582539E+01
 0.87647950655E+01 0.85179814536E+01 0.83050601284E+01 0.81561131132E+01 0.80752357877E+01
 0.80448180770E+01 0.80453255240E+01 0.80753594986E+01 0.81536617232E+01 0.83004149570E+01
 0.85143694503E+01 0.87650237518E+01 0.90124943945E+01 0.93123452770E+01 0.96559976577E+01
 0.98939992406E+01 0.98931352084E+01 0.96531983351E+01 0.93080053351E+01 0.90088265709E+01
 0.97936456058E+01 0.90778721348E+01 0.85821829075E+01 0.81561140883E+01 0.78528721923E+01
 0.76836032101E+01 0.76308766844E+01 0.76828919839E+01 0.78509433666E+01 0.81538419264E+01
 0.85821692608E+01 0.90817356537E+01 0.97994783315E+01 0.10942005814E+02 0.12308925306E+02
 0.13434640503E+02 0.13871404937E+02 0.13436249605E+02 0.12308934804E+02 0.10938190466E+02
 0.13636638870E+02 0.11003434046E+02 0.94399957079E+01 0.86523730188E+01 0.80752139672E+01
 0.76836047010E+01 0.74944714112E+01 0.74939952546E+01 0.76827574317E+01 0.80754051495E+01
 0.86547922084E+01 0.94442364024E+01 0.11007063822E+02 0.13636774193E+02 0.16928935147E+02
 0.19984346490E+02 0.21825319862E+02 0.21827775866E+02 0.19989692606E+02 0.16932935912E+02
 0.23001623846E+02 0.16977781772E+02 0.12423219503E+02 0.98326176589E+01 0.87090508628E+01
 0.80448244105E+01 0.76308933976E+01 0.74939917155E+01 0.76305067269E+01 0.80454904643E+01
 0.87113645839E+01 0.98348654538E+01 0.12422821399E+02 0.16973974441E+02 0.22996196771E+02
 0.29157918344E+02 0.33784314802E+02 0.35503147221E+02 0.33786643380E+02 0.29162450969E+02
 0.39339946218E+02 0.29167038671E+02 0.20052012862E+02 0.13577843916E+02 0.10097621248E+02
 0.87326752160E+01 0.80453362902E+01 0.76828822300E+01 0.76827461869E+01 0.80454948970E+01
 0.87335460812E+01 0.10097827407E+02 0.13575412913E+02 0.20047425773E+02 0.29163753063E+02
 0.39340806887E+02 0.48204876228E+02 0.53380094401E+02 0.53378080662E+02 0.48201242354E+02
 0.62242855413E+02 0.48160786615E+02 0.33771270366E+02 0.21891540967E+02 0.14021259445E+02
 0.10098478272E+02 0.87113546089E+01 0.80753485194E+01 0.78509384038E+01 0.80754159908E+01
 0.87113708022E+01 0.10097823744E+02 0.14019334860E+02 0.21889234670E+02 0.33771282717E+02
 0.48165325508E+02 0.62250610570E+02 0.72620925455E+02 0.76444286167E+02 0.72614802264E+02
 0.89129642922E+02 0.72548894946E+02 0.53296741316E+02 0.35475692918E+02 0.21889099538E+02
 0.13576259510E+02 0.98354042311E+01 0.86546798953E+01 0.81536726595E+01 0.81538518877E+01
 0.86547916817E+01 0.98348566185E+01 0.13575410550E+02 0.21889235849E+02 0.35477760547E+02
 0.53300318326E+02 0.72552557576E+02 0.89132141053E+02 0.98795568008E+02 0.98794718025E+02
 0.11523793147E+03 0.98736650203E+02 0.76347005541E+02 0.53298764880E+02 0.33768966620E+02
 0.20046690845E+02 0.12423219503E+02 0.94443261489E+01 0.85818129499E+01 0.83004149320E+01
 0.85821571392E+01 0.94442285547E+01 0.12422826363E+02 0.20047429521E+02 0.33771282929E+02
 0.53300320997E+02 0.76344649286E+02 0.98730528070E+02 0.11523252157E+03 0.12133686970E+03
 0.13450201706E+03 0.12130988121E+03 0.98737465566E+02 0.72554986005E+02 0.48164436245E+02
 0.29162532017E+02 0.16973786998E+02 0.11007218229E+02 0.90815217653E+01 0.85141516198E+01
 0.85143595721E+01 0.90817361334E+01 0.11007077261E+02 0.16973979340E+02 0.29163745337E+02
 0.48165329303E+02 0.72552557696E+02 0.98730520900E+02 0.12130170761E+03 0.13449834036E+03
 0.11782115293E+03 0.11189479657E+03 0.95858995923E+02 0.74086479279E+02 0.51662554914E+02
 0.32672246215E+02 0.19365438631E+02 0.12020350960E+02 0.91826655952E+01 0.83508726825E+01
 0.80752118165E+01 0.83509271108E+01 0.91827168555E+01 0.12020354682E+02 0.19365413848E+02
 0.32672243262E+02 0.51662588382E+02 0.74086514794E+02 0.95859001773E+02 0.11189478433E+03
 0.11189768337E+03 0.11189478323E+03 0.10092948049E+03 0.82125567538E+02 0.60270907747E+02
 0.39951414186E+02 0.24293489694E+02 0.14513140208E+02 0.99616302824E+01 0.85464927625E+01
 0.80257859758E+01 0.80256086366E+01 0.85463200891E+01 0.99618079191E+01 0.14513125816E+02
 0.24292670537E+02 0.39950779575E+02 0.60272822964E+02 0.82131023240E+02 0.10093591830E+03
 0.95863294493E+02 0.10092919094E+03 0.95859000949E+02 0.82125581796E+02 0.63448211260E+02
 0.44218310852E+02 0.28030934700E+02 0.16876906991E+02 0.10927184974E+02 0.87367060751E+01
 0.80074697764E+01 0.77509141031E+01 0.80070575763E+01 0.87366749331E+01 0.10927546652E+02
 0.16876462473E+02 0.28029162372E+02 0.44217001234E+02 0.63449958601E+02 0.82130379286E+02
 0.74084588843E+02 0.82123218191E+02 0.82123854637E+02 0.74086506618E+02 0.60270899843E+02
 0.44218297194E+02 0.29424979725E+02 0.18316339509E+02 0.11742838311E+02 0.89459923340E+01
 0.80103270644E+01 0.75537460589E+01 0.75535568959E+01 0.80101394246E+01 0.89463472903E+01
 0.11743464827E+02 0.18316171097E+02 0.29423245768E+02 0.44215384195E+02 0.60267997976E+02
 0.51656507425E+02 0.60280047146E+02 0.63461309366E+02 0.60284842286E+02 0.51662554558E+02
 0.39951387375E+02 0.28030945720E+02 0.18316351606E+02 0.12062471135E+02 0.90946593192E+01
 0.80203443494E+01 0.74360211122E+01 0.72337196208E+01 0.74360266187E+01 0.80203662469E+01
 0.90951219629E+01 0.12063879519E+02 0.18318097048E+02 0.28030950610E+02 0.39947880538E+02
 0.32671609421E+02 0.39998961402E+02 0.44283696141E+02 0.44285306878E+02 0.40001847317E+02
 0.32672232834E+02 0.24293494286E+02 0.16876931415E+02 0.11742824251E+02 0.90946491863E+01
 0.80253102174E+01 0.73837774686E+01 0.70527603781E+01 0.70529291269E+01 0.73837729631E+01
 0.80246937367E+01 0.90944881223E+01 0.11744756938E+02 0.16880639304E+02 0.24296203415E+02
 0.19369706568E+02 0.24391284173E+02 0.28179044222E+02 0.29587391932E+02 0.28177281653E+02
 0.24387779735E+02 0.19365427434E+02 0.14513153988E+02 0.10927176167E+02 0.89459713485E+01
 0.80203613622E+01 0.73837857336E+01 0.69954036225E+01 0.68684641326E+01 0.69957663513E+01
 0.73833268948E+01 0.80185780092E+01 0.89442335666E+01 0.10927546652E+02 0.14516212625E+02
 0.12020179851E+02 0.14642036909E+02 0.17098280893E+02 0.18582403438E+02 0.18580496356E+02
 0.17094135883E+02 0.14638957136E+02 0.12020343489E+02 0.99616391310E+01 0.87366929908E+01
 0.80103397867E+01 0.74360383584E+01 0.70527403445E+01 0.68684572352E+01 0.68688267363E+01
 0.70533881361E+01 0.74358517874E+01 0.80083883045E+01 0.87333067733E+01 0.99587340509E+01
 0.91780384282E+01 0.10094872848E+02 0.11180795122E+02 0.12075942199E+02 0.12422181553E+02
 0.12074660678E+02 0.11180790438E+02 0.10097914445E+02 0.91826808454E+01 0.85464975278E+01
 0.80074628226E+01 0.75537571540E+01 0.72337032304E+01 0.70529151758E+01 0.69957893299E+01
 0.70533942186E+01 0.72351221511E+01 0.75554828473E+01 0.80074432838E+01 0.85434210522E+01
 0.83507324757E+01 0.86773053333E+01 0.89913668886E+01 0.92991532918E+01 0.95025128918E+01
 0.95031386874E+01 0.93012533796E+01 0.89947286813E+01 0.86801941555E+01 0.83508885580E+01
 0.80257687094E+01 0.77509107687E+01 0.75535625189E+01 0.74360185547E+01 0.73837925964E+01
 0.73833382631E+01 0.74358264771E+01 0.75554773752E+01 0.77546517293E+01 0.80287023086E+01
 0.80795045365E+01 0.81599441006E+01 0.82613596948E+01 0.83649619973E+01 0.84444049723E+01
 0.84750841773E+01 0.84461616680E+01 0.83667037426E+01 0.82610147323E+01 0.81568975395E+01
 0.80752049833E+01 0.80255959374E+01 0.80070771151E+01 0.80101430923E+01 0.80203613622E+01
 0.80246982399E+01 0.80185561117E+01 0.80083792499E+01 0.80074697764E+01 0.80287068758E+01
 0.83507063012E+01 0.81599410386E+01 0.80069669003E+01 0.79118106886E+01 0.78702181861E+01
 0.78600456641E+01 0.78604779311E+01 0.78703725574E+01 0.79098954864E+01 0.80032815859E+01
 0.81570857839E+01 0.83509168118E+01 0.85463311465E+01 0.87366845409E+01 0.89463255022E+01
 0.90951166455E+01 0.90944929379E+01 0.89442327639E+01 0.87333294654E+01 0.85434273442E+01
 0.91780166139E+01 0.86773026326E+01 0.82613838562E+01 0.79118116542E+01 0.76724113189E+01
 0.75439095290E+01 0.75050464004E+01 0.75434624815E+01 0.76710097766E+01 0.79100618678E+01
 0.82613709938E+01 0.86803887905E+01 0.91827102914E+01 0.99618139623E+01 0.10927532429E+02
 0.11743458092E+02 0.12063903111E+02 0.11744764262E+02 0.10927541235E+02 0.99587312454E+01
 0.12020186319E+02 0.10094878880E+02 0.89913861472E+01 0.83649604175E+01 0.78701976631E+01
 0.75439109174E+01 0.73895139507E+01 0.73891668895E+01 0.75432978410E+01 0.78703742982E+01
 0.83668465201E+01 0.89946986868E+01 0.10097749804E+02 0.12020353680E+02 0.14513130856E+02
 0.16876462215E+02 0.18316186965E+02 0.18318100820E+02 0.16880614623E+02 0.14516203885E+02
 0.19369731351E+02 0.14642045840E+02 0.11180787513E+02 0.92991447632E+01 0.84443897599E+01
 0.78600515780E+01 0.75050621482E+01 0.73891635258E+01 0.75046901390E+01 0.78604973341E+01
 0.84461616680E+01 0.93008729602E+01 0.11180404730E+02 0.14638968089E+02 0.19365427434E+02
 0.24292674661E+02 0.28029157482E+02 0.29423239558E+02 0.28030934700E+02 0.24296202947E+02
 0.32671623930E+02 0.24391281109E+02 0.17098257375E+02 0.12075934563E+02 0.95025214725E+01
 0.84750941790E+01 0.78604880787E+01 0.75434532729E+01 0.75432872440E+01 0.78605015678E+01
 0.84757283254E+01 0.95027110375E+01 0.12074038393E+02 0.17094583336E+02 0.24388589793E+02
 0.32672244390E+02 0.39950765090E+02 0.44216993528E+02 0.44215390146E+02 0.39947892864E+02
 0.51656499681E+02 0.39998944400E+02 0.28179032478E+02 0.18582410011E+02 0.12422202295E+02
 0.95031437575E+01 0.84461522732E+01 0.78703623036E+01 0.76710050670E+01 0.78703845675E+01
 0.84461674856E+01 0.95027075269E+01 0.12420804747E+02 0.18580671188E+02 0.28179044166E+02
 0.40002481157E+02 0.51662580282E+02 0.60272825795E+02 0.63449973773E+02 0.60268008710E+02
 0.74084573358E+02 0.60280034751E+02 0.44283705899E+02 0.29587411481E+02 0.18580504090E+02
 0.12074650927E+02 0.93012364683E+01 0.83667016976E+01 0.79099057335E+01 0.79100711493E+01
 0.83668460550E+01 0.93008645774E+01 0.12074036278E+02 0.18580672349E+02 0.29589110080E+02
 0.44286578959E+02 0.60282936365E+02 0.74086526649E+02 0.82131030708E+02 0.82130372495E+02
 0.95863288643E+02 0.82123228209E+02 0.63461324368E+02 0.44285319118E+02 0.28177269965E+02
 0.17094115950E+02 0.11180787513E+02 0.89947406466E+01 0.82610275948E+01 0.80032813790E+01
 0.82613596948E+01 0.89946913935E+01 0.11180409415E+02 0.17094586922E+02 0.28179044222E+02
 0.44286581441E+02 0.63459521128E+02 0.82118409546E+02 0.95859000949E+02 0.10093589866E+03
 0.11189768602E+03 0.10092921601E+03 0.82123857900E+02 0.60284830121E+02 0.40001833849E+02
 0.24387769375E+02 0.14638970607E+02 0.10097932970E+02 0.86801920816E+01 0.81568852082E+01
 0.81570765146E+01 0.86803894174E+01 0.10097762297E+02 0.14638972629E+02 0.24388582496E+02
 0.40002484692E+02 0.60282936595E+02 0.82118402791E+02 0.10092275850E+03 0.11189477364E+03
 0.86730814591E+02 0.82354743334E+02 0.70498887799E+02 0.54396690095E+02 0.37897576744E+02
 0.24164356804E+02 0.14904811105E+02 0.10146308414E+02 0.84526701931E+01 0.77867978358E+01
 0.75495865191E+01 0.77868440519E+01 0.84527145984E+01 0.10146312759E+02 0.14904788923E+02
 0.24164349161E+02 0.37897598227E+02 0.54396715978E+02 0.70498893035E+02 0.82354734989E+02
 0.82356649459E+02 0.82354731228E+02 0.74237142360E+02 0.60307060590E+02 0.44159185972E+02
 0.29317840212E+02 0.18200715177E+02 0.11633761731E+02 0.88433149894E+01 0.79154230413E+01
 0.74643374910E+01 0.74641854745E+01 0.79152748447E+01 0.88435162292E+01 0.11633958371E+02
 0.18200373955E+02 0.29317495242E+02 0.44160409793E+02 0.60310605490E+02 0.74241377142E+02
 0.70501736206E+02 0.74261425415E+02 0.70498892411E+02 0.60307073452E+02 0.46477297220E+02
 0.32366078947E+02 0.20751909904E+02 0.13104238436E+02 0.93370264079E+01 0.80242471908E+01
 0.74129352367E+01 0.71974381967E+01 0.74125646274E+01 0.80241709615E+01 0.93373534424E+01
 0.13104109749E+02 0.20750829912E+02 0.32365173830E+02 0.46478363385E+02 0.60310202824E+02
 0.54395482341E+02 0.60369609281E+02 0.60370009371E+02 0.54396714730E+02 0.44159178727E+02
 0.32366066713E+02 0.21712096770E+02 0.14020057997E+02 0.97739310571E+01 0.81071948684E+01
 0.73884750410E+01 0.70070508963E+01 0.70068904758E+01 0.73882670232E+01 0.81073378378E+01
 0.97742634702E+01 0.14019866181E+02 0.21710871468E+02 0.32364090331E+02 0.44157261687E+02
 0.37893660900E+02 0.44269894467E+02 0.46630210841E+02 0.44273024181E+02 0.37897576363E+02
 0.29317816199E+02 0.20751919890E+02 0.14020068743E+02 0.99494073123E+01 0.81626431004E+01
 0.73801833129E+01 0.68922418439E+01 0.67281777938E+01 0.68922974048E+01 0.73802025803E+01
 0.81628354463E+01 0.99501584529E+01 0.14021099818E+02 0.20751924068E+02 0.29315580772E+02
 0.24164010109E+02 0.29482802899E+02 0.32623110156E+02 0.32624188780E+02 0.29484708244E+02
 0.24164344827E+02 0.18200719311E+02 0.13104260165E+02 0.97739185082E+01 0.81626341973E+01
 0.73786615628E+01 0.68403573579E+01 0.65726264040E+01 0.65728196765E+01 0.68405128169E+01
 0.73783360093E+01 0.81624963939E+01 0.97751580542E+01 0.13106765937E+02 0.18202627477E+02
 0.14907632095E+02 0.18410237392E+02 0.21104417247E+02 0.22115059083E+02 0.21103337797E+02
 0.18408001799E+02 0.14904800911E+02 0.11633774063E+02 0.93370186181E+01 0.81071763603E+01
 0.73801983098E+01 0.68403645543E+01 0.65235632321E+01 0.64218867619E+01 0.65238902630E+01
 0.68401736058E+01 0.73791084245E+01 0.81061043601E+01 0.93373534424E+01 0.11635872682E+02
 0.10146114118E+02 0.11860131962E+02 0.13514249249E+02 0.14531206953E+02 0.14529984197E+02
 0.13511609712E+02 0.11858216803E+02 0.10146301838E+02 0.88433230234E+01 0.80242355051E+01
 0.73884861957E+01 0.68922569404E+01 0.65726088376E+01 0.64218807552E+01 0.64220852443E+01
 0.65729600878E+01 0.68920987637E+01 0.73872320280E+01 0.80220524674E+01 0.88414031182E+01
 0.84495242582E+01 0.90617761020E+01 0.97562529193E+01 0.10332720037E+02 0.10557504029E+02
 0.10331833896E+02 0.97562486632E+01 0.90638620047E+01 0.84526838731E+01 0.79154270646E+01
 0.74129289890E+01 0.70070607769E+01 0.67281634317E+01 0.65728074787E+01 0.65239104012E+01
 0.65729654564E+01 0.67289247805E+01 0.70081241122E+01 0.74129117965E+01 0.79133603749E+01
 0.77866787210E+01 0.81227930002E+01 0.84268535896E+01 0.86647310215E+01 0.88063615838E+01
 0.88066986055E+01 0.86659629967E+01 0.84289740752E+01 0.81247006825E+01 0.77868118815E+01
 0.74643222036E+01 0.71974354951E+01 0.70068954460E+01 0.68922902506E+01 0.68405300440E+01
 0.68401836364E+01 0.68920765130E+01 0.70081192018E+01 0.71999206629E+01 0.74662652752E+01
 0.75524296903E+01 0.76688489785E+01 0.78030895607E+01 0.79323411048E+01 0.80275340499E+01
 0.80631754393E+01 0.80286084618E+01 0.79333746407E+01 0.78027774195E+01 0.76668063449E+01
 0.75495805796E+01 0.74641743467E+01 0.74125818199E+01 0.73882700805E+01 0.73801983098E+01
 0.73783399845E+01 0.73790891571E+01 0.73872239305E+01 0.74129352367E+01 0.74662694349E+01
 0.77866553552E+01 0.76688461419E+01 0.75846068554E+01 0.75440388824E+01 0.75378733741E+01
 0.75442367268E+01 0.75445638967E+01 0.75380524227E+01 0.75428089703E+01 0.75821623507E+01
 0.76669662996E+01 0.77868347318E+01 0.79152845840E+01 0.80241793446E+01 0.81073186822E+01
 0.81628307691E+01 0.81625006198E+01 0.81061037126E+01 0.80220725361E+01 0.79133660909E+01
 0.84495048142E+01 0.81227904547E+01 0.78031113156E+01 0.75440398191E+01 0.73731002628E+01
 0.72847787360E+01 0.72588814750E+01 0.72846430897E+01 0.73723471737E+01 0.75429514509E+01
 0.78030996272E+01 0.81248660134E+01 0.84527088344E+01 0.88435216645E+01 0.93373408258E+01
 0.97742575605E+01 0.99501792603E+01 0.97751646935E+01 0.93373486156E+01 0.88414005196E+01
 0.10146119958E+02 0.90617815747E+01 0.84268708934E+01 0.79323397922E+01 0.75378547796E+01
 0.72847799815E+01 0.71671392596E+01 0.71669512660E+01 0.72844546333E+01 0.75380064469E+01
 0.79335456230E+01 0.84289972006E+01 0.90636735483E+01 0.10146312023E+02 0.11633962678E+02
 0.13104109569E+02 0.14019880287E+02 0.14021103177E+02 0.13106744028E+02 0.11635864657E+02
 0.14907654276E+02 0.11860140188E+02 0.97562459983E+01 0.86647233469E+01 0.80275202959E+01
 0.75442420330E+01 0.72588957999E+01 0.71669481603E+01 0.72585592673E+01 0.75444240590E+01
 0.80286084618E+01 0.86657950229E+01 0.97559014941E+01 0.11858020805E+02 0.14904800911E+02
 0.18200377615E+02 0.20750825734E+02 0.21710865777E+02 0.20751909904E+02 0.18202627004E+02
 0.24164023060E+02 0.18410234743E+02 0.13514228041E+02 0.10332713041E+02 0.88063694078E+01
 0.80631844091E+01 0.75445731337E+01 0.72846346943E+01 0.72844449924E+01 0.75444279897E+01
 0.80635266570E+01 0.88065301928E+01 0.10331500152E+02 0.13511744814E+02 0.18408335384E+02
 0.24164350136E+02 0.29317482455E+02 0.32365166820E+02 0.32364095556E+02 0.29315591999E+02
 0.37893653935E+02 0.29482787498E+02 0.21104406739E+02 0.14531212759E+02 0.10557522833E+02
 0.88067031514E+01 0.80285999345E+01 0.75380432360E+01 0.73723428319E+01 0.75380158547E+01
 0.80286136885E+01 0.88065269147E+01 0.10556771560E+02 0.14530182838E+02 0.21104417435E+02
 0.29485047297E+02 0.37897590881E+02 0.44160412363E+02 0.46478376858E+02 0.44157271502E+02
 0.54395468465E+02 0.44269883151E+02 0.32623119057E+02 0.22115076695E+02 0.14529991129E+02
 0.10331825154E+02 0.86659476199E+01 0.79333729659E+01 0.75428181890E+01 0.75429597329E+01
 0.79335452608E+01 0.86657873207E+01 0.10331498407E+02 0.14530183964E+02 0.22116280872E+02
 0.32625071357E+02 0.44271802551E+02 0.54396726737E+02 0.60310612218E+02 0.60310196690E+02
 0.70501730970E+02 0.60369618292E+02 0.46630224403E+02 0.32624199889E+02 0.21103327100E+02
 0.13511591835E+02 0.97562459983E+01 0.84289848997E+01 0.78027891078E+01 0.75821619120E+01
 0.78030895607E+01 0.84289907214E+01 0.97559057502E+01 0.13511748145E+02 0.21104417247E+02
 0.32625073566E+02 0.46629116685E+02 0.60366473272E+02 0.70498892411E+02 0.74241359293E+02
 0.82356651836E+02 0.74261448140E+02 0.60370012253E+02 0.44273013283E+02 0.29484695999E+02
 0.18407992498E+02 0.11858229043E+02 0.90638785329E+01 0.81246989565E+01 0.76667951595E+01
 0.76669579509E+01 0.81248668329E+01 0.90636846037E+01 0.11858024819E+02 0.18408328731E+02
 0.29485050453E+02 0.44271802969E+02 0.60366467143E+02 0.74257199778E+02 0.82354725260E+02
 0.56441253438E+02 0.53574307443E+02 0.45821181720E+02 0.35361775453E+02 0.24833841486E+02
 0.16400428458E+02 0.11109298820E+02 0.86790252703E+01 0.77517822277E+01 0.72072998868E+01
 0.70206743687E+01 0.72073330370E+01 0.77518128975E+01 0.86790255356E+01 0.11109279744E+02
 0.16400421458E+02 0.24833857494E+02 0.35361795395E+02 0.45821186224E+02 0.53574301499E+02
 0.53575295066E+02 0.53574296834E+02 0.48247564467E+02 0.39147354563E+02 0.28730608761E+02
 0.19426225130E+02 0.12835396132E+02 0.93021538940E+01 0.79303402928E+01 0.72542424377E+01