    2    2    1    1
  0.8980691E+01  0.2283400E-09  0.2283400E-09  0.3977820E-09  0.5000000E-15
  1.000000000000000E-004
  CAR 
 unknown system                          
     16     96     40
 
  0.0000000E+00  0.0000000E+00  0.0000000E+00  0.7513148E-03
    1       -1.207879   1.000000
    2        2.690072   1.000000
    3        5.871579   1.000000
    4        6.522719   1.000000
    5        6.522770   1.000000
    6        6.915642   1.000000
    7        6.915703   1.000000
    8        7.759273   1.000021
    9        7.980226   1.004728
   10        7.980242   1.004729
   11        9.312824  -0.000000
   12        9.312840  -0.000000
   13       17.147470   0.000000
   14       32.782190   0.000000
   15       33.597009   0.000000
   16       36.176781   0.000000
   17       39.362049   0.000000
   18       39.362121   0.000000
   19       40.047953   0.000000
   20       40.048133   0.000000
   21       41.554827   0.000000
   22       42.581741   0.000000
   23       42.581756   0.000000
   24       43.690751   0.000000
   25       46.927814   0.000000
   26       46.927822   0.000000
   27       48.344387   0.000000
   28       51.396027   0.000000
   29       51.396457   0.000000
   30       53.303687   0.000000
   31       53.303881   0.000000
   32       56.445868   0.000000
   33       64.268303   0.000000
   34       64.330790   0.000000
   35       64.779639   0.000000
   36       64.780489   0.000000
   37       66.117443   0.000000
   38       68.241817   0.000000
   39       68.242853   0.000000
   40       71.024186   0.000000
 
  0.9090909E-01 -0.1680014E-17  0.0000000E+00  0.4507889E-02
    1       -0.844791   1.000000
    2        2.962291   1.000000
    3        5.850775   1.000000
    4        6.481718   1.000000
    5        6.724145   1.000000
    6        6.750758   1.000000
    7        6.786214   1.000000
    8        7.126536   1.000000
    9        7.816342   1.000109
   10        7.843595   1.000227
   11        9.357535  -0.000000
   12       10.620693  -0.000000
   13       17.166901   0.000000
   14       31.782071   0.000000
   15       33.941434   0.000000
   16       34.729918   0.000000
   17       36.372537   0.000000
   18       38.352947   0.000000
   19       38.464874   0.000000
   20       41.432480   0.000000
   21       42.102601   0.000000
   22       43.222786   0.000000
   23       43.698835   0.000000
   24       43.915743   0.000000
   25       48.063624   0.000000
   26       48.293024   0.000000
   27       48.863378   0.000000
   28       49.141571   0.000000
   29       52.448444   0.000000
   30       54.923423   0.000000
   31       55.753096   0.000000
   32       58.061241   0.000000
   33       62.710729   0.000000
   34       64.034118   0.000000
   35       64.051650   0.000000
   36       64.828113   0.000000
   37       65.170674   0.000000
   38       68.805663   0.000000
   39       70.557466   0.000000
   40       71.049870   0.000000
 
  0.1818182E+00 -0.2083494E-16  0.0000000E+00  0.4507889E-02
    1        0.172038   1.000000
    2        3.588664   1.000000
    3        5.441034   1.000000
    4        5.579379   1.000000
    5        6.292134   1.000000
    6        6.974169   1.000000
    7        7.385137   1.000000
    8        7.412479   1.000000
    9        7.521904   1.000000
   10        7.708094   1.000004
   11        9.434813  -0.000000
   12       12.680535  -0.000000
   13       17.239961   0.000000
   14       28.225163   0.000000
   15       33.320054   0.000000
   16       33.436625   0.000000
   17       33.804005   0.000000
   18       34.864289   0.000000
   19       39.382783   0.000000
   20       40.703614   0.000000
   21       41.325636   0.000000
   22       41.352432   0.000000
   23       44.514401   0.000000
   24       45.900162   0.000000
   25       48.481275   0.000000
   26       49.218983   0.000000
   27       50.752736   0.000000
   28       53.161524   0.000000
   29       55.846187   0.000000
   30       57.682478   0.000000
   31       58.556626   0.000000
   32       60.626822   0.000000
   33       61.306180   0.000000
   34       62.409735   0.000000
   35       62.524568   0.000000
   36       63.465804   0.000000
   37       66.311580   0.000000
   38       69.541231   0.000000
   39       71.152168   0.000000
   40       71.582626   0.000000
 
  0.2727273E+00  0.2206813E-16  0.0000000E+00  0.4507889E-02
    1        1.574663   1.000000
    2        3.837318   1.000000
    3        4.430189   1.000000
    4        5.528619   1.000000
    5        6.111995   1.000000
    6        6.907201   1.000000
    7        7.157574   1.000000
    8        7.868557   1.000428
    9        8.285365   0.931897
   10        8.522563   0.099396
   11        9.480544  -0.000000
   12       14.963901   0.000000
   13       17.405338   0.000000
   14       24.165736   0.000000
   15       30.094415   0.000000
   16       30.680497   0.000000
   17       31.950121   0.000000
   18       34.632634   0.000000
   19       37.866319   0.000000
   20       40.774793   0.000000
   21       41.235772   0.000000
   22       41.497618   0.000000
   23       42.123795   0.000000
   24       46.023553   0.000000
   25       51.957363   0.000000
   26       53.569360   0.000000
   27       54.378155   0.000000
   28       56.075961   0.000000
   29       57.295499   0.000000
   30       58.128508   0.000000
   31       59.897949   0.000000
   32       61.630062   0.000000
   33       61.635938   0.000000
   34       62.411940   0.000000
   35       63.191503   0.000000
   36       65.965586   0.000000
   37       66.223148   0.000000
   38       70.162178   0.000000
   39       70.962407   0.000000
   40       71.192776   0.000000
 
  0.3636364E+00 -0.3807275E-16  0.0000000E+00  0.4507889E-02
    1        2.723896   1.000000
    2        3.517069   1.000000
    3        3.744897   1.000000
    4        5.794602   1.000000
    5        6.464098   1.000000
    6        6.554519   1.000000
    7        6.857882   1.000000
    8        9.196441  -0.000000
    9        9.306997  -0.000000
   10        9.348958  -0.000000
   11        9.494988  -0.000000
   12       17.111461   0.000000
   13       17.366704   0.000000
   14       21.281035   0.000000
   15       26.740284   0.000000
   16       28.656489   0.000000
   17       29.230326   0.000000
   18       33.688607   0.000000
   19       36.655673   0.000000
   20       39.943014   0.000000
   21       40.427219   0.000000
   22       42.509946   0.000000
   23       43.364927   0.000000
   24       46.255029   0.000000
   25       54.125089   0.000000
   26       55.213128   0.000000
   27       55.524716   0.000000
   28       58.752854   0.000000
   29       59.153686   0.000000
   30       59.401599   0.000000
   31       61.399004   0.000000
   32       62.495175   0.000000
   33       62.741102   0.000000
   34       63.507231   0.000000
   35       64.450496   0.000000
   36       66.164293   0.000000
   37       70.205459   0.000000
   38       70.492265   0.000000
   39       70.621872   0.000000
   40       70.668029   0.000000
 
  0.4545455E+00 -0.3843368E-16  0.0000000E+00  0.4507889E-02
    1        3.027087   1.000000
    2        3.332052   1.000000
    3        3.400140   1.000000
    4        6.209417   1.000000
    5        6.428046   1.000000
    6        6.690428   1.000000
    7        6.834620   1.000000
    8        9.493157  -0.000000
    9        9.764690  -0.000000
   10        9.908640  -0.000000
   11       11.208899  -0.000000
   12       15.018454   0.000000
   13       19.610099   0.000000
   14       21.309483   0.000000
   15       24.041918   0.000000
   16       26.544646   0.000000
   17       27.514159   0.000000
   18       33.010995   0.000000
   19       36.260759   0.000000
   20       38.712215   0.000000
   21       40.261797   0.000000
   22       43.433023   0.000000
   23       45.588970   0.000000
   24       46.269197   0.000000
   25       50.795219   0.000000
   26       56.223314   0.000000
   27       56.998852   0.000000
   28       60.481014   0.000000
   29       60.796354   0.000000
   30       61.676203   0.000000
   31       63.036196   0.000000
   32       63.313431   0.000000
   33       63.432358   0.000000
   34       65.985706   0.000000
   35       66.249424   0.000000
   36       68.594830   0.000000
   37       68.914741   0.000000
   38       69.108587   0.000000
   39       71.446335   0.000000
   40       71.687915   0.000000
 
  0.9090909E-01  0.9090909E-01  0.0000000E+00  0.4507889E-02
    1       -0.151265   1.000000
    2        3.434974   1.000000
    3        5.625722   1.000000
    4        5.781916   1.000000
    5        6.534881   1.000000
    6        6.607517   1.000000
    7        7.214175   1.000000
    8        7.342977   1.000000
    9        7.580015   1.000000
   10        7.815712   1.000107
   11        9.380129  -0.000000
   12       12.112897  -0.000000
   13       17.217285   0.000000
   14       29.894547   0.000000
   15       31.531903   0.000000
   16       34.397666   0.000000
   17       35.398516   0.000000
   18       37.167307   0.000000
   19       37.445104   0.000000
   20       39.606861   0.000000
   21       40.979109   0.000000
   22       45.153299   0.000000
   23       45.408285   0.000000
   24       46.455868   0.000000
   25       47.004000   0.000000
   26       47.509362   0.000000
   27       47.721886   0.000000
   28       53.551896   0.000000
   29       56.033985   0.000000
   30       56.779885   0.000000
   31       56.842878   0.000000
   32       60.090251   0.000000
   33       61.155447   0.000000
   34       63.121551   0.000000
   35       63.473961   0.000000
   36       63.844378   0.000000
   37       65.051045   0.000000
   38       69.864697   0.000000
   39       70.812879   0.000000
   40       72.109802   0.000000
 
  0.1818182E+00  0.9090909E-01  0.0000000E+00  0.9015778E-02
    1        1.092548   1.000000
    2        4.013214   1.000000
    3        4.800528   1.000000
    4        5.254728   1.000000
    5        6.211572   1.000000
    6        6.839720   1.000000
    7        7.126200   1.000000
    8        7.521115   1.000000
    9        8.044203   1.013191
   10        8.427666   0.429036
   11        9.391248  -0.000000
   12       14.169732   0.000000
   13       17.388269   0.000000
   14       26.234143   0.000000
   15       29.000382   0.000000
   16       31.882741   0.000000
   17       34.193039   0.000000
   18       34.939610   0.000000
   19       38.292432   0.000000
   20       38.884791   0.000000
   21       39.939721   0.000000
   22       44.635867   0.000000
   23       44.860368   0.000000
   24       46.078697   0.000000
   25       49.093045   0.000000
   26       49.868360   0.000000
   27       51.909498   0.000000
   28       56.609959   0.000000
   29       58.331570   0.000000
   30       58.755749   0.000000
   31       59.317004   0.000000
   32       61.132175   0.000000
   33       61.358780   0.000000
   34       62.534553   0.000000
   35       63.294244   0.000000
   36       63.613039   0.000000
   37       65.707074   0.000000
   38       70.461316   0.000000
   39       70.474231   0.000000
   40       71.858226   0.000000
 
  0.2727273E+00  0.9090909E-01  0.0000000E+00  0.9015778E-02
    1        2.480099   1.000000
    2        3.892397   1.000000
    3        4.047003   1.000000
    4        5.375131   1.000000
    5        6.304670   1.000000
    6        6.442642   1.000000
    7        7.085883   1.000000
    8        8.024138   1.009853
    9        8.959018  -0.000369
   10        9.388977  -0.000000
   11        9.534367  -0.000000
   12       16.481030   0.000000
   13       17.634124   0.000000
   14       22.483229   0.000000
   15       27.164743   0.000000
   16       28.483121   0.000000
   17       31.687706   0.000000
   18       32.998312   0.000000
   19       37.727710   0.000000
   20       38.940132   0.000000
   21       40.250593   0.000000
   22       44.282192   0.000000
   23       44.294133   0.000000
   24       47.175342   0.000000
   25       51.229851   0.000000
   26       53.795824   0.000000
   27       55.489700   0.000000
   28       56.177060   0.000000
   29       57.408902   0.000000
   30       60.079033   0.000000
   31       60.698636   0.000000
   32       62.547421   0.000000
   33       63.058949   0.000000
   34       63.634365   0.000000
   35       64.085935   0.000000
   36       65.649454   0.000000
   37       69.036666   0.000000
   38       69.711117   0.000000
   39       70.079022   0.000000
   40       72.113246   0.000000
 
  0.3636364E+00  0.9090909E-01  0.0000000E+00  0.9015778E-02
    1        3.213666   1.000000
    2        3.570309   1.000000
    3        3.585216   1.000000
    4        5.899471   1.000000
    5        6.221547   1.000000
    6        6.697951   1.000000
    7        6.722939   1.000000
    8        9.083838  -0.000010
    9        9.377554  -0.000000
   10        9.601132  -0.000000
   11       10.928656  -0.000000
   12       16.545434   0.000000
   13       18.881363   0.000000
   14       21.098983   0.000000
   15       25.438113   0.000000
   16       25.722686   0.000000
   17       28.414822   0.000000
   18       32.032140   0.000000
   19       36.752972   0.000000
   20       38.409307   0.000000
   21       41.339163   0.000000
   22       44.630690   0.000000
   23       45.558112   0.000000
   24       46.844767   0.000000
   25       52.731457   0.000000
   26       54.014651   0.000000
   27       56.147991   0.000000
   28       57.688474   0.000000
   29       59.580688   0.000000
   30       60.971177   0.000000
   31       61.673173   0.000000
   32       62.900168   0.000000
   33       63.409667   0.000000
   34       65.910016   0.000000
   35       67.295655   0.000000
   36       67.548318   0.000000
   37       67.957354   0.000000
   38       70.678594   0.000000
   39       71.386789   0.000000
   40       72.184475   0.000000
 
  0.4545455E+00  0.9090909E-01  0.0000000E+00  0.4507889E-02
    1        3.233666   1.000000
    2        3.430394   1.000000
    3        3.537550   1.000000
    4        6.165837   1.000000
    5        6.331005   1.000000
    6        6.530270   1.000000
    7        6.859558   1.000000
    8        9.370901  -0.000000
    9        9.681562  -0.000000
   10        9.706233  -0.000000
   11       12.270666  -0.000000
   12       14.719164   0.000000
   13       20.494727   0.000000
   14       21.759801   0.000000
   15       23.608527   0.000000
   16       24.905685   0.000000
   17       26.861312   0.000000
   18       31.678870   0.000000
   19       36.328871   0.000000
   20       38.240188   0.000000
   21       41.528746   0.000000
   22       45.524735   0.000000
   23       45.733442   0.000000
   24       47.246755   0.000000
   25       50.528750   0.000000
   26       55.669612   0.000000
   27       56.326891   0.000000
   28       58.610150   0.000000
   29       60.769922   0.000000
   30       60.882629   0.000000
   31       63.351915   0.000000
   32       63.392971   0.000000
   33       63.803824   0.000000
   34       64.763992   0.000000
   35       67.738046   0.000000
   36       69.689457   0.000000
   37       69.782646   0.000000
   38       69.928550   0.000000
   39       70.403428   0.000000
   40       73.368608   0.000000
 
  0.1818182E+00  0.1818182E+00  0.0000000E+00  0.4507889E-02
    1        2.420785   1.000000
    2        4.224598   1.000000
    3        4.490074   1.000000
    4        4.728429   1.000000
    5        6.296061   1.000000
    6        6.320390   1.000000
    7        7.263445   1.000000
    8        7.412985   1.000000
    9        8.933414  -0.000689
   10        9.273476  -0.000000
   11        9.610630  -0.000000
   12       16.201769   0.000000
   13       17.833802   0.000000
   14       24.110801   0.000000
   15       25.103134   0.000000
   16       29.885636   0.000000
   17       31.749456   0.000000
   18       34.137927   0.000000
   19       34.932334   0.000000
   20       39.825928   0.000000
   21       41.422931   0.000000
   22       45.886615   0.000000
   23       46.024721   0.000000
   24       48.117437   0.000000
   25       48.920493   0.000000
   26       51.091573   0.000000
   27       52.529512   0.000000
   28       57.590379   0.000000
   29       58.367974   0.000000
   30       59.542501   0.000000
   31       59.755067   0.000000
   32       62.648451   0.000000
   33       62.750428   0.000000
   34       64.527205   0.000000
   35       65.283469   0.000000
   36       66.130716   0.000000
   37       66.388609   0.000000
   38       69.448977   0.000000
   39       69.958936   0.000000
   40       73.098854   0.000000
 
  0.2727273E+00  0.1818182E+00  0.0000000E+00  0.9015778E-02
    1        3.621291   1.000000
    2        3.831897   1.000000
    3        4.147405   1.000000
    4        5.012625   1.000000
    5        6.037085   1.000000
    6        6.620677   1.000000
    7        6.802640   1.000000
    8        8.073904   1.019222
    9        9.173401  -0.000000
   10        9.535651  -0.000000
   11       11.085560  -0.000000
   12       18.216740   0.000000
   13       18.538956   0.000000
   14       21.249313   0.000000
   15       23.344201   0.000000
   16       27.330360   0.000000
   17       29.976925   0.000000
   18       30.596708   0.000000
   19       33.580793   0.000000
   20       41.965921   0.000000
   21       41.991155   0.000000
   22       45.789859   0.000000
   23       47.794091   0.000000
   24       49.125500   0.000000
   25       50.400660   0.000000
   26       52.214767   0.000000
   27       53.776722   0.000000
   28       55.467402   0.000000
   29       58.507371   0.000000
   30       59.739214   0.000000
   31       61.479755   0.000000
   32       62.705827   0.000000
   33       63.695388   0.000000
   34       65.467279   0.000000
   35       67.174583   0.000000
   36       67.621826   0.000000
   37       69.319845   0.000000
   38       70.322951   0.000000
   39       71.793668   0.000000
   40       73.307317   0.000000
 
  0.3636364E+00  0.1818182E+00  0.0000000E+00  0.9015778E-02
    1        3.639967   1.000000
    2        3.816695   1.000000
    3        4.039160   1.000000
    4        5.620346   1.000000
    5        6.043718   1.000000
    6        6.343769   1.000000
    7        6.929248   1.000000
    8        8.892104  -0.001741
    9        9.116618  -0.000004
   10        9.565986  -0.000000
   11       12.849631  -0.000000
   12       16.219759   0.000000
   13       20.902187   0.000000
   14       21.540815   0.000000
   15       22.529885   0.000000
   16       24.658071   0.000000
   17       27.589215   0.000000
   18       29.255653   0.000000
   19       32.905488   0.000000
   20       41.912475   0.000000
   21       43.846025   0.000000
   22       46.111472   0.000000
   23       47.671121   0.000000
   24       48.650883   0.000000
   25       52.769554   0.000000
   26       52.838281   0.000000
   27       54.743361   0.000000
   28       55.305909   0.000000
   29       59.270039   0.000000
   30       60.123774   0.000000
   31       60.822838   0.000000
   32       63.201378   0.000000
   33       63.643171   0.000000
   34       64.039705   0.000000
   35       68.160748   0.000000
   36       69.149138   0.000000
   37       70.780776   0.000000
   38       71.105699   0.000000
   39       72.111351   0.000000
   40       72.660482   0.000000
 
  0.2727273E+00  0.2727273E+00  0.0000000E+00  0.4507889E-02
    1        3.785867   1.000000
    2        4.317447   1.000000
    3        4.674288   1.000000
    4        4.720201   1.000000
    5        5.859666   1.000000
    6        6.357423   1.000000
    7        6.980897   1.000000
    8        8.385116   0.607809
    9        8.986169  -0.000183
   10        9.530079  -0.000000
   11       13.008121  -0.000000
   12       18.453956   0.000000
   13       18.998331   0.000000
   14       20.945458   0.000000
   15       22.471577   0.000000
   16       26.545301   0.000000
   17       26.986716   0.000000
   18       29.339344   0.000000
   19       30.265329   0.000000
   20       43.645083   0.000000
   21       44.661855   0.000000
   22       48.404362   0.000000
   23       49.422762   0.000000
   24       50.102478   0.000000
   25       50.415412   0.000000
   26       50.669418   0.000000
   27       53.631059   0.000000
   28       56.185461   0.000000
   29       56.456977   0.000000
   30       59.560707   0.000000
   31       60.498764   0.000000
   32       63.232159   0.000000
   33       63.753707   0.000000
   34       63.955933   0.000000
   35       68.236079   0.000000
   36       69.304321   0.000000
   37       69.385071   0.000000
   38       71.092419   0.000000
   39       72.479532   0.000000
   40       73.587782   0.000000
 
  0.3636364E+00  0.2727273E+00  0.0000000E+00  0.4507889E-02
    1        3.797818   1.000000
    2        4.435129   1.000000
    3        4.542682   1.000000
    4        5.105708   1.000000
    5        5.940499   1.000000
    6        6.018953   1.000000
    7        7.152480   1.000000
    8        8.819188  -0.006968
    9        8.914611  -0.001064
   10        9.174540  -0.000000
   11       14.855537   0.000000
   12       16.393846   0.000000
   13       18.614180   0.000000
   14       23.048009   0.000000
   15       23.443281   0.000000
   16       24.499380   0.000000
   17       26.490168   0.000000
   18       27.654076   0.000000
   19       29.635373   0.000000
   20       44.024970   0.000000
   21       46.972379   0.000000
   22       48.496509   0.000000
   23       48.608762   0.000000
   24       49.668915   0.000000
   25       51.161967   0.000000
   26       51.965304   0.000000
   27       55.284410   0.000000
   28       55.303257   0.000000
   29       55.746816   0.000000
   30       59.152258   0.000000
   31       60.280278   0.000000
   32       60.966309   0.000000
   33       63.770329   0.000000
   34       63.818840   0.000000
   35       68.082461   0.000000
   36       69.491298   0.000000
   37       71.526748   0.000000
   38       72.082906   0.000000
   39       72.096346   0.000000
   40       72.336995   0.000000
 
  0.0000000E+00  0.0000000E+00  0.9090909E-01  0.1502630E-02
    1       -1.117628   1.000000
    2        2.671551   1.000000
    3        5.846941   1.000000
    4        6.511235   1.000000
    5        6.511281   1.000000
    6        6.896044   1.000000
    7        6.896090   1.000000
    8        7.516087   1.000000
    9        8.030606   1.010859
   10        8.030622   1.010861
   11        9.303604  -0.000000
   12        9.303620  -0.000000
   13       17.548626   0.000000
   14       32.384029   0.000000
   15       33.526637   0.000000
   16       35.986819   0.000000
   17       39.425661   0.000000
   18       39.425691   0.000000
   19       40.079848   0.000000
   20       40.079986   0.000000
   21       42.037954   0.000000
   22       42.544283   0.000000
   23       42.544297   0.000000
   24       43.990711   0.000000
   25       46.629272   0.000000
   26       46.629285   0.000000
   27       48.644481   0.000000
   28       51.774475   0.000000
   29       51.774759   0.000000
   30       53.703565   0.000000
   31       53.703711   0.000000
   32       56.274686   0.000000
   33       63.113688   0.000000
   34       64.531549   0.000000
   35       64.716333   0.000000
   36       64.716926   0.000000
   37       67.399813   0.000000
   38       67.400109   0.000000
   39       67.469806   0.000000
   40       70.352846   0.000000
 
  0.9090909E-01 -0.1680014E-17  0.9090909E-01  0.9015778E-02
    1       -0.757113   1.000000
    2        2.948380   1.000000
    3        5.842092   1.000000
    4        6.436455   1.000000
    5        6.504255   1.000000
    6        6.733854   1.000000
    7        6.868822   1.000000
    8        7.101811   1.000000
    9        7.874152   1.000491
   10        7.903149   1.000974
   11        9.343840  -0.000000
   12       10.451513  -0.000000
   13       17.599100   0.000000
   14       31.717602   0.000000
   15       33.465872   0.000000
   16       34.714547   0.000000
   17       36.442872   0.000000
   18       37.657977   0.000000
   19       39.157319   0.000000
   20       41.560414   0.000000
   21       41.844125   0.000000
   22       43.315129   0.000000
   23       43.745666   0.000000
   24       44.280948   0.000000
   25       47.739260   0.000000
   26       48.117029   0.000000
   27       49.419826   0.000000
   28       49.621816   0.000000
   29       52.369169   0.000000
   30       55.181926   0.000000
   31       56.032140   0.000000
   32       57.905955   0.000000
   33       61.599592   0.000000
   34       63.773649   0.000000
   35       64.259809   0.000000
   36       64.692518   0.000000
   37       66.255508   0.000000
   38       67.993038   0.000000
   39       69.344658   0.000000
   40       70.286314   0.000000
 
  0.1818182E+00 -0.2083494E-16  0.9090909E-01  0.9015778E-02
    1        0.249677   1.000000
    2        3.589930   1.000000
    3        5.341852   1.000000
    4        5.602112   1.000000
    5        6.252059   1.000000
    6        6.872559   1.000000
    7        7.303007   1.000000
    8        7.561062   1.000000
    9        7.590163   1.000000
   10        7.740702   1.000012
   11        9.411131  -0.000000
   12       12.312454  -0.000000
   13       17.793028   0.000000
   14       28.281829   0.000000
   15       32.822861   0.000000
   16       33.411382   0.000000
   17       34.226350   0.000000
   18       34.395999   0.000000
   19       39.135612   0.000000
   20       40.503634   0.000000
   21       40.896050   0.000000
   22       42.052912   0.000000
   23       44.811151   0.000000
   24       46.480347   0.000000
   25       48.750628   0.000000
   26       49.199257   0.000000
   27       50.546680   0.000000
   28       53.233919   0.000000
   29       55.531240   0.000000
   30       57.912826   0.000000
   31       58.750648   0.000000
   32       59.749429   0.000000
   33       60.682883   0.000000
   34       62.076004   0.000000
   35       63.302839   0.000000
   36       63.979803   0.000000
   37       66.250697   0.000000
   38       68.859970   0.000000
   39       70.168562   0.000000
   40       71.286303   0.000000
 
  0.2727273E+00  0.2206813E-16  0.9090909E-01  0.9015778E-02
    1        1.622861   1.000000
    2        3.848722   1.000000
    3        4.400940   1.000000
    4        5.533689   1.000000
    5        6.055602   1.000000
    6        6.942167   1.000000
    7        7.183018   1.000000
    8        7.909049   1.001113
    9        8.298269   0.902623
   10        8.502876   0.152518
   11        9.453880  -0.000000
   12       14.244655   0.000000
   13       18.254400   0.000000
   14       24.234866   0.000000
   15       29.675960   0.000000
   16       30.800302   0.000000
   17       32.227265   0.000000
   18       34.479243   0.000000
   19       37.714781   0.000000
   20       39.827073   0.000000
   21       40.154311   0.000000
   22       42.534260   0.000000
   23       43.071927   0.000000
   24       46.841974   0.000000
   25       52.081323   0.000000
   26       53.388930   0.000000
   27       54.011677   0.000000
   28       54.498487   0.000000
   29       58.171874   0.000000
   30       58.728812   0.000000
   31       60.196696   0.000000
   32       61.438503   0.000000
   33       61.573361   0.000000
   34       61.887328   0.000000
   35       63.780350   0.000000
   36       65.415352   0.000000
   37       66.569157   0.000000
   38       69.601572   0.000000
   39       69.902159   0.000000
   40       71.726599   0.000000
 
  0.3636364E+00 -0.3807275E-16  0.9090909E-01  0.9015778E-02
    1        2.692852   1.000000
    2        3.474506   1.000000
    3        3.873976   1.000000
    4        5.526683   1.000000
    5        6.558929   1.000000
    6        6.796183   1.000000
    7        6.898432   1.000000
    8        9.200038  -0.000000
    9        9.262954  -0.000000
   10        9.268918  -0.000000
   11        9.512860  -0.000000
   12       15.744247   0.000000
   13       18.723123   0.000000
   14       21.411221   0.000000
   15       26.375482   0.000000
   16       28.792801   0.000000
   17       29.622816   0.000000
   18       33.677656   0.000000
   19       36.625971   0.000000
   20       38.592300   0.000000
   21       41.163035   0.000000
   22       41.778972   0.000000
   23       43.962533   0.000000
   24       47.265135   0.000000
   25       52.641913   0.000000
   26       55.384191   0.000000
   27       56.537154   0.000000
   28       57.681574   0.000000
   29       58.803955   0.000000
   30       60.406650   0.000000
   31       61.460652   0.000000
   32       62.513815   0.000000
   33       62.769473   0.000000
   34       63.784424   0.000000
   35       64.483034   0.000000
   36       66.129876   0.000000
   37       69.138364   0.000000
   38       69.951751   0.000000
   39       70.721712   0.000000
   40       71.448717   0.000000
 
  0.4545455E+00 -0.3843368E-16  0.9090909E-01  0.9015778E-02
    1        2.967894   1.000000
    2        3.121852   1.000000
    3        3.741555   1.000000
    4        5.613892   1.000000
    5        6.738077   1.000000
    6        6.795661   1.000000
    7        7.157846   1.000000
    8        9.417140  -0.000000
    9        9.770275  -0.000000
   10        9.911253  -0.000000
   11       11.104666  -0.000000
   12       14.809268   0.000000
   13       19.493612   0.000000
   14       21.331195   0.000000
   15       24.195177   0.000000
   16       26.916095   0.000000
   17       27.660648   0.000000
   18       33.036905   0.000000
   19       36.244680   0.000000
   20       37.721760   0.000000
   21       41.314277   0.000000