 vasp.6.2.0 18Jan21 (build Mar 17 2021 09:06:54) complex                        
  
 executed on             LinuxIFC date 2021.09.09  12:01:09
 serial version


--------------------------------------------------------------------------------------------------------


 INCAR:
   ENCUT = 280.000000
   SIGMA = 0.200000
   EDIFF = 1.00e-06
   GGA = PE
   PREC = normal
   IBRION = 1
   ICHARG = 1
   ISIF = 2
   ISMEAR = 1
   KPAR = 1
   NBANDS = 40
   NSW = 0
   NCORE = 1
   LCHARG = .TRUE.

 POTCAR:    PAW_PBE Fe 06Sep2000                  
 POTCAR:    PAW_PBE Fe 06Sep2000                  
   SHA256 =  cd5a22d9368cc8b5cc476bea79732366149640da08ac9009b0e1b7fc627eea28 Fe/POTCAR             
   COPYR  = (c) Copyright 06Sep2000 Georg Kresse                                                    
   COPYR  = This file is part of the software VASP. Any use, copying, and all other rights are regul
   COPYR  = If you do not have a valid VASP license, you may not use, copy or distribute this file. 
   VRHFIN =Fe:  d7 s1                                                                               
   LEXCH  = PE                                                                                      
   EATOM  =   594.3153 eV,   43.6809 Ry                                                             
                                                                                                    
   TITEL  = PAW_PBE Fe 06Sep2000                                                                    
   LULTRA =        F    use ultrasoft PP ?                                                          
   IUNSCR =        1    unscreen: 0-lin 1-nonlin 2-no                                               
   RPACOR =    2.000    partial core radius                                                         
   POMASS =   55.847; ZVAL   =    8.000    mass and valenz                                          
   RCORE  =    2.300    outmost cutoff radius                                                       
   RWIGS  =    2.460; RWIGS  =    1.302    wigner-seitz radius (au A)                               
   ENMAX  =  267.882; ENMIN  =  200.911 eV                                                          
   RCLOC  =    1.701    cutoff for local pot                                                        
   LCOR   =        T    correct aug charges                                                         
   LPAW   =        T    paw PP                                                                      
   EAUG   =  511.368                                                                                
   DEXC   =    0.000                                                                                
   RMAX   =    2.356    core radius for proj-oper                                                   
   RAUG   =    1.300    factor for augmentation sphere                                              
   RDEP   =    2.442    radius for radial grids                                                     
   RDEPT  =    1.890    core radius for aug-charge                                                  
                                                                                                    
   Atomic configuration                                                                             
    9 entries                                                                                       
     n  l   j            E        occ.                                                              
     1  0  0.50     -6993.8440   2.0000                                                             
     2  0  0.50      -814.6047   2.0000                                                             
     2  1  1.50      -693.3689   6.0000                                                             
     3  0  0.50       -89.4732   2.0000                                                             
     3  1  1.50       -55.6373   6.0000                                                             
     3  2  2.50        -3.8151   7.0000                                                             
     4  0  0.50        -4.2551   1.0000                                                             
     4  1  1.50        -3.4015   0.0000                                                             
     4  3  2.50        -1.3606   0.0000                                                             
   Description                                                                                      
     l       E           TYP  RCUT    TYP  RCUT                                                     
     2     -3.8151135     23  2.300                                                                 
     2     -5.1756961     23  2.300                                                                 
     0     -4.2550963     23  2.300                                                                 
     0      7.2035603     23  2.300                                                                 
     1     -2.7211652     23  2.300                                                                 
     1     18.4316424     23  2.300                                                                 
  local pseudopotential read in
  partial core-charges read in
  partial kinetic energy density read in
  atomic valenz-charges read in
  non local Contribution for L=           2  read in
    real space projection operators read in
  non local Contribution for L=           2  read in
    real space projection operators read in
  non local Contribution for L=           0  read in
    real space projection operators read in
  non local Contribution for L=           0  read in
    real space projection operators read in
  non local Contribution for L=           1  read in
    real space projection operators read in
  non local Contribution for L=           1  read in
    real space projection operators read in
    PAW grid and wavefunctions read in
 
   number of l-projection  operators is LMAX  =           6
   number of lm-projection operators is LMMAX =          18
 
  PAW_PBE Fe 06Sep2000                  :
 energy of atom  1       EATOM= -594.3153
 kinetic energy error for atom=    0.0278 (will be added to EATOM!!)
 
 
 POSCAR: Fe
  positions in cartesian coordinates
  No initial velocities read in
 exchange correlation table for  LEXCH =        8
   RHO(1)=    0.500       N(1)  =     2000
   RHO(2)=  100.500       N(2)  =     4000
 


--------------------------------------------------------------------------------------------------------


 ion  position               nearest neighbor table
   1  0.000  0.000  0.000-   2 2.39   2 2.39   2 2.39   2 2.39   2 2.39   2 2.39
   2  0.333  0.667  0.500-   1 2.39   1 2.39   1 2.39   1 2.39   1 2.39   1 2.39
 
  LATTYP: Found a hexagonal cell.
 ALAT       =     2.2834000000
 C/A-ratio  =     1.7420600858
  
  Lattice vectors:
  
 A1 = (   2.2834000000,   0.0000000000,   0.0000000000)
 A2 = (  -1.1417000000,   1.9774824070,   0.0000000000)
 A3 = (   0.0000000000,   0.0000000000,   3.9778200000)


Analysis of symmetry for initial positions (statically):
=====================================================================
 Subroutine PRICEL returns:
 Original cell was already a primitive cell.
 

 Routine SETGRP: Setting up the symmetry group for a 
 hexagonal supercell.


 Subroutine GETGRP returns: Found 24 space group operations
 (whereof 12 operations were pure point group operations)
 out of a pool of 24 trial point group operations.


The static configuration has the point symmetry D_3h.
 The point group associated with its full space group is D_6h.


Analysis of symmetry for dynamics (positions and initial velocities):
=====================================================================
 Subroutine PRICEL returns:
 Original cell was already a primitive cell.
 

 Routine SETGRP: Setting up the symmetry group for a 
 hexagonal supercell.


 Subroutine GETGRP returns: Found 24 space group operations
 (whereof 12 operations were pure point group operations)
 out of a pool of 24 trial point group operations.


The dynamic configuration has the point symmetry D_3h.
 The point group associated with its full space group is D_6h.


 Subroutine INISYM returns: Found 24 space group operations
 (whereof 12 operations are pure point group operations),
 and found     1 'primitive' translations


----------------------------------------------------------------------------------------

                                     Primitive cell                                     

  volume of cell :      17.9614

  direct lattice vectors                    reciprocal lattice vectors
     2.283400000  0.000000000  0.000000000     0.437943418  0.252846750  0.000000000
    -1.141700000  1.977482407  0.000000000     0.000000000  0.505693500  0.000000000
     0.000000000  0.000000000  3.977820000     0.000000000  0.000000000  0.251393980

  length of vectors
     2.283400000  2.283400000  3.977820000     0.505693500  0.505693500  0.251393980

  position of ions in fractional coordinates (direct lattice)
     0.000000000  0.000000000  0.000000000
     0.333333333  0.666666667  0.500000000

  ion indices of the primitive-cell ions
   primitive index   ion index
                 1           1
                 2           2

----------------------------------------------------------------------------------------

 
 
 KPOINTS: KPOINTS created by Atomic Simulation Env

Automatic generation of k-mesh.
 Grid dimensions read from file:
 generate k-points for:   11   11   11

 Generating k-lattice:

  Cartesian coordinates                     Fractional coordinates (reciprocal lattice)
     0.039813038  0.022986068  0.000000000     0.090909091 -0.000000000  0.000000000
     0.000000000  0.045972136  0.000000000     0.000000000  0.090909091  0.000000000
     0.000000000  0.000000000  0.022853998     0.000000000  0.000000000  0.090909091

  Length of vectors
     0.045972136  0.045972136  0.022853998

  Shift w.r.t. Gamma in fractional coordinates (k-lattice)
     0.000000000  0.000000000  0.000000000

 
 Subroutine IBZKPT returns following result:
 ===========================================
 
 Found     96 irreducible k-points:
 
 Following reciprocal coordinates:
            Coordinates               Weight
  0.000000  0.000000  0.000000      1.000000
  0.090909 -0.000000  0.000000      6.000000
  0.181818 -0.000000  0.000000      6.000000
  0.272727  0.000000  0.000000      6.000000
  0.363636 -0.000000  0.000000      6.000000
  0.454545 -0.000000  0.000000      6.000000
  0.090909  0.090909  0.000000      6.000000
  0.181818  0.090909  0.000000     12.000000
  0.272727  0.090909  0.000000     12.000000
  0.363636  0.090909  0.000000     12.000000
  0.454545  0.090909  0.000000      6.000000
  0.181818  0.181818  0.000000      6.000000
  0.272727  0.181818  0.000000     12.000000
  0.363636  0.181818  0.000000     12.000000
  0.272727  0.272727  0.000000      6.000000
  0.363636  0.272727  0.000000      6.000000
  0.000000  0.000000  0.090909      2.000000
  0.090909 -0.000000  0.090909     12.000000
  0.181818 -0.000000  0.090909     12.000000
  0.272727  0.000000  0.090909     12.000000
  0.363636 -0.000000  0.090909     12.000000
  0.454545 -0.000000  0.090909     12.000000
  0.090909  0.090909  0.090909     12.000000
  0.181818  0.090909  0.090909     24.000000
  0.272727  0.090909  0.090909     24.000000
  0.363636  0.090909  0.090909     24.000000
  0.454545  0.090909  0.090909     12.000000
  0.181818  0.181818  0.090909     12.000000
  0.272727  0.181818  0.090909     24.000000
  0.363636  0.181818  0.090909     24.000000
  0.272727  0.272727  0.090909     12.000000
  0.363636  0.272727  0.090909     12.000000
  0.000000  0.000000  0.181818      2.000000
  0.090909 -0.000000  0.181818     12.000000
  0.181818 -0.000000  0.181818     12.000000
  0.272727  0.000000  0.181818     12.000000
  0.363636 -0.000000  0.181818     12.000000
  0.454545 -0.000000  0.181818     12.000000
  0.090909  0.090909  0.181818     12.000000
  0.181818  0.090909  0.181818     24.000000
  0.272727  0.090909  0.181818     24.000000
  0.363636  0.090909  0.181818     24.000000
  0.454545  0.090909  0.181818     12.000000
  0.181818  0.181818  0.181818     12.000000
  0.272727  0.181818  0.181818     24.000000
  0.363636  0.181818  0.181818     24.000000
  0.272727  0.272727  0.181818     12.000000
  0.363636  0.272727  0.181818     12.000000
  0.000000  0.000000  0.272727      2.000000
  0.090909 -0.000000  0.272727     12.000000
  0.181818 -0.000000  0.272727     12.000000
  0.272727  0.000000  0.272727     12.000000
  0.363636 -0.000000  0.272727     12.000000
  0.454545 -0.000000  0.272727     12.000000
  0.090909  0.090909  0.272727     12.000000
  0.181818  0.090909  0.272727     24.000000
  0.272727  0.090909  0.272727     24.000000
  0.363636  0.090909  0.272727     24.000000
  0.454545  0.090909  0.272727     12.000000
  0.181818  0.181818  0.272727     12.000000
  0.272727  0.181818  0.272727     24.000000
  0.363636  0.181818  0.272727     24.000000
  0.272727  0.272727  0.272727     12.000000
  0.363636  0.272727  0.272727     12.000000
  0.000000  0.000000  0.363636      2.000000
  0.090909 -0.000000  0.363636     12.000000
  0.181818 -0.000000  0.363636     12.000000
  0.272727  0.000000  0.363636     12.000000
  0.363636 -0.000000  0.363636     12.000000
  0.454545 -0.000000  0.363636     12.000000
  0.090909  0.090909  0.363636     12.000000
  0.181818  0.090909  0.363636     24.000000
  0.272727  0.090909  0.363636     24.000000
  0.363636  0.090909  0.363636     24.000000
  0.454545  0.090909  0.363636     12.000000
  0.181818  0.181818  0.363636     12.000000
  0.272727  0.181818  0.363636     24.000000
  0.363636  0.181818  0.363636     24.000000
  0.272727  0.272727  0.363636     12.000000
  0.363636  0.272727  0.363636     12.000000
  0.000000  0.000000  0.454545      2.000000
  0.090909 -0.000000  0.454545     12.000000
  0.181818 -0.000000  0.454545     12.000000
  0.272727  0.000000  0.454545     12.000000
  0.363636 -0.000000  0.454545     12.000000
  0.454545 -0.000000  0.454545     12.000000
  0.090909  0.090909  0.454545     12.000000
  0.181818  0.090909  0.454545     24.000000
  0.272727  0.090909  0.454545     24.000000
  0.363636  0.090909  0.454545     24.000000
  0.454545  0.090909  0.454545     12.000000
  0.181818  0.181818  0.454545     12.000000
  0.272727  0.181818  0.454545     24.000000
  0.363636  0.181818  0.454545     24.000000
  0.272727  0.272727  0.454545     12.000000
  0.363636  0.272727  0.454545     12.000000
 
 Following cartesian coordinates:
            Coordinates               Weight
  0.000000  0.000000  0.000000      1.000000
  0.039813  0.022986  0.000000      6.000000
  0.079626  0.045972  0.000000      6.000000
  0.119439  0.068958  0.000000      6.000000
  0.159252  0.091944  0.000000      6.000000
  0.199065  0.114930  0.000000      6.000000
  0.039813  0.068958  0.000000      6.000000
  0.079626  0.091944  0.000000     12.000000
  0.119439  0.114930  0.000000     12.000000
  0.159252  0.137916  0.000000     12.000000
  0.199065  0.160902  0.000000      6.000000
  0.079626  0.137916  0.000000      6.000000
  0.119439  0.160902  0.000000     12.000000
  0.159252  0.183889  0.000000     12.000000
  0.119439  0.206875  0.000000      6.000000
  0.159252  0.229861  0.000000      6.000000
  0.000000  0.000000  0.022854      2.000000
  0.039813  0.022986  0.022854     12.000000
  0.079626  0.045972  0.022854     12.000000
  0.119439  0.068958  0.022854     12.000000
  0.159252  0.091944  0.022854     12.000000
  0.199065  0.114930  0.022854     12.000000
  0.039813  0.068958  0.022854     12.000000
  0.079626  0.091944  0.022854     24.000000
  0.119439  0.114930  0.022854     24.000000
  0.159252  0.137916  0.022854     24.000000
  0.199065  0.160902  0.022854     12.000000
  0.079626  0.137916  0.022854     12.000000
  0.119439  0.160902  0.022854     24.000000
  0.159252  0.183889  0.022854     24.000000
  0.119439  0.206875  0.022854     12.000000
  0.159252  0.229861  0.022854     12.000000
  0.000000  0.000000  0.045708      2.000000
  0.039813  0.022986  0.045708     12.000000
  0.079626  0.045972  0.045708     12.000000
  0.119439  0.068958  0.045708     12.000000
  0.159252  0.091944  0.045708     12.000000
  0.199065  0.114930  0.045708     12.000000
  0.039813  0.068958  0.045708     12.000000
  0.079626  0.091944  0.045708     24.000000
  0.119439  0.114930  0.045708     24.000000
  0.159252  0.137916  0.045708     24.000000
  0.199065  0.160902  0.045708     12.000000
  0.079626  0.137916  0.045708     12.000000
  0.119439  0.160902  0.045708     24.000000
  0.159252  0.183889  0.045708     24.000000
  0.119439  0.206875  0.045708     12.000000
  0.159252  0.229861  0.045708     12.000000
  0.000000  0.000000  0.068562      2.000000
  0.039813  0.022986  0.068562     12.000000
  0.079626  0.045972  0.068562     12.000000
  0.119439  0.068958  0.068562     12.000000
  0.159252  0.091944  0.068562     12.000000
  0.199065  0.114930  0.068562     12.000000
  0.039813  0.068958  0.068562     12.000000
  0.079626  0.091944  0.068562     24.000000
  0.119439  0.114930  0.068562     24.000000
  0.159252  0.137916  0.068562     24.000000
  0.199065  0.160902  0.068562     12.000000
  0.079626  0.137916  0.068562     12.000000
  0.119439  0.160902  0.068562     24.000000
  0.159252  0.183889  0.068562     24.000000
  0.119439  0.206875  0.068562     12.000000
  0.159252  0.229861  0.068562     12.000000
  0.000000  0.000000  0.091416      2.000000
  0.039813  0.022986  0.091416     12.000000
  0.079626  0.045972  0.091416     12.000000
  0.119439  0.068958  0.091416     12.000000
  0.159252  0.091944  0.091416     12.000000
  0.199065  0.114930  0.091416     12.000000
  0.039813  0.068958  0.091416     12.000000
  0.079626  0.091944  0.091416     24.000000
  0.119439  0.114930  0.091416     24.000000
  0.159252  0.137916  0.091416     24.000000
  0.199065  0.160902  0.091416     12.000000
  0.079626  0.137916  0.091416     12.000000
  0.119439  0.160902  0.091416     24.000000
  0.159252  0.183889  0.091416     24.000000
  0.119439  0.206875  0.091416     12.000000
  0.159252  0.229861  0.091416     12.000000
  0.000000  0.000000  0.114270      2.000000
  0.039813  0.022986  0.114270     12.000000
  0.079626  0.045972  0.114270     12.000000
  0.119439  0.068958  0.114270     12.000000
  0.159252  0.091944  0.114270     12.000000
  0.199065  0.114930  0.114270     12.000000
  0.039813  0.068958  0.114270     12.000000
  0.079626  0.091944  0.114270     24.000000
  0.119439  0.114930  0.114270     24.000000
  0.159252  0.137916  0.114270     24.000000
  0.199065  0.160902  0.114270     12.000000
  0.079626  0.137916  0.114270     12.000000
  0.119439  0.160902  0.114270     24.000000
  0.159252  0.183889  0.114270     24.000000
  0.119439  0.206875  0.114270     12.000000
  0.159252  0.229861  0.114270     12.000000
 


--------------------------------------------------------------------------------------------------------




 Dimension of arrays:
   k-points           NKPTS =     96   k-points in BZ     NKDIM =     96   number of bands    NBANDS=     40
   number of dos      NEDOS =    301   number of ions     NIONS =      2
   non local maximal  LDIM  =      6   non local SUM 2l+1 LMDIM =     18
   total plane-waves  NPLWV =   1600
   max r-space proj   IRMAX =      1   max aug-charges    IRDMAX=   3372
   dimension x,y,z NGX =    10 NGY =   10 NGZ =   16
   dimension x,y,z NGXF=    20 NGYF=   20 NGZF=   32
   support grid    NGXF=    20 NGYF=   20 NGZF=   32
   ions per type =               2
   NGX,Y,Z   is equivalent  to a cutoff of   7.28,  7.28,  6.69 a.u.
   NGXF,Y,Z  is equivalent  to a cutoff of  14.56, 14.56, 13.37 a.u.

 SYSTEM =  unknown system                          
 POSCAR =  Fe                                      

 Startparameter for this run:
   NWRITE =      2    write-flag & timer
   PREC   = normal    normal or accurate (medium, high low for compatibility)
   ISTART =      0    job   : 0-new  1-cont  2-samecut
   ICHARG =      1    charge: 1-file 2-atom 10-const
   ISPIN  =      1    spin polarized calculation?
   LNONCOLLINEAR =      F non collinear calculations
   LSORBIT =      F    spin-orbit coupling
   INIWAV =      1    electr: 0-lowe 1-rand  2-diag
   LASPH  =      F    aspherical Exc in radial PAW
   METAGGA=      F    non-selfconsistent MetaGGA calc.

 Electronic Relaxation 1
   ENCUT  =  280.0 eV  20.58 Ry    4.54 a.u.   3.12  3.12  5.43*2*pi/ulx,y,z
   ENINI  =  280.0     initial cutoff
   ENAUG  =  511.4 eV  augmentation charge cutoff
   NELM   =     60;   NELMIN=  2; NELMDL= -5     # of ELM steps 
   EDIFF  = 0.1E-05   stopping-criterion for ELM
   LREAL  =      F    real-space projection
   NLSPLINE    = F    spline interpolate recip. space projectors
   LCOMPAT=      F    compatible to vasp.4.4
   GGA_COMPAT  = T    GGA compatible to vasp.4.4-vasp.4.6
   LMAXPAW     = -100 max onsite density
   LMAXMIX     =    2 max onsite mixed and CHGCAR
   VOSKOWN=      0    Vosko Wilk Nusair interpolation
   ROPT   =    0.00000
 Ionic relaxation
   EDIFFG = 0.1E-04   stopping-criterion for IOM
   NSW    =      0    number of steps for IOM
   NBLOCK =      1;   KBLOCK =      1    inner block; outer block 
   IBRION =     -1    ionic relax: 0-MD 1-quasi-New 2-CG
   NFREE  =      0    steps in history (QN), initial steepest desc. (CG)
   ISIF   =      2    stress and relaxation
   IWAVPR =      0    prediction:  0-non 1-charg 2-wave 3-comb
   ISYM   =      2    0-nonsym 1-usesym 2-fastsym
   LCORR  =      T    Harris-Foulkes like correction to forces

   POTIM  = 0.5000    time-step for ionic-motion
   TEIN   =    0.0    initial temperature
   TEBEG  =    0.0;   TEEND  =   0.0 temperature during run
   SMASS  =  -3.00    Nose mass-parameter (am)
   estimated Nose-frequenzy (Omega)   =  0.10E-29 period in steps = 0.13E+47 mass=  -0.119E-27a.u.
   SCALEE = 1.0000    scale energy and forces
   NPACO  =    256;   APACO  = 16.0  distance and # of slots for P.C.
   PSTRESS=    0.0 pullay stress

  Mass of Ions in am
   POMASS =  55.85
  Ionic Valenz
   ZVAL   =   8.00
  Atomic Wigner-Seitz radii
   RWIGS  =  -1.00
  virtual crystal weights 
   VCA    =   1.00
   NELECT =      16.0000    total number of electrons
   NUPDOWN=      -1.0000    fix difference up-down

 DOS related values:
   EMIN   =  10.00;   EMAX   =-10.00  energy-range for DOS
   EFERMI =   0.00
   ISMEAR =     1;   SIGMA  =   0.20  broadening in eV -4-tet -1-fermi 0-gaus

 Electronic relaxation 2 (details)
   IALGO  =     38    algorithm
   LDIAG  =      T    sub-space diagonalisation (order eigenvalues)
   LSUBROT=      F    optimize rotation matrix (better conditioning)
   TURBO    =      0    0=normal 1=particle mesh
   IRESTART =      0    0=no restart 2=restart with 2 vectors
   NREBOOT  =      0    no. of reboots
   NMIN     =      0    reboot dimension
   EREF     =   0.00    reference energy to select bands
   IMIX   =      4    mixing-type and parameters
     AMIX     =   0.40;   BMIX     =  1.00
     AMIX_MAG =   1.60;   BMIX_MAG =  1.00
     AMIN     =   0.10
     WC   =   100.;   INIMIX=   1;  MIXPRE=   1;  MAXMIX= -45

 Intra band minimization:
   WEIMIN = 0.0000     energy-eigenvalue tresh-hold
   EBREAK =  0.62E-08  absolut break condition
   DEPER  =   0.30     relativ break condition  

   TIME   =   0.40     timestep for ELM

  volume/ion in A,a.u.               =       8.98        60.60
  Fermi-wavevector in a.u.,A,eV,Ry     =   1.575197  2.976691 33.759401  2.481246
  Thomas-Fermi vector in A             =   2.676217
 
 Write flags
   LWAVE        =      T    write WAVECAR
   LDOWNSAMPLE  =      F    k-point downsampling of WAVECAR
   LCHARG       =      T    write CHGCAR
   LVTOT        =      F    write LOCPOT, total local potential
   LVHAR        =      F    write LOCPOT, Hartree potential only
   LELF         =      F    write electronic localiz. function (ELF)
   LORBIT       =      0    0 simple, 1 ext, 2 COOP (PROOUT), +10 PAW based schemes


 Dipole corrections
   LMONO  =      F    monopole corrections only (constant potential shift)
   LDIPOL =      F    correct potential (dipole corrections)
   IDIPOL =      0    1-x, 2-y, 3-z, 4-all directions 
   EPSILON=  1.0000000 bulk dielectric constant

 Exchange correlation treatment:
   GGA     =    PE    GGA type
   LEXCH   =     8    internal setting for exchange type
   VOSKOWN=      0    Vosko Wilk Nusair interpolation
   LHFCALC =     F    Hartree Fock is set to
   LHFONE  =     F    Hartree Fock one center treatment
   AEXX    =    0.0000 exact exchange contribution

 Linear response parameters
   LEPSILON=     F    determine dielectric tensor
   LRPA    =     F    only Hartree local field effects (RPA)
   LNABLA  =     F    use nabla operator in PAW spheres
   LVEL    =     F    velocity operator in full k-point grid
   LINTERFAST=   F  fast interpolation
   KINTER  =     0    interpolate to denser k-point grid
   CSHIFT  =0.1000    complex shift for real part using Kramers Kronig
   OMEGAMAX=  -1.0    maximum frequency
   DEG_THRESHOLD= 0.2000000E-02 threshold for treating states as degnerate
   RTIME   =   -0.100 relaxation time in fs
  (WPLASMAI=    0.000 imaginary part of plasma frequency in eV, 0.658/RTIME)
   DFIELD  = 0.0000000 0.0000000 0.0000000 field for delta impulse in time
 
 Orbital magnetization related:
   ORBITALMAG=     F  switch on orbital magnetization
   LCHIMAG   =     F  perturbation theory with respect to B field
   DQ        =  0.001000  dq finite difference perturbation B field
   LLRAUG    =     F  two centre corrections for induced B field



--------------------------------------------------------------------------------------------------------


 Static calculation
 charge density and potential will be updated during run
 non-spin polarized calculation
 Variant of blocked Davidson
 Davidson routine will perform the subspace rotation
 perform sub-space diagonalisation
    after iterative eigenvector-optimisation
 modified Broyden-mixing scheme, WC =      100.0
 initial mixing is a Kerker type mixing with AMIX =  0.4000 and BMIX =      1.0000
 Hartree-type preconditioning will be used
 using additional bands           32
 reciprocal scheme for non local part
 use partial core corrections
 calculate Harris-corrections to forces 
   (improved forces if not selfconsistent)
 use gradient corrections 
 use of overlap-Matrix (Vanderbilt PP)
 Methfessel and Paxton  Order N= 1 SIGMA  =   0.20


--------------------------------------------------------------------------------------------------------


  energy-cutoff  :      280.00
  volume of cell :       17.96
      direct lattice vectors                 reciprocal lattice vectors
     2.283400000  0.000000000  0.000000000     0.437943418  0.252846750  0.000000000
    -1.141700000  1.977482407  0.000000000     0.000000000  0.505693500  0.000000000
     0.000000000  0.000000000  3.977820000     0.000000000  0.000000000  0.251393980

  length of vectors
     2.283400000  2.283400000  3.977820000     0.505693500  0.505693500  0.251393980


 
 k-points in units of 2pi/SCALE and weight: KPOINTS created by Atomic Simulation Env
   0.00000000  0.00000000  0.00000000       0.001
   0.03981304  0.02298607  0.00000000       0.005
   0.07962608  0.04597214  0.00000000       0.005
   0.11943911  0.06895820  0.00000000       0.005
   0.15925215  0.09194427  0.00000000       0.005
   0.19906519  0.11493034  0.00000000       0.005
   0.03981304  0.06895820  0.00000000       0.005
   0.07962608  0.09194427  0.00000000       0.009
   0.11943911  0.11493034  0.00000000       0.009
   0.15925215  0.13791641  0.00000000       0.009
   0.19906519  0.16090248  0.00000000       0.005
   0.07962608  0.13791641  0.00000000       0.005
   0.11943911  0.16090248  0.00000000       0.009
   0.15925215  0.18388855  0.00000000       0.009
   0.11943911  0.20687461  0.00000000       0.005
   0.15925215  0.22986068  0.00000000       0.005
   0.00000000  0.00000000  0.02285400       0.002
   0.03981304  0.02298607  0.02285400       0.009
   0.07962608  0.04597214  0.02285400       0.009
   0.11943911  0.06895820  0.02285400       0.009
   0.15925215  0.09194427  0.02285400       0.009
   0.19906519  0.11493034  0.02285400       0.009
   0.03981304  0.06895820  0.02285400       0.009
   0.07962608  0.09194427  0.02285400       0.018
   0.11943911  0.11493034  0.02285400       0.018
   0.15925215  0.13791641  0.02285400       0.018
   0.19906519  0.16090248  0.02285400       0.009
   0.07962608  0.13791641  0.02285400       0.009
   0.11943911  0.16090248  0.02285400       0.018
   0.15925215  0.18388855  0.02285400       0.018
   0.11943911  0.20687461  0.02285400       0.009
   0.15925215  0.22986068  0.02285400       0.009
   0.00000000  0.00000000  0.04570800       0.002
   0.03981304  0.02298607  0.04570800       0.009
   0.07962608  0.04597214  0.04570800       0.009
   0.11943911  0.06895820  0.04570800       0.009
   0.15925215  0.09194427  0.04570800       0.009
   0.19906519  0.11493034  0.04570800       0.009
   0.03981304  0.06895820  0.04570800       0.009
   0.07962608  0.09194427  0.04570800       0.018
   0.11943911  0.11493034  0.04570800       0.018
   0.15925215  0.13791641  0.04570800       0.018
   0.19906519  0.16090248  0.04570800       0.009
   0.07962608  0.13791641  0.04570800       0.009
   0.11943911  0.16090248  0.04570800       0.018
   0.15925215  0.18388855  0.04570800       0.018
   0.11943911  0.20687461  0.04570800       0.009
   0.15925215  0.22986068  0.04570800       0.009
   0.00000000  0.00000000  0.06856199       0.002
   0.03981304  0.02298607  0.06856199       0.009
   0.07962608  0.04597214  0.06856199       0.009
   0.11943911  0.06895820  0.06856199       0.009
   0.15925215  0.09194427  0.06856199       0.009
   0.19906519  0.11493034  0.06856199       0.009
   0.03981304  0.06895820  0.06856199       0.009
   0.07962608  0.09194427  0.06856199       0.018
   0.11943911  0.11493034  0.06856199       0.018
   0.15925215  0.13791641  0.06856199       0.018
   0.19906519  0.16090248  0.06856199       0.009
   0.07962608  0.13791641  0.06856199       0.009
   0.11943911  0.16090248  0.06856199       0.018
   0.15925215  0.18388855  0.06856199       0.018
   0.11943911  0.20687461  0.06856199       0.009
   0.15925215  0.22986068  0.06856199       0.009
   0.00000000  0.00000000  0.09141599       0.002
   0.03981304  0.02298607  0.09141599       0.009
   0.07962608  0.04597214  0.09141599       0.009
   0.11943911  0.06895820  0.09141599       0.009
   0.15925215  0.09194427  0.09141599       0.009
   0.19906519  0.11493034  0.09141599       0.009
   0.03981304  0.06895820  0.09141599       0.009
   0.07962608  0.09194427  0.09141599       0.018
   0.11943911  0.11493034  0.09141599       0.018
   0.15925215  0.13791641  0.09141599       0.018
   0.19906519  0.16090248  0.09141599       0.009
   0.07962608  0.13791641  0.09141599       0.009
   0.11943911  0.16090248  0.09141599       0.018
   0.15925215  0.18388855  0.09141599       0.018
   0.11943911  0.20687461  0.09141599       0.009
   0.15925215  0.22986068  0.09141599       0.009
   0.00000000  0.00000000  0.11426999       0.002
   0.03981304  0.02298607  0.11426999       0.009
   0.07962608  0.04597214  0.11426999       0.009
   0.11943911  0.06895820  0.11426999       0.009
   0.15925215  0.09194427  0.11426999       0.009
   0.19906519  0.11493034  0.11426999       0.009
   0.03981304  0.06895820  0.11426999       0.009
   0.07962608  0.09194427  0.11426999       0.018
   0.11943911  0.11493034  0.11426999       0.018
   0.15925215  0.13791641  0.11426999       0.018
   0.19906519  0.16090248  0.11426999       0.009
   0.07962608  0.13791641  0.11426999       0.009
   0.11943911  0.16090248  0.11426999       0.018
   0.15925215  0.18388855  0.11426999       0.018
   0.11943911  0.20687461  0.11426999       0.009
   0.15925215  0.22986068  0.11426999       0.009
 
 k-points in reciprocal lattice and weights: KPOINTS created by Atomic Simulation Env
   0.00000000  0.00000000  0.00000000       0.001
   0.09090909 -0.00000000  0.00000000       0.005
   0.18181818 -0.00000000  0.00000000       0.005
   0.27272727  0.00000000  0.00000000       0.005
   0.36363636 -0.00000000  0.00000000       0.005
   0.45454545 -0.00000000  0.00000000       0.005
   0.09090909  0.09090909  0.00000000       0.005
   0.18181818  0.09090909  0.00000000       0.009
   0.27272727  0.09090909  0.00000000       0.009
   0.36363636  0.09090909  0.00000000       0.009
   0.45454545  0.09090909  0.00000000       0.005
   0.18181818  0.18181818  0.00000000       0.005
   0.27272727  0.18181818  0.00000000       0.009
   0.36363636  0.18181818  0.00000000       0.009
   0.27272727  0.27272727  0.00000000       0.005
   0.36363636  0.27272727  0.00000000       0.005
   0.00000000  0.00000000  0.09090909       0.002
   0.09090909 -0.00000000  0.09090909       0.009
   0.18181818 -0.00000000  0.09090909       0.009
   0.27272727  0.00000000  0.09090909       0.009
   0.36363636 -0.00000000  0.09090909       0.009
   0.45454545 -0.00000000  0.09090909       0.009
   0.09090909  0.09090909  0.09090909       0.009
   0.18181818  0.09090909  0.09090909       0.018
   0.27272727  0.09090909  0.09090909       0.018
   0.36363636  0.09090909  0.09090909       0.018
   0.45454545  0.09090909  0.09090909       0.009
   0.18181818  0.18181818  0.09090909       0.009
   0.27272727  0.18181818  0.09090909       0.018
   0.36363636  0.18181818  0.09090909       0.018
   0.27272727  0.27272727  0.09090909       0.009
   0.36363636  0.27272727  0.09090909       0.009
   0.00000000  0.00000000  0.18181818       0.002
   0.09090909 -0.00000000  0.18181818       0.009
   0.18181818 -0.00000000  0.18181818       0.009
   0.27272727  0.00000000  0.18181818       0.009
   0.36363636 -0.00000000  0.18181818       0.009
   0.45454545 -0.00000000  0.18181818       0.009
   0.09090909  0.09090909  0.18181818       0.009
   0.18181818  0.09090909  0.18181818       0.018
   0.27272727  0.09090909  0.18181818       0.018
   0.36363636  0.09090909  0.18181818       0.018
   0.45454545  0.09090909  0.18181818       0.009
   0.18181818  0.18181818  0.18181818       0.009
   0.27272727  0.18181818  0.18181818       0.018
   0.36363636  0.18181818  0.18181818       0.018
   0.27272727  0.27272727  0.18181818       0.009
   0.36363636  0.27272727  0.18181818       0.009
   0.00000000  0.00000000  0.27272727       0.002
   0.09090909 -0.00000000  0.27272727       0.009
   0.18181818 -0.00000000  0.27272727       0.009
   0.27272727  0.00000000  0.27272727       0.009
   0.36363636 -0.00000000  0.27272727       0.009
   0.45454545 -0.00000000  0.27272727       0.009
   0.09090909  0.09090909  0.27272727       0.009
   0.18181818  0.09090909  0.27272727       0.018
   0.27272727  0.09090909  0.27272727       0.018
   0.36363636  0.09090909  0.27272727       0.018
   0.45454545  0.09090909  0.27272727       0.009
   0.18181818  0.18181818  0.27272727       0.009
   0.27272727  0.18181818  0.27272727       0.018
   0.36363636  0.18181818  0.27272727       0.018
   0.27272727  0.27272727  0.27272727       0.009
   0.36363636  0.27272727  0.27272727       0.009
   0.00000000  0.00000000  0.36363636       0.002
   0.09090909 -0.00000000  0.36363636       0.009
   0.18181818 -0.00000000  0.36363636       0.009
   0.27272727  0.00000000  0.36363636       0.009
   0.36363636 -0.00000000  0.36363636       0.009
   0.45454545 -0.00000000  0.36363636       0.009
   0.09090909  0.09090909  0.36363636       0.009
   0.18181818  0.09090909  0.36363636       0.018
   0.27272727  0.09090909  0.36363636       0.018
   0.36363636  0.09090909  0.36363636       0.018
   0.45454545  0.09090909  0.36363636       0.009
   0.18181818  0.18181818  0.36363636       0.009
   0.27272727  0.18181818  0.36363636       0.018
   0.36363636  0.18181818  0.36363636       0.018
   0.27272727  0.27272727  0.36363636       0.009
   0.36363636  0.27272727  0.36363636       0.009
   0.00000000  0.00000000  0.45454545       0.002
   0.09090909 -0.00000000  0.45454545       0.009
   0.18181818 -0.00000000  0.45454545       0.009
   0.27272727  0.00000000  0.45454545       0.009
   0.36363636 -0.00000000  0.45454545       0.009
   0.45454545 -0.00000000  0.45454545       0.009
   0.09090909  0.09090909  0.45454545       0.009
   0.18181818  0.09090909  0.45454545       0.018
   0.27272727  0.09090909  0.45454545       0.018
   0.36363636  0.09090909  0.45454545       0.018
   0.45454545  0.09090909  0.45454545       0.009
   0.18181818  0.18181818  0.45454545       0.009
   0.27272727  0.18181818  0.45454545       0.018
   0.36363636  0.18181818  0.45454545       0.018
   0.27272727  0.27272727  0.45454545       0.009
   0.36363636  0.27272727  0.45454545       0.009
 
 position of ions in fractional coordinates (direct lattice) 
   0.00000000  0.00000000  0.00000000
   0.33333333  0.66666667  0.50000000
 
 position of ions in cartesian coordinates  (Angst):
   0.00000000  0.00000000  0.00000000
   0.00000000  1.31832160  1.98891000
 


--------------------------------------------------------------------------------------------------------


 k-point   1 :   0.0000 0.0000 0.0000  plane waves:     209
 k-point   2 :   0.0909-0.0000 0.0000  plane waves:     191
 k-point   3 :   0.1818-0.0000 0.0000  plane waves:     189
 k-point   4 :   0.2727 0.0000 0.0000  plane waves:     189
 k-point   5 :   0.3636-0.0000 0.0000  plane waves:     192
 k-point   6 :   0.4545-0.0000 0.0000  plane waves:     196
 k-point   7 :   0.0909 0.0909 0.0000  plane waves:     189
 k-point   8 :   0.1818 0.0909 0.0000  plane waves:     188
 k-point   9 :   0.2727 0.0909 0.0000  plane waves:     191
 k-point  10 :   0.3636 0.0909 0.0000  plane waves:     191
 k-point  11 :   0.4545 0.0909 0.0000  plane waves:     196
 k-point  12 :   0.1818 0.1818 0.0000  plane waves:     189
 k-point  13 :   0.2727 0.1818 0.0000  plane waves:     193
 k-point  14 :   0.3636 0.1818 0.0000  plane waves:     197
 k-point  15 :   0.2727 0.2727 0.0000  plane waves:     195
 k-point  16 :   0.3636 0.2727 0.0000  plane waves:     193
 k-point  17 :   0.0000 0.0000 0.0909  plane waves:     191
 k-point  18 :   0.0909-0.0000 0.0909  plane waves:     186
 k-point  19 :   0.1818-0.0000 0.0909  plane waves:     192
 k-point  20 :   0.2727 0.0000 0.0909  plane waves:     190
 k-point  21 :   0.3636-0.0000 0.0909  plane waves:     194
 k-point  22 :   0.4545-0.0000 0.0909  plane waves:     192
 k-point  23 :   0.0909 0.0909 0.0909  plane waves:     187
 k-point  24 :   0.1818 0.0909 0.0909  plane waves:     188
 k-point  25 :   0.2727 0.0909 0.0909  plane waves:     189
 k-point  26 :   0.3636 0.0909 0.0909  plane waves:     191
 k-point  27 :   0.4545 0.0909 0.0909  plane waves:     192
 k-point  28 :   0.1818 0.1818 0.0909  plane waves:     187
 k-point  29 :   0.2727 0.1818 0.0909  plane waves:     194
 k-point  30 :   0.3636 0.1818 0.0909  plane waves:     197
 k-point  31 :   0.2727 0.2727 0.0909  plane waves:     197
 k-point  32 :   0.3636 0.2727 0.0909  plane waves:     196
 k-point  33 :   0.0000 0.0000 0.1818  plane waves:     185
 k-point  34 :   0.0909-0.0000 0.1818  plane waves:     186
 k-point  35 :   0.1818-0.0000 0.1818  plane waves:     190
 k-point  36 :   0.2727 0.0000 0.1818  plane waves:     189
 k-point  37 :   0.3636-0.0000 0.1818  plane waves:     191
 k-point  38 :   0.4545-0.0000 0.1818  plane waves:     190
 k-point  39 :   0.0909 0.0909 0.1818  plane waves:     186
 k-point  40 :   0.1818 0.0909 0.1818  plane waves:     191
 k-point  41 :   0.2727 0.0909 0.1818  plane waves:     188
 k-point  42 :   0.3636 0.0909 0.1818  plane waves:     195
 k-point  43 :   0.4545 0.0909 0.1818  plane waves:     190
 k-point  44 :   0.1818 0.1818 0.1818  plane waves:     189
 k-point  45 :   0.2727 0.1818 0.1818  plane waves:     193
 k-point  46 :   0.3636 0.1818 0.1818  plane waves:     197
 k-point  47 :   0.2727 0.2727 0.1818  plane waves:     198
 k-point  48 :   0.3636 0.2727 0.1818  plane waves:     198
 k-point  49 :   0.0000 0.0000 0.2727  plane waves:     185
 k-point  50 :   0.0909-0.0000 0.2727  plane waves:     186
 k-point  51 :   0.1818-0.0000 0.2727  plane waves:     189
 k-point  52 :   0.2727 0.0000 0.2727  plane waves:     189
 k-point  53 :   0.3636-0.0000 0.2727  plane waves:     191
 k-point  54 :   0.4545-0.0000 0.2727  plane waves:     194
 k-point  55 :   0.0909 0.0909 0.2727  plane waves:     188
 k-point  56 :   0.1818 0.0909 0.2727  plane waves:     188
 k-point  57 :   0.2727 0.0909 0.2727  plane waves:     190
 k-point  58 :   0.3636 0.0909 0.2727  plane waves:     193
 k-point  59 :   0.4545 0.0909 0.2727  plane waves:     191
 k-point  60 :   0.1818 0.1818 0.2727  plane waves:     187
 k-point  61 :   0.2727 0.1818 0.2727  plane waves:     192
 k-point  62 :   0.3636 0.1818 0.2727  plane waves:     196
 k-point  63 :   0.2727 0.2727 0.2727  plane waves:     197
 k-point  64 :   0.3636 0.2727 0.2727  plane waves:     198
 k-point  65 :   0.0000 0.0000 0.3636  plane waves:     191
 k-point  66 :   0.0909-0.0000 0.3636  plane waves:     186
 k-point  67 :   0.1818-0.0000 0.3636  plane waves:     187
 k-point  68 :   0.2727 0.0000 0.3636  plane waves:     187
 k-point  69 :   0.3636-0.0000 0.3636  plane waves:     190
 k-point  70 :   0.4545-0.0000 0.3636  plane waves:     192
 k-point  71 :   0.0909 0.0909 0.3636  plane waves:     184
 k-point  72 :   0.1818 0.0909 0.3636  plane waves:     189
 k-point  73 :   0.2727 0.0909 0.3636  plane waves:     191
 k-point  74 :   0.3636 0.0909 0.3636  plane waves:     193
 k-point  75 :   0.4545 0.0909 0.3636  plane waves:     192
 k-point  76 :   0.1818 0.1818 0.3636  plane waves:     191
 k-point  77 :   0.2727 0.1818 0.3636  plane waves:     192
 k-point  78 :   0.3636 0.1818 0.3636  plane waves:     191
 k-point  79 :   0.2727 0.2727 0.3636  plane waves:     192
 k-point  80 :   0.3636 0.2727 0.3636  plane waves:     195
 k-point  81 :   0.0000 0.0000 0.4545  plane waves:     190
 k-point  82 :   0.0909-0.0000 0.4545  plane waves:     186
 k-point  83 :   0.1818-0.0000 0.4545  plane waves:     182
 k-point  84 :   0.2727 0.0000 0.4545  plane waves:     184
 k-point  85 :   0.3636-0.0000 0.4545  plane waves:     192
 k-point  86 :   0.4545-0.0000 0.4545  plane waves:     192
 k-point  87 :   0.0909 0.0909 0.4545  plane waves:     184
 k-point  88 :   0.1818 0.0909 0.4545  plane waves:     185
 k-point  89 :   0.2727 0.0909 0.4545  plane waves:     194
 k-point  90 :   0.3636 0.0909 0.4545  plane waves:     192
 k-point  91 :   0.4545 0.0909 0.4545  plane waves:     192
 k-point  92 :   0.1818 0.1818 0.4545  plane waves:     191
 k-point  93 :   0.2727 0.1818 0.4545  plane waves:     192
 k-point  94 :   0.3636 0.1818 0.4545  plane waves:     192
 k-point  95 :   0.2727 0.2727 0.4545  plane waves:     192
 k-point  96 :   0.3636 0.2727 0.4545  plane waves:     194

 maximum number of plane-waves:       209
 maximum index in each direction: 
   IXMAX=    3   IYMAX=    3   IZMAX=    5
   IXMIN=   -3   IYMIN=   -3   IZMIN=   -5


 total amount of memory used by VASP MPI-rank0    48699. kBytes
=======================================================================

   base      :      30000. kBytes
   nonl-proj :       2895. kBytes
   grid      :        721. kBytes
   one-center:         31. kBytes
   wavefun   :      15052. kBytes
 
     INWAV:  cpu time    0.0000: real time    0.0000
 Broyden mixing: mesh for mixing (old mesh)
   NGX =  7   NGY =  7   NGZ = 11
  (NGX  = 20   NGY  = 20   NGZ  = 32)
  gives a total of    539 points

 initial charge density was supplied:
 charge density of overlapping atoms calculated
 number of electron      16.0000000 magnetization 
 keeping initial charge density in first step


--------------------------------------------------------------------------------------------------------


 Maximum index for augmentation-charges         3084 (set IRDMAX)


--------------------------------------------------------------------------------------------------------


 First call to EWALD:  gamma=   0.677
 Maximum number of real-space cells 3x 3x 2
 Maximum number of reciprocal cells 2x 2x 4

    FEWALD:  cpu time    0.0008: real time    0.0008


--------------------------------------- Iteration      1(   1)  ---------------------------------------


    POTLOK:  cpu time    0.0030: real time    0.0031
    SETDIJ:  cpu time    0.0022: real time    0.0022
     EDDAV:  cpu time    0.7324: real time    0.7523
       DOS:  cpu time    0.0055: real time    0.0055
    --------------------------------------------
      LOOP:  cpu time    0.7431: real time    0.7630

 eigenvalue-minimisations  :  9416
 total energy-change (2. order) : 0.5941665E+02  (-0.2464033E+03)
 number of electron      16.0000000 magnetization 
 augmentation part       16.0000000 magnetization 

 Free energy of the ion-electron system (eV)
  ---------------------------------------------------
  alpha Z        PSCENC =       153.91638700
  Ewald energy   TEWEN  =     -1279.75456398
  -Hartree energ DENC   =      -188.78213580
  -exchange      EXHF   =         0.00000000
  -V(xc)+E(xc)   XCENC  =         9.32951567
  PAW double counting   =      1109.69170683    -1125.09647265
  entropy T*S    EENTRO =        -0.00532722
  eigenvalues    EBANDS =       191.54262969
  atomic energy  EATOM  =      1188.57490811
  Solvation  Ediel_sol  =         0.00000000
  ---------------------------------------------------
  free energy    TOTEN  =        59.41664766 eV

  energy without entropy =       59.42197487  energy(sigma->0) =       59.41842340


--------------------------------------------------------------------------------------------------------




--------------------------------------- Iteration      1(   2)  ---------------------------------------


     EDDAV:  cpu time    0.6265: real time    0.6265
       DOS:  cpu time    0.0059: real time    0.0059
    --------------------------------------------
      LOOP:  cpu time    0.6324: real time    0.6325

 eigenvalue-minimisations  :  7880
 total energy-change (2. order) :-0.7392837E+02  (-0.6314858E+02)
 number of electron      16.0000000 magnetization 
 augmentation part       16.0000000 magnetization 

 Free energy of the ion-electron system (eV)
  ---------------------------------------------------
  alpha Z        PSCENC =       153.91638700
  Ewald energy   TEWEN  =     -1279.75456398
  -Hartree energ DENC   =      -188.78213580
  -exchange      EXHF   =         0.00000000
  -V(xc)+E(xc)   XCENC  =         9.32951567
  PAW double counting   =      1109.69170683    -1125.09647265
  entropy T*S    EENTRO =         0.00083868
  eigenvalues    EBANDS =       117.60809104
  atomic energy  EATOM  =      1188.57490811
  Solvation  Ediel_sol  =         0.00000000
  ---------------------------------------------------
  free energy    TOTEN  =       -14.51172510 eV

  energy without entropy =      -14.51256378  energy(sigma->0) =      -14.51200466


--------------------------------------------------------------------------------------------------------




--------------------------------------- Iteration      1(   3)  ---------------------------------------


     EDDAV:  cpu time    0.7280: real time    0.7280
       DOS:  cpu time    0.0063: real time    0.0063
    --------------------------------------------
      LOOP:  cpu time    0.7344: real time    0.7344

 eigenvalue-minimisations  :  9608
 total energy-change (2. order) :-0.4067139E+01  (-0.3908487E+01)
 number of electron      16.0000000 magnetization 
 augmentation part       16.0000000 magnetization 

 Free energy of the ion-electron system (eV)
  ---------------------------------------------------
  alpha Z        PSCENC =       153.91638700
  Ewald energy   TEWEN  =     -1279.75456398
  -Hartree energ DENC   =      -188.78213580
  -exchange      EXHF   =         0.00000000
  -V(xc)+E(xc)   XCENC  =         9.32951567
  PAW double counting   =      1109.69170683    -1125.09647265
  entropy T*S    EENTRO =         0.00040207
  eigenvalues    EBANDS =       113.54138869
  atomic energy  EATOM  =      1188.57490811
  Solvation  Ediel_sol  =         0.00000000
  ---------------------------------------------------
  free energy    TOTEN  =       -18.57886406 eV

  energy without entropy =      -18.57926613  energy(sigma->0) =      -18.57899809


--------------------------------------------------------------------------------------------------------




--------------------------------------- Iteration      1(   4)  ---------------------------------------


     EDDAV:  cpu time    0.6754: real time    0.6754
       DOS:  cpu time    0.0064: real time    0.0064
    --------------------------------------------
      LOOP:  cpu time    0.6817: real time    0.6818

 eigenvalue-minimisations  :  8912
 total energy-change (2. order) :-0.1446724E-01  (-0.1446070E-01)
 number of electron      16.0000000 magnetization 
 augmentation part       16.0000000 magnetization 

 Free energy of the ion-electron system (eV)
  ---------------------------------------------------
  alpha Z        PSCENC =       153.91638700
  Ewald energy   TEWEN  =     -1279.75456398
  -Hartree energ DENC   =      -188.78213580
  -exchange      EXHF   =         0.00000000
  -V(xc)+E(xc)   XCENC  =         9.32951567
  PAW double counting   =      1109.69170683    -1125.09647265
  entropy T*S    EENTRO =         0.00040028
  eigenvalues    EBANDS =       113.52692324
  atomic energy  EATOM  =      1188.57490811
  Solvation  Ediel_sol  =         0.00000000
  ---------------------------------------------------
  free energy    TOTEN  =       -18.59333130 eV

  energy without entropy =      -18.59373158  energy(sigma->0) =      -18.59346473


--------------------------------------------------------------------------------------------------------




--------------------------------------- Iteration      1(   5)  ---------------------------------------


     EDDAV:  cpu time    0.6927: real time    0.6928
       DOS:  cpu time    0.0062: real time    0.0062
    CHARGE:  cpu time    0.0174: real time    0.0175
    MIXING:  cpu time    0.0001: real time    0.0001
    --------------------------------------------
      LOOP:  cpu time    0.7165: real time    0.7165

 eigenvalue-minimisations  :  9192
 total energy-change (2. order) :-0.9351018E-05  (-0.9350874E-05)
 number of electron      16.0000165 magnetization 
 augmentation part        7.1833752 magnetization 

 Broyden mixing:
  rms(total) = 0.19570E+01    rms(broyden)= 0.19569E+01
  rms(prec ) = 0.30124E+01
  weight for this iteration     100.00

 Free energy of the ion-electron system (eV)
  ---------------------------------------------------
  alpha Z        PSCENC =       153.91638700
  Ewald energy   TEWEN  =     -1279.75456398
  -Hartree energ DENC   =      -188.78213580
  -exchange      EXHF   =         0.00000000
  -V(xc)+E(xc)   XCENC  =         9.32951567
  PAW double counting   =      1109.69170683    -1125.09647265
  entropy T*S    EENTRO =         0.00040026
  eigenvalues    EBANDS =       113.52691391
  atomic energy  EATOM  =      1188.57490811
  Solvation  Ediel_sol  =         0.00000000
  ---------------------------------------------------
  free energy    TOTEN  =       -18.59334065 eV

  energy without entropy =      -18.59374091  energy(sigma->0) =      -18.59347407


--------------------------------------------------------------------------------------------------------




--------------------------------------- Iteration      1(   6)  ---------------------------------------


    POTLOK:  cpu time    0.0029: real time    0.0029
    SETDIJ:  cpu time    0.0021: real time    0.0021
     EDDAV:  cpu time    0.8365: real time    0.8366
       DOS:  cpu time    0.0063: real time    0.0063
    CHARGE:  cpu time    0.0171: real time    0.0171
    MIXING:  cpu time    0.0002: real time    0.0002
    --------------------------------------------
      LOOP:  cpu time    0.8651: real time    0.8651

 eigenvalue-minimisations  : 11240
 total energy-change (2. order) : 0.2645263E+01  (-0.1368173E+00)
 number of electron      16.0000197 magnetization 
 augmentation part        8.3322081 magnetization 

 Broyden mixing:
  rms(total) = 0.14895E+00    rms(broyden)= 0.14887E+00
  rms(prec ) = 0.19045E+00
  weight for this iteration     100.00

 eigenvalues of (default mixing * dielectric matrix)
  average eigenvalue GAMMA=   1.0228
  1.0228

 Free energy of the ion-electron system (eV)
  ---------------------------------------------------
  alpha Z        PSCENC =       153.91638700
  Ewald energy   TEWEN  =     -1279.75456398
  -Hartree energ DENC   =      -158.13908811
  -exchange      EXHF   =         0.00000000
  -V(xc)+E(xc)   XCENC  =         7.82138590
  PAW double counting   =      1334.82286860    -1347.06672064
  entropy T*S    EENTRO =         0.00096158
  eigenvalues    EBANDS =        83.87578340
  atomic energy  EATOM  =      1188.57490811
  Solvation  Ediel_sol  =         0.00000000
  ---------------------------------------------------
  free energy    TOTEN  =       -15.94807813 eV

  energy without entropy =      -15.94903971  energy(sigma->0) =      -15.94839866


--------------------------------------------------------------------------------------------------------




--------------------------------------- Iteration      1(   7)  ---------------------------------------


    POTLOK:  cpu time    0.0029: real time    0.0029
    SETDIJ:  cpu time    0.0021: real time    0.0021
     EDDAV:  cpu time    0.7306: real time    0.7306
       DOS:  cpu time    0.0064: real time    0.0064
    CHARGE:  cpu time    0.0171: real time    0.0171
    MIXING:  cpu time    0.0002: real time    0.0002
    --------------------------------------------
      LOOP:  cpu time    0.7593: real time    0.7593

 eigenvalue-minimisations  :  9816
 total energy-change (2. order) : 0.1185002E+00  (-0.5974169E-02)
 number of electron      16.0000193 magnetization 
 augmentation part        8.1744440 magnetization 

 Broyden mixing:
  rms(total) = 0.14890E+00    rms(broyden)= 0.14890E+00
  rms(prec ) = 0.21840E+00
  weight for this iteration     100.00

 eigenvalues of (default mixing * dielectric matrix)
  average eigenvalue GAMMA=   1.1721
  0.8288  1.5153

 Free energy of the ion-electron system (eV)
  ---------------------------------------------------
  alpha Z        PSCENC =       153.91638700
  Ewald energy   TEWEN  =     -1279.75456398
  -Hartree energ DENC   =      -159.30077452
  -exchange      EXHF   =         0.00000000
  -V(xc)+E(xc)   XCENC  =         7.90603500
  PAW double counting   =      1446.32125131    -1461.94851866
  entropy T*S    EENTRO =         0.00087261
  eigenvalues    EBANDS =        88.45482515
  atomic energy  EATOM  =      1188.57490811
  Solvation  Ediel_sol  =         0.00000000
  ---------------------------------------------------
  free energy    TOTEN  =       -15.82957797 eV

  energy without entropy =      -15.83045057  energy(sigma->0) =      -15.82986884


--------------------------------------------------------------------------------------------------------




--------------------------------------- Iteration      1(   8)  ---------------------------------------


    POTLOK:  cpu time    0.0029: real time    0.0029
    SETDIJ:  cpu time    0.0021: real time    0.0021
     EDDAV:  cpu time    0.7803: real time    0.7804
       DOS:  cpu time    0.0063: real time    0.0063
    CHARGE:  cpu time    0.0171: real time    0.0171
    MIXING:  cpu time    0.0002: real time    0.0002
    --------------------------------------------
      LOOP:  cpu time    0.8090: real time    0.8090

 eigenvalue-minimisations  : 10392
 total energy-change (2. order) : 0.3598496E-01  (-0.2149498E-03)
 number of electron      16.0000194 magnetization 
 augmentation part        8.1978288 magnetization 

 Broyden mixing:
  rms(total) = 0.55402E-01    rms(broyden)= 0.55402E-01
  rms(prec ) = 0.78193E-01
  weight for this iteration     100.00

 eigenvalues of (default mixing * dielectric matrix)
  average eigenvalue GAMMA=   1.5378
  2.6883  1.0694  0.8557

 Free energy of the ion-electron system (eV)
  ---------------------------------------------------
  alpha Z        PSCENC =       153.91638700
  Ewald energy   TEWEN  =     -1279.75456398
  -Hartree energ DENC   =      -156.85990193
  -exchange      EXHF   =         0.00000000
  -V(xc)+E(xc)   XCENC  =         7.80788622
  PAW double counting   =      1556.48330501    -1574.07414971
  entropy T*S    EENTRO =         0.00089008
  eigenvalues    EBANDS =        88.11164617
  atomic energy  EATOM  =      1188.57490811
  Solvation  Ediel_sol  =         0.00000000
  ---------------------------------------------------
  free energy    TOTEN  =       -15.79359301 eV

  energy without entropy =      -15.79448309  energy(sigma->0) =      -15.79388971


--------------------------------------------------------------------------------------------------------




--------------------------------------- Iteration      1(   9)  ---------------------------------------


    POTLOK:  cpu time    0.0028: real time    0.0028
    SETDIJ:  cpu time    0.0021: real time    0.0021
     EDDAV:  cpu time    0.7699: real time    0.7700
       DOS:  cpu time    0.0063: real time    0.0063
    CHARGE:  cpu time    0.0169: real time    0.0169
    MIXING:  cpu time    0.0002: real time    0.0002
    --------------------------------------------
      LOOP:  cpu time    0.7982: real time    0.7983

 eigenvalue-minimisations  : 10416
 total energy-change (2. order) : 0.6873632E-02  (-0.7439556E-04)
 number of electron      16.0000194 magnetization 
 augmentation part        8.2067535 magnetization 

 Broyden mixing:
  rms(total) = 0.64204E-02    rms(broyden)= 0.64198E-02
  rms(prec ) = 0.88429E-02
  weight for this iteration     100.00

 eigenvalues of (default mixing * dielectric matrix)
  average eigenvalue GAMMA=   1.6138
  2.6949  0.8623  0.9911  1.9070

 Free energy of the ion-electron system (eV)
  ---------------------------------------------------
  alpha Z        PSCENC =       153.91638700
  Ewald energy   TEWEN  =     -1279.75456398
  -Hartree energ DENC   =      -155.29278160
  -exchange      EXHF   =         0.00000000
  -V(xc)+E(xc)   XCENC  =         7.74835721
  PAW double counting   =      1644.32528281    -1663.38479744
  entropy T*S    EENTRO =         0.00088877
  eigenvalues    EBANDS =        88.07959974
  atomic energy  EATOM  =      1188.57490811
  Solvation  Ediel_sol  =         0.00000000
  ---------------------------------------------------
  free energy    TOTEN  =       -15.78671938 eV

  energy without entropy =      -15.78760816  energy(sigma->0) =      -15.78701564


--------------------------------------------------------------------------------------------------------




--------------------------------------- Iteration      1(  10)  ---------------------------------------


    POTLOK:  cpu time    0.0030: real time    0.0030
    SETDIJ:  cpu time    0.0021: real time    0.0021
     EDDAV:  cpu time    0.6454: real time    0.6454
       DOS:  cpu time    0.0064: real time    0.0064
    CHARGE:  cpu time    0.0169: real time    0.0169
    MIXING:  cpu time    0.0002: real time    0.0002
    --------------------------------------------
      LOOP:  cpu time    0.6740: real time    0.6740

 eigenvalue-minimisations  :  8440
 total energy-change (2. order) : 0.6368379E-05  (-0.2504285E-05)
 number of electron      16.0000194 magnetization 
 augmentation part        8.2063954 magnetization 

 Broyden mixing:
  rms(total) = 0.22654E-02    rms(broyden)= 0.22648E-02
  rms(prec ) = 0.33792E-02
  weight for this iteration     100.00

 eigenvalues of (default mixing * dielectric matrix)
  average eigenvalue GAMMA=   1.6562
  2.6121  2.4868  0.8607  1.0024  1.3192

 Free energy of the ion-electron system (eV)
  ---------------------------------------------------
  alpha Z        PSCENC =       153.91638700
  Ewald energy   TEWEN  =     -1279.75456398
  -Hartree energ DENC   =      -155.39334172
  -exchange      EXHF   =         0.00000000
  -V(xc)+E(xc)   XCENC  =         7.75356931
  PAW double counting   =      1644.75883415    -1663.71689735
  entropy T*S    EENTRO =         0.00088592
  eigenvalues    EBANDS =        88.07350553
  atomic energy  EATOM  =      1188.57490811
  Solvation  Ediel_sol  =         0.00000000
  ---------------------------------------------------
  free energy    TOTEN  =       -15.78671301 eV

  energy without entropy =      -15.78759893  energy(sigma->0) =      -15.78700832


--------------------------------------------------------------------------------------------------------




--------------------------------------- Iteration      1(  11)  ---------------------------------------


    POTLOK:  cpu time    0.0029: real time    0.0029
    SETDIJ:  cpu time    0.0021: real time    0.0021
     EDDAV:  cpu time    0.6436: real time    0.6436
       DOS:  cpu time    0.0063: real time    0.0063
    CHARGE:  cpu time    0.0173: real time    0.0173
    MIXING:  cpu time    0.0002: real time    0.0002
    --------------------------------------------
      LOOP:  cpu time    0.6724: real time    0.6724

 eigenvalue-minimisations  :  8176
 total energy-change (2. order) : 0.1654811E-04  (-0.2420391E-07)
 number of electron      16.0000194 magnetization 
 augmentation part        8.2061351 magnetization 

 Broyden mixing:
  rms(total) = 0.16392E-03    rms(broyden)= 0.16387E-03
  rms(prec ) = 0.30149E-03
  weight for this iteration     100.00

 eigenvalues of (default mixing * dielectric matrix)
  average eigenvalue GAMMA=   1.5814
  2.5826  2.5826  0.8606  1.0100  1.0100  1.4426

 Free energy of the ion-electron system (eV)
  ---------------------------------------------------
  alpha Z        PSCENC =       153.91638700
  Ewald energy   TEWEN  =     -1279.75456398
  -Hartree energ DENC   =      -155.45811308
  -exchange      EXHF   =         0.00000000
  -V(xc)+E(xc)   XCENC  =         7.75654183
  PAW double counting   =      1643.64886609    -1662.54280329
  entropy T*S    EENTRO =         0.00088604
  eigenvalues    EBANDS =        88.07119480
  atomic energy  EATOM  =      1188.57490811
  Solvation  Ediel_sol  =         0.00000000
  ---------------------------------------------------
  free energy    TOTEN  =       -15.78669646 eV

  energy without entropy =      -15.78758250  energy(sigma->0) =      -15.78699181


--------------------------------------------------------------------------------------------------------




--------------------------------------- Iteration      1(  12)  ---------------------------------------


    POTLOK:  cpu time    0.0030: real time    0.0030
    SETDIJ:  cpu time    0.0021: real time    0.0021
     EDDAV:  cpu time    0.5204: real time    0.5204
       DOS:  cpu time    0.0063: real time    0.0063
    CHARGE:  cpu time    0.0172: real time    0.0172
    MIXING:  cpu time    0.0002: real time    0.0002
    --------------------------------------------
      LOOP:  cpu time    0.5492: real time    0.5493

 eigenvalue-minimisations  :  6056
 total energy-change (2. order) : 0.1252492E-05  (-0.7345919E-08)
 number of electron      16.0000194 magnetization 
 augmentation part        8.2060974 magnetization 

 Broyden mixing:
  rms(total) = 0.12042E-03    rms(broyden)= 0.12036E-03
  rms(prec ) = 0.13498E-03
  weight for this iteration     100.00

 eigenvalues of (default mixing * dielectric matrix)
  average eigenvalue GAMMA=   1.5910
  2.5612  2.5612  1.7768  0.8608  0.9802  1.0230  1.3740

 Free energy of the ion-electron system (eV)
  ---------------------------------------------------
  alpha Z        PSCENC =       153.91638700
  Ewald energy   TEWEN  =     -1279.75456398
  -Hartree energ DENC   =      -155.46613357
  -exchange      EXHF   =         0.00000000
  -V(xc)+E(xc)   XCENC  =         7.75689770
  PAW double counting   =      1643.55828027    -1662.44466159
  entropy T*S    EENTRO =         0.00088618
  eigenvalues    EBANDS =        88.07130466
  atomic energy  EATOM  =      1188.57490811
  Solvation  Ediel_sol  =         0.00000000
  ---------------------------------------------------
  free energy    TOTEN  =       -15.78669521 eV

  energy without entropy =      -15.78758139  energy(sigma->0) =      -15.78699061


--------------------------------------------------------------------------------------------------------




--------------------------------------- Iteration      1(  13)  ---------------------------------------


    POTLOK:  cpu time    0.0029: real time    0.0029
    SETDIJ:  cpu time    0.0021: real time    0.0021
     EDDAV:  cpu time    0.4793: real time    0.4794
       DOS:  cpu time    0.0064: real time    0.0064
    --------------------------------------------
      LOOP:  cpu time    0.4907: real time    0.4908

 eigenvalue-minimisations  :  5224
 total energy-change (2. order) :-0.3783964E-06  (-0.1000002E-08)
 number of electron      16.0000194 magnetization 
 augmentation part        8.2060974 magnetization 

 Free energy of the ion-electron system (eV)
  ---------------------------------------------------
  alpha Z        PSCENC =       153.91638700
  Ewald energy   TEWEN  =     -1279.75456398
  -Hartree energ DENC   =      -155.46466446
  -exchange      EXHF   =         0.00000000
  -V(xc)+E(xc)   XCENC  =         7.75682536
  PAW double counting   =      1643.63150783    -1662.51962050
  entropy T*S    EENTRO =         0.00088618
  eigenvalues    EBANDS =        88.07163885
  atomic energy  EATOM  =      1188.57490811
  Solvation  Ediel_sol  =         0.00000000
  ---------------------------------------------------
  free energy    TOTEN  =       -15.78669559 eV

  energy without entropy =      -15.78758177  energy(sigma->0) =      -15.78699098


--------------------------------------------------------------------------------------------------------




 average (electrostatic) potential at core
  the test charge radii are     1.0103
  (the norm of the test charge is              1.0000)
       1 -41.2517       2 -41.2519
 
 
 
 E-fermi :   8.4108     XC(G=0): -14.5458     alpha+bet :-17.2598

 Fermi energy:         8.4108291886

 k-point     1 :       0.0000    0.0000    0.0000
  band No.  band energies     occupation 
      1      -1.2079      2.00000
      2       2.6901      2.00000
      3       5.8716      2.00000
      4       6.5227      2.00000
      5       6.5228      2.00000
      6       6.9156      2.00000
      7       6.9157      2.00000
      8       7.7593      2.00004
      9       7.9802      2.00946
     10       7.9802      2.00946
     11       9.3128     -0.00000
     12       9.3128     -0.00000
     13      17.1475      0.00000
     14      32.7822      0.00000
     15      33.5970      0.00000
     16      36.1768      0.00000
     17      39.3620      0.00000
     18      39.3621      0.00000
     19      40.0480      0.00000
     20      40.0481      0.00000
     21      41.5548      0.00000
     22      42.5817      0.00000
     23      42.5818      0.00000
     24      43.6908      0.00000
     25      46.9278      0.00000
     26      46.9278      0.00000
     27      48.3444      0.00000
     28      51.3960      0.00000
     29      51.3965      0.00000
     30      53.3037      0.00000
     31      53.3039      0.00000
     32      56.4459      0.00000
     33      64.2683      0.00000
     34      64.3308      0.00000
     35      64.7796      0.00000
     36      64.7805      0.00000
     37      66.1174      0.00000
     38      68.2418      0.00000
     39      68.2429      0.00000
     40      71.0242      0.00000

 k-point     2 :       0.0909   -0.0000    0.0000
  band No.  band energies     occupation 
      1      -0.8448      2.00000
      2       2.9623      2.00000
      3       5.8508      2.00000
      4       6.4817      2.00000
      5       6.7241      2.00000
      6       6.7508      2.00000
      7       6.7862      2.00000
      8       7.1265      2.00000
      9       7.8163      2.00022
     10       7.8436      2.00045
     11       9.3575     -0.00000
     12      10.6207     -0.00000
     13      17.1669      0.00000
     14      31.7821      0.00000
     15      33.9414      0.00000
     16      34.7299      0.00000
     17      36.3725      0.00000
     18      38.3529      0.00000
     19      38.4649      0.00000
     20      41.4325      0.00000
     21      42.1026      0.00000
     22      43.2228      0.00000
     23      43.6988      0.00000
     24      43.9157      0.00000
     25      48.0636      0.00000
     26      48.2930      0.00000
     27      48.8634      0.00000
     28      49.1416      0.00000
     29      52.4484      0.00000
     30      54.9234      0.00000
     31      55.7531      0.00000
     32      58.0612      0.00000
     33      62.7107      0.00000
     34      64.0341      0.00000
     35      64.0516      0.00000
     36      64.8281      0.00000
     37      65.1707      0.00000
     38      68.8057      0.00000
     39      70.5575      0.00000
     40      71.0499      0.00000

 k-point     3 :       0.1818   -0.0000    0.0000
  band No.  band energies     occupation 
      1       0.1720      2.00000
      2       3.5887      2.00000
      3       5.4410      2.00000
      4       5.5794      2.00000
      5       6.2921      2.00000
      6       6.9742      2.00000
      7       7.3851      2.00000
      8       7.4125      2.00000
      9       7.5219      2.00000
     10       7.7081      2.00001
     11       9.4348     -0.00000
     12      12.6805     -0.00000
     13      17.2400      0.00000
     14      28.2252      0.00000
     15      33.3201      0.00000
     16      33.4366      0.00000
     17      33.8040      0.00000
     18      34.8643      0.00000
     19      39.3828      0.00000
     20      40.7036      0.00000
     21      41.3256      0.00000
     22      41.3524      0.00000
     23      44.5144      0.00000
     24      45.9002      0.00000
     25      48.4813      0.00000
     26      49.2190      0.00000
     27      50.7527      0.00000
     28      53.1615      0.00000
     29      55.8462      0.00000
     30      57.6825      0.00000
     31      58.5566      0.00000
     32      60.6268      0.00000
     33      61.3062      0.00000
     34      62.4097      0.00000
     35      62.5246      0.00000
     36      63.4658      0.00000
     37      66.3116      0.00000
     38      69.5412      0.00000
     39      71.1522      0.00000
     40      71.5826      0.00000

 k-point     4 :       0.2727    0.0000    0.0000
  band No.  band energies     occupation 
      1       1.5747      2.00000
      2       3.8373      2.00000
      3       4.4302      2.00000
      4       5.5286      2.00000
      5       6.1120      2.00000
      6       6.9072      2.00000
      7       7.1576      2.00000
      8       7.8686      2.00086
      9       8.2854      1.86379
     10       8.5226      0.19879
     11       9.4805     -0.00000
     12      14.9639      0.00000
     13      17.4053      0.00000
     14      24.1657      0.00000
     15      30.0944      0.00000
     16      30.6805      0.00000
     17      31.9501      0.00000
     18      34.6326      0.00000
     19      37.8663      0.00000
     20      40.7748      0.00000
     21      41.2358      0.00000
     22      41.4976      0.00000
     23      42.1238      0.00000
     24      46.0236      0.00000
     25      51.9574      0.00000
     26      53.5694      0.00000
     27      54.3782      0.00000
     28      56.0760      0.00000
     29      57.2955      0.00000
     30      58.1285      0.00000
     31      59.8979      0.00000
     32      61.6301      0.00000
     33      61.6359      0.00000
     34      62.4119      0.00000
     35      63.1915      0.00000
     36      65.9656      0.00000
     37      66.2231      0.00000
     38      70.1622      0.00000
     39      70.9624      0.00000
     40      71.1928      0.00000

 k-point     5 :       0.3636   -0.0000    0.0000
  band No.  band energies     occupation 
      1       2.7239      2.00000
      2       3.5171      2.00000
      3       3.7449      2.00000
      4       5.7946      2.00000
      5       6.4641      2.00000
      6       6.5545      2.00000
      7       6.8579      2.00000
      8       9.1964     -0.00000
      9       9.3070     -0.00000
     10       9.3490     -0.00000
     11       9.4950     -0.00000
     12      17.1115      0.00000
     13      17.3667      0.00000
     14      21.2810      0.00000
     15      26.7403      0.00000
     16      28.6565      0.00000
     17      29.2303      0.00000
     18      33.6886      0.00000
     19      36.6557      0.00000
     20      39.9430      0.00000
     21      40.4272      0.00000
     22      42.5099      0.00000
     23      43.3649      0.00000
     24      46.2550      0.00000
     25      54.1251      0.00000
     26      55.2131      0.00000
     27      55.5247      0.00000
     28      58.7529      0.00000
     29      59.1537      0.00000
     30      59.4016      0.00000
     31      61.3990      0.00000
     32      62.4952      0.00000
     33      62.7411      0.00000
     34      63.5072      0.00000
     35      64.4505      0.00000
     36      66.1643      0.00000
     37      70.2055      0.00000
     38      70.4923      0.00000
     39      70.6219      0.00000
     40      70.6680      0.00000

 k-point     6 :       0.4545   -0.0000    0.0000
  band No.  band energies     occupation 
      1       3.0271      2.00000
      2       3.3321      2.00000
      3       3.4001      2.00000
      4       6.2094      2.00000
      5       6.4280      2.00000
      6       6.6904      2.00000
      7       6.8346      2.00000
      8       9.4932     -0.00000
      9       9.7647     -0.00000
     10       9.9086     -0.00000
     11      11.2089     -0.00000
     12      15.0185      0.00000
     13      19.6101      0.00000
     14      21.3095      0.00000
     15      24.0419      0.00000
     16      26.5446      0.00000
     17      27.5142      0.00000
     18      33.0110      0.00000
     19      36.2608      0.00000
     20      38.7122      0.00000
     21      40.2618      0.00000
     22      43.4330      0.00000
     23      45.5890      0.00000
     24      46.2692      0.00000
     25      50.7952      0.00000
     26      56.2233      0.00000
     27      56.9989      0.00000
     28      60.4810      0.00000
     29      60.7964      0.00000
     30      61.6762      0.00000
     31      63.0362      0.00000
     32      63.3134      0.00000
     33      63.4324      0.00000
     34      65.9857      0.00000
     35      66.2494      0.00000
     36      68.5948      0.00000
     37      68.9147      0.00000
     38      69.1086      0.00000
     39      71.4463      0.00000
     40      71.6879      0.00000

 k-point     7 :       0.0909    0.0909    0.0000
  band No.  band energies     occupation 
      1      -0.1513      2.00000
      2       3.4350      2.00000
      3       5.6257      2.00000
      4       5.7819      2.00000
      5       6.5349      2.00000
      6       6.6075      2.00000
      7       7.2142      2.00000
      8       7.3430      2.00000
      9       7.5800      2.00000
     10       7.8157      2.00021
     11       9.3801     -0.00000
     12      12.1129     -0.00000
     13      17.2173      0.00000
     14      29.8945      0.00000
     15      31.5319      0.00000
     16      34.3977      0.00000
     17      35.3985      0.00000
     18      37.1673      0.00000
     19      37.4451      0.00000
     20      39.6069      0.00000
     21      40.9791      0.00000
     22      45.1533      0.00000
     23      45.4083      0.00000
     24      46.4559      0.00000
     25      47.0040      0.00000
     26      47.5094      0.00000
     27      47.7219      0.00000
     28      53.5519      0.00000
     29      56.0340      0.00000
     30      56.7799      0.00000
     31      56.8429      0.00000
     32      60.0903      0.00000
     33      61.1554      0.00000
     34      63.1216      0.00000
     35      63.4740      0.00000
     36      63.8444      0.00000
     37      65.0510      0.00000
     38      69.8647      0.00000
     39      70.8129      0.00000
     40      72.1098      0.00000

 k-point     8 :       0.1818    0.0909    0.0000
  band No.  band energies     occupation 
      1       1.0925      2.00000
      2       4.0132      2.00000
      3       4.8005      2.00000
      4       5.2547      2.00000
      5       6.2116      2.00000
      6       6.8397      2.00000
      7       7.1262      2.00000
      8       7.5211      2.00000
      9       8.0442      2.02638
     10       8.4277      0.85807
     11       9.3912     -0.00000
     12      14.1697      0.00000
     13      17.3883      0.00000
     14      26.2341      0.00000
     15      29.0004      0.00000
     16      31.8827      0.00000
     17      34.1930      0.00000
     18      34.9396      0.00000
     19      38.2924      0.00000
     20      38.8848      0.00000
     21      39.9397      0.00000
     22      44.6359      0.00000
     23      44.8604      0.00000
     24      46.0787      0.00000
     25      49.0930      0.00000
     26      49.8684      0.00000
     27      51.9095      0.00000
     28      56.6100      0.00000
     29      58.3316      0.00000
     30      58.7557      0.00000
     31      59.3170      0.00000
     32      61.1322      0.00000
     33      61.3588      0.00000
     34      62.5346      0.00000
     35      63.2942      0.00000
     36      63.6130      0.00000
     37      65.7071      0.00000
     38      70.4613      0.00000
     39      70.4742      0.00000
     40      71.8582      0.00000

 k-point     9 :       0.2727    0.0909    0.0000
  band No.  band energies     occupation 
      1       2.4801      2.00000
      2       3.8924      2.00000
      3       4.0470      2.00000
      4       5.3751      2.00000
      5       6.3047      2.00000
      6       6.4426      2.00000
      7       7.0859      2.00000
      8       8.0241      2.01971
      9       8.9590     -0.00074
     10       9.3890     -0.00000
     11       9.5344     -0.00000
     12      16.4810      0.00000
     13      17.6341      0.00000
     14      22.4832      0.00000
     15      27.1647      0.00000
     16      28.4831      0.00000
     17      31.6877      0.00000
     18      32.9983      0.00000
     19      37.7277      0.00000
     20      38.9401      0.00000
     21      40.2506      0.00000
     22      44.2822      0.00000
     23      44.2941      0.00000
     24      47.1753      0.00000
     25      51.2299      0.00000
     26      53.7958      0.00000
     27      55.4897      0.00000
     28      56.1771      0.00000
     29      57.4089      0.00000
     30      60.0790      0.00000
     31      60.6986      0.00000
     32      62.5474      0.00000
     33      63.0589      0.00000
     34      63.6344      0.00000
     35      64.0859      0.00000
     36      65.6495      0.00000
     37      69.0367      0.00000
     38      69.7111      0.00000
     39      70.0790      0.00000
     40      72.1132      0.00000

 k-point    10 :       0.3636    0.0909    0.0000
  band No.  band energies     occupation 
      1       3.2137      2.00000
      2       3.5703      2.00000
      3       3.5852      2.00000
      4       5.8995      2.00000
      5       6.2215      2.00000
      6       6.6980      2.00000
[...]
     17      29.1967      0.00000
     18      30.3452      0.00000
     19      35.7850      0.00000
     20      36.4820      0.00000
     21      40.4923      0.00000
     22      41.1211      0.00000
     23      46.1257      0.00000
     24      47.2299      0.00000
     25      53.2311      0.00000
     26      55.0293      0.00000
     27      57.2401      0.00000
     28      58.0661      0.00000
     29      60.5203      0.00000
     30      61.8422      0.00000
     31      62.6922      0.00000
     32      62.8384      0.00000
     33      65.1444      0.00000
     34      65.4979      0.00000
     35      67.0191      0.00000
     36      67.4442      0.00000
     37      68.1794      0.00000
     38      69.5690      0.00000
     39      71.8641      0.00000
     40      72.4069      0.00000

 k-point    91 :       0.4545    0.0909    0.4545
  band No.  band energies     occupation 
      1       2.8937      2.00000
      2       3.0664      2.00000
      3       4.4518      2.00000
      4       4.5748      2.00000
      5       7.1414      2.00000
      6       7.6229      2.00000
      7       8.4005      1.08704
      8       8.7542     -0.03563
      9       9.5371     -0.00000
     10       9.5492     -0.00000
     11      12.1237     -0.00000
     12      12.6865     -0.00000
     13      19.3455      0.00000
     14      19.3923      0.00000
     15      27.7964      0.00000
     16      28.5238      0.00000
     17      29.8044      0.00000
     18      30.3096      0.00000
     19      35.5346      0.00000
     20      35.7298      0.00000
     21      39.8086      0.00000
     22      39.9735      0.00000
     23      46.2661      0.00000
     24      47.4059      0.00000
     25      53.4910      0.00000
     26      55.3129      0.00000
     27      59.9404      0.00000
     28      60.7684      0.00000
     29      61.0149      0.00000
     30      61.4551      0.00000
     31      61.7611      0.00000
     32      62.3343      0.00000
     33      65.9311      0.00000
     34      66.5252      0.00000
     35      67.4711      0.00000
     36      68.2484      0.00000
     37      69.6498      0.00000
     38      69.6928      0.00000
     39      72.8077      0.00000
     40      72.9701      0.00000

 k-point    92 :       0.1818    0.1818    0.4545
  band No.  band energies     occupation 
      1       3.1458      2.00000
      2       3.3964      2.00000
      3       5.1645      2.00000
      4       5.2091      2.00000
      5       5.7328      2.00000
      6       5.7861      2.00000
      7       7.5415      2.00000
      8       7.8284      2.00030
      9       9.2894     -0.00000
     10       9.4334     -0.00000
     11      10.0161     -0.00000
     12      10.6413     -0.00000
     13      25.6931      0.00000
     14      25.9306      0.00000
     15      26.3030      0.00000
     16      27.4847      0.00000
     17      27.9819      0.00000
     18      29.3350      0.00000
     19      39.8535      0.00000
     20      40.9827      0.00000
     21      41.7556      0.00000
     22      42.9537      0.00000
     23      45.0065      0.00000
     24      45.1384      0.00000
     25      51.8044      0.00000
     26      52.3258      0.00000
     27      55.8272      0.00000
     28      56.4688      0.00000
     29      58.5506      0.00000
     30      59.8589      0.00000
     31      61.0412      0.00000
     32      61.4531      0.00000
     33      62.5220      0.00000
     34      62.5923      0.00000
     35      64.5241      0.00000
     36      64.7359      0.00000
     37      68.0933      0.00000
     38      70.1701      0.00000
     39      70.3048      0.00000
     40      70.8323      0.00000

 k-point    93 :       0.2727    0.1818    0.4545
  band No.  band energies     occupation 
      1       3.4188      2.00000
      2       3.5341      2.00000
      3       4.9115      2.00000
      4       5.1494      2.00000
      5       6.0968      2.00000
      6       6.2887      2.00000
      7       7.4625      2.00000
      8       7.7382      2.00002
      9       9.4101     -0.00000
     10       9.7076     -0.00000
     11      11.7023     -0.00000
     12      12.2864     -0.00000
     13      22.4171      0.00000
     14      23.0203      0.00000
     15      25.3316      0.00000
     16      26.1218      0.00000
     17      28.5076      0.00000
     18      30.3496      0.00000
     19      37.7215      0.00000
     20      39.2877      0.00000
     21      40.6834      0.00000
     22      42.2208      0.00000
     23      45.5697      0.00000
     24      46.1094      0.00000
     25      53.2300      0.00000
     26      53.7551      0.00000
     27      57.0679      0.00000
     28      58.7897      0.00000
     29      60.6912      0.00000
     30      62.1817      0.00000
     31      62.6068      0.00000
     32      62.8565      0.00000
     33      63.8866      0.00000
     34      64.0001      0.00000
     35      65.1421      0.00000
     36      65.6994      0.00000
     37      68.2555      0.00000
     38      70.2240      0.00000
     39      71.2696      0.00000
     40      71.8059      0.00000

 k-point    94 :       0.3636    0.1818    0.4545
  band No.  band energies     occupation 
      1       3.4103      2.00000
      2       3.5913      2.00000
      3       4.7662      2.00000
      4       4.9965      2.00000
      5       6.2201      2.00000
      6       6.6129      2.00000
      7       7.8633      2.00075
      8       8.0010      2.01361
      9       9.3714     -0.00000
     10       9.5733     -0.00000
     11      13.5502     -0.00000
     12      14.0268      0.00000
     13      19.7547      0.00000
     14      20.1423      0.00000
     15      24.6675      0.00000
     16      25.4555      0.00000
     17      30.1220      0.00000
     18      31.3191      0.00000
     19      36.2071      0.00000
     20      37.3169      0.00000
     21      39.5461      0.00000
     22      41.1670      0.00000
     23      46.4535      0.00000
     24      46.8897      0.00000
     25      56.4071      0.00000
     26      56.9435      0.00000
     27      57.5722      0.00000
     28      59.2134      0.00000
     29      60.7310      0.00000
     30      61.1838      0.00000
     31      61.8596      0.00000
     32      62.7144      0.00000
     33      64.8709      0.00000
     34      64.9878      0.00000
     35      67.0913      0.00000
     36      67.7570      0.00000
     37      69.3516      0.00000
     38      69.8039      0.00000
     39      70.6982      0.00000
     40      71.7704      0.00000

 k-point    95 :       0.2727    0.2727    0.4545
  band No.  band energies     occupation 
      1       3.8562      2.00000
      2       3.9355      2.00000
      3       5.0172      2.00000
      4       5.2671      2.00000
      5       5.7391      2.00000
      6       5.9929      2.00000
      7       7.3686      2.00000
      8       7.6013      2.00000
      9       9.3889     -0.00000
     10       9.6079     -0.00000
     11      14.0545      0.00000
     12      14.6169      0.00000
     13      20.7289      0.00000
     14      21.2056      0.00000
     15      22.8597      0.00000
     16      23.3054      0.00000
     17      30.3450      0.00000
     18      32.0687      0.00000
     19      36.1950      0.00000
     20      37.7221      0.00000
     21      39.3353      0.00000
     22      40.5794      0.00000
     23      48.5095      0.00000
     24      48.9518      0.00000
     25      53.5400      0.00000
     26      53.5935      0.00000
     27      60.0044      0.00000
     28      60.5402      0.00000
     29      60.9864      0.00000
     30      61.7099      0.00000
     31      62.9534      0.00000
     32      63.0018      0.00000
     33      63.2606      0.00000
     34      63.7435      0.00000
     35      67.1654      0.00000
     36      67.1700      0.00000
     37      68.9025      0.00000
     38      69.2655      0.00000
     39      69.7260      0.00000
     40      70.6749      0.00000

 k-point    96 :       0.3636    0.2727    0.4545
  band No.  band energies     occupation 
      1       4.0865      2.00000
      2       4.2440      2.00000
      3       4.9119      2.00000
      4       4.9998      2.00000
      5       5.7744      2.00000
      6       5.9155      2.00000
      7       7.4422      2.00000
      8       7.6189      2.00000
      9       9.3579     -0.00000
     10       9.4395     -0.00000
     11      15.9913      0.00000
     12      16.1489      0.00000
     13      18.9813      0.00000
     14      19.3690      0.00000
     15      22.2028      0.00000
     16      22.6566      0.00000
     17      32.0367      0.00000
     18      32.9972      0.00000
     19      35.3565      0.00000
     20      35.5531      0.00000
     21      39.1211      0.00000
     22      39.9871      0.00000
     23      49.8626      0.00000
     24      50.5369      0.00000
     25      54.6353      0.00000
     26      55.0466      0.00000
     27      58.0884      0.00000
     28      58.4411      0.00000
     29      61.2738      0.00000
     30      62.1696      0.00000
     31      62.9472      0.00000
     32      63.1383      0.00000
     33      64.4193      0.00000
     34      64.6509      0.00000
     35      65.2226      0.00000
     36      66.7692      0.00000
     37      68.5858      0.00000
     38      70.4359      0.00000
     39      71.7359      0.00000
     40      72.1605      0.00000


--------------------------------------------------------------------------------------------------------


 soft charge-density along one line, spin component           1
         0         1         2         3         4         5         6         7         8         9
x     7.7939    0.0000    0.0707   -0.1224   -0.0524   -0.0907    0.0217    0.0000    0.0011   -0.0019
x     0.0000    0.0000
y     7.7939    0.0000    0.0707    0.1224   -0.0524    0.0907    0.0217   -0.0000    0.0011    0.0019
y     0.0000    0.0000
z     7.7939    0.0000    0.0000    0.0000    0.3288    0.0000    0.0000   -0.0000   -0.1420    0.0000
z     0.0000    0.0000    0.0230   -0.0000    0.0000    0.0000    0.0000    0.0000
 total charge-density along one line
x    16.0000    0.0000    1.4129   -2.4473    0.2610    0.4521    0.0079    0.0000    0.0020   -0.0034
x    -0.0003   -0.0006    0.0006   -0.0000   -0.0001    0.0001    0.0001    0.0001   -0.0001    0.0000
x     0.0000    0.0000
y    16.0000    0.0000    1.4129    2.4473    0.2610   -0.4521    0.0079   -0.0000    0.0020    0.0034
y    -0.0003    0.0006    0.0006    0.0000   -0.0001   -0.0001    0.0001   -0.0001   -0.0001   -0.0000
y     0.0000   -0.0000
z    16.0000    0.0000    0.0000    0.0000    5.7275    0.0000    0.0000   -0.0000    1.1407    0.0000
z     0.0000   -0.0000    0.0159    0.0000    0.0000   -0.0000    0.0040    0.0000   -0.0000   -0.0000
z    -0.0011    0.0000   -0.0000   -0.0000    0.0005    0.0000   -0.0000   -0.0000   -0.0003    0.0000
z    -0.0000   -0.0000    0.0003    0.0000
 
 pseudopotential strength for first ion, spin component:           1
 -3.554  -0.000  -0.000  -0.000  -0.000  -4.143  -0.000  -0.000
 -0.000  -3.541  -0.000  -0.000   0.000  -0.000  -4.130  -0.000
 -0.000  -0.000  -3.550   0.000  -0.000  -0.000  -0.000  -4.139
 -0.000  -0.000   0.000  -3.541  -0.000  -0.000  -0.000   0.000
 -0.000   0.000  -0.000  -0.000  -3.554  -0.000   0.000  -0.000
 -4.143  -0.000  -0.000  -0.000  -0.000  -4.688  -0.000  -0.000
 -0.000  -4.130  -0.000  -0.000   0.000  -0.000  -4.675  -0.000
 -0.000  -0.000  -4.139   0.000  -0.000  -0.000  -0.000  -4.684
 -0.000  -0.000   0.000  -4.130  -0.000  -0.000  -0.000   0.000
 -0.000   0.000  -0.000  -0.000  -4.143  -0.000   0.000  -0.000
  0.000   0.000   0.000   0.000  -0.000   0.000   0.000   0.000
  0.000   0.000   0.001   0.000  -0.000   0.000   0.000   0.001
 -0.000   0.000  -0.000  -0.000  -0.001  -0.000   0.000  -0.000
 -0.000  -0.000   0.000   0.000   0.000  -0.000  -0.000   0.000
 -0.001  -0.000   0.000   0.000  -0.000  -0.001  -0.000   0.000
 -0.000   0.000  -0.000  -0.000  -0.001  -0.000   0.000  -0.000
 -0.000  -0.000   0.000  -0.000   0.000  -0.000  -0.000   0.000
 -0.001  -0.000   0.000   0.000  -0.000  -0.001  -0.000   0.000
 total augmentation occupancy for first ion, spin component:           1
  1.870  -0.000   0.000   0.000   0.000  -1.467   0.000  -0.000   0.000  -0.000  -0.000  -0.000   0.000   0.000   0.041  -0.000
  0.000   2.296  -0.000  -0.000   0.000   0.000  -1.669  -0.000   0.000   0.000  -0.000   0.000  -0.000  -0.000   0.000  -0.000
  0.000  -0.000   1.512  -0.000  -0.000  -0.000   0.000  -1.172  -0.000   0.000   0.022  -0.009  -0.000   0.000   0.000   0.000
  0.000  -0.000   0.000   2.296   0.000   0.000   0.000   0.000  -1.669  -0.000   0.000   0.000   0.000  -0.000   0.000   0.000
  0.000   0.000  -0.000   0.000   1.870  -0.000   0.000   0.000   0.000  -1.467  -0.000   0.000   0.041   0.000  -0.000  -0.002
 -1.467   0.000  -0.000   0.000  -0.000   2.445  -0.000   0.000  -0.000   0.000   0.000   0.000  -0.000   0.000  -0.057   0.000
  0.000  -1.669   0.000   0.000   0.000   0.000   2.394  -0.000  -0.000   0.000   0.000   0.000   0.000   0.000  -0.000   0.000
 -0.000   0.000  -1.172   0.000   0.000   0.000  -0.000   2.200  -0.000  -0.000  -0.085   0.004   0.000   0.000  -0.000  -0.000
  0.000   0.000   0.000  -1.669  -0.000  -0.000  -0.000   0.000   2.394  -0.000  -0.000  -0.000   0.000   0.000   0.000   0.000
 -0.000   0.000   0.000  -0.000  -1.467   0.000   0.000  -0.000   0.000   2.445   0.000  -0.000  -0.057   0.000   0.000   0.002
 -0.000  -0.000   0.022   0.000  -0.000   0.000   0.000  -0.085   0.000   0.000   3.073  -0.369   0.000   0.000   0.000  -0.000
 -0.000  -0.000  -0.009   0.000   0.000   0.000  -0.000   0.004  -0.000  -0.000  -0.369   0.050  -0.000   0.000   0.000   0.000
  0.000  -0.000  -0.000   0.000   0.041  -0.000  -0.000   0.000   0.000  -0.057   0.000  -0.000   0.422   0.000  -0.000  -0.032
  0.000   0.000   0.000  -0.000  -0.000  -0.000   0.000   0.000   0.000   0.000   0.000   0.000  -0.000   0.405   0.000   0.000
  0.041   0.000   0.000   0.000  -0.000  -0.057  -0.000  -0.000  -0.000   0.000   0.000   0.000  -0.000  -0.000   0.422   0.000
 -0.000   0.000   0.000   0.000  -0.002   0.000  -0.000  -0.000   0.000   0.002  -0.000   0.000  -0.032   0.000   0.000   0.003
  0.000   0.000   0.000   0.000   0.000  -0.000   0.000   0.000  -0.000   0.000   0.000   0.000  -0.000  -0.035   0.000   0.000
 -0.002   0.000  -0.000   0.000   0.000   0.002   0.000   0.000  -0.000  -0.000  -0.000   0.000   0.000  -0.000  -0.032  -0.000


------------------------ aborting loop because EDIFF is reached ----------------------------------------


    CHARGE:  cpu time    0.0173: real time    0.0173
    FORLOC:  cpu time    0.0002: real time    0.0002
    FORNL :  cpu time    0.0872: real time    0.0872
    STRESS:  cpu time    0.1337: real time    0.1337
    FORCOR:  cpu time    0.0030: real time    0.0030
    FORHAR:  cpu time    0.0006: real time    0.0006
    MIXING:  cpu time    0.0002: real time    0.0002

  FORCE on cell =-STRESS in cart. coord.  units (eV):
  Direction    XX          YY          ZZ          XY          YZ          ZX
  --------------------------------------------------------------------------------------
  Alpha Z   153.91639   153.91639   153.91639
  Ewald    -413.89424  -413.89424  -451.96672     0.00000    -0.00000    -0.00000
  Hartree    56.22368    56.22368    43.01661    -0.00000    -0.00000    -0.00000
  E(xc)     -80.00661   -80.00662   -79.76138     0.00011     0.00000    -0.00000
  Local     111.41497   111.41514   159.84981    -0.00063     0.00000    -0.00000
  n-local   -49.55218   -49.12760   -51.67195    -4.86562     1.50433     1.02514
  augment    75.00367    75.00344    75.41034     0.00074    -0.00000    -0.00000
  Kinetic   157.64659   151.32760   152.02915     1.24698    -1.00995     0.12571
  Fock        0.00000     0.00000     0.00000     0.00000     0.00000     0.00000
  -------------------------------------------------------------------------------------
  Total       7.80503     7.80503     0.82224    -0.00000     0.00000     0.00000
  in kB     696.21832   696.21832    73.34445    -0.00000     0.00000     0.00000
  external pressure =      488.59 kB  Pullay stress =        0.00 kB


 VOLUME and BASIS-vectors are now :
 -----------------------------------------------------------------------------
  energy-cutoff  :      280.00
  volume of cell :       17.96
      direct lattice vectors                 reciprocal lattice vectors
     2.283400000  0.000000000  0.000000000     0.437943418  0.252846750  0.000000000
    -1.141700000  1.977482407  0.000000000     0.000000000  0.505693500  0.000000000
     0.000000000  0.000000000  3.977820000     0.000000000  0.000000000  0.251393980

  length of vectors
     2.283400000  2.283400000  3.977820000     0.505693500  0.505693500  0.251393980


 FORCES acting on ions
    electron-ion (+dipol)            ewald-force                    non-local-force                 convergence-correction
 -----------------------------------------------------------------------------------------------
   0.363E-06 -.621E-06 0.250E-14   0.670E-12 -.390E-12 -.252E-13   0.419E-17 0.199E-17 0.180E-19   -.217E-08 0.125E-08 -.284E-13
   -.228E-05 0.161E-05 0.622E-13   -.678E-12 0.387E-12 0.252E-13   -.139E-18 -.297E-17 -.543E-19   0.217E-08 -.124E-08 0.474E-14
 -----------------------------------------------------------------------------------------------
   -.191E-05 0.984E-06 0.647E-13   -.824E-14 -.321E-14 -.192E-16   0.406E-17 -.980E-18 -.363E-19   0.937E-12 0.235E-11 -.237E-13
 
 
 POSITION                                       TOTAL-FORCE (eV/Angst)
 -----------------------------------------------------------------------------------
      0.00000      0.00000      0.00000         0.000000      0.000000     -0.000000
      0.00000      1.31832      1.98891        -0.000000     -0.000000      0.000000
 -----------------------------------------------------------------------------------
    total drift:                               -0.000002      0.000001      0.000000


--------------------------------------------------------------------------------------------------------



  FREE ENERGIE OF THE ION-ELECTRON SYSTEM (eV)
  ---------------------------------------------------
  free  energy   TOTEN  =       -15.78669559 eV

  energy  without entropy=      -15.78758177  energy(sigma->0) =      -15.78699098
 


--------------------------------------------------------------------------------------------------------


    POTLOK:  cpu time    0.0051: real time    0.0051


--------------------------------------------------------------------------------------------------------


 writing wavefunctions
     LOOP+:  cpu time    9.4111: real time    9.4314
    4ORBIT:  cpu time    0.0000: real time    0.0000

 total amount of memory used by VASP MPI-rank0    48699. kBytes
=======================================================================

   base      :      30000. kBytes
   nonl-proj :       2895. kBytes
   grid      :        721. kBytes
   one-center:         31. kBytes
   wavefun   :      15052. kBytes
 
  
  
 General timing and accounting informations for this job:
 ========================================================
  
                  Total CPU time used (sec):        9.601
                            User time (sec):        9.545
                          System time (sec):        0.056
                         Elapsed time (sec):        9.610
  
                   Maximum memory used (kb):       53000.
                   Average memory used (kb):          N/A
  
                          Minor page faults:         6949
                          Major page faults:            0
                 Voluntary context switches:           26
