unknown system                          
   1.00000000000000     
     2.353300    0.000000    0.000000
    -1.176650    2.038018    0.000000
     0.000000    0.000000    4.016770
   Fe
     2
Direct
  0.000000  0.000000  0.000000
  0.333333  0.666667  0.500000
 
   20   20   32
  161.56      152.93      129.76      98.741      67.343      41.204      23.151      13.312      9.5818      8.5466    
  8.2158      8.5469      9.5820      13.312      23.151      41.204      67.343      98.742      129.76      152.93    
  152.94      152.93      137.07      110.17      79.386      51.242      29.880      16.703      10.656      8.8362    
  8.2035      8.2030      8.8356      10.656      16.704      29.878      51.240      79.391      110.18      137.09    
  129.77      137.04      129.76      110.17      83.851      57.152      35.002      19.929      11.986      9.1217    
  8.2199      7.9113      8.2187      9.1214      11.987      19.929      34.998      57.149      83.855      110.18    
  98.737      110.09      110.09      98.742      79.386      57.152      36.915      21.897      13.109      9.4309    
  8.2545      7.7033      7.7028      8.2540      9.4317      13.111      21.896      36.911      57.145      79.379    
  67.329      79.273      83.699      79.284      67.343      51.242      35.002      21.897      13.550      9.6481    
  8.2886      7.5814      7.3429      7.5816      8.2887      9.6489      13.553      21.901      35.002      51.234    
  41.203      51.158      57.001      57.005      51.165      41.204      29.880      19.929      13.109      9.6480    
  8.3028      7.5287      7.1413      7.1418      7.5289      8.3014      9.6476      13.114      19.938      29.886    
  23.161      29.867      34.939      36.826      34.935      29.859      23.151      16.704      11.986      9.4308    
  8.2887      7.5287      7.0777      6.9340      7.0786      7.5277      8.2847      9.4270      11.987      16.711    
  13.311      16.740      19.968      21.921      21.916      19.959      16.733      13.312      10.656      9.1216    
  8.2546      7.5815      7.1412      6.9340      6.9348      7.1426      7.5811      8.2501      9.1137      10.649    
  9.5710      10.701      12.074      13.219      13.662      13.216      12.074      10.708      9.5819      8.8361    
  8.2198      7.7034      7.3428      7.1417      7.0787      7.1426      7.3459      7.7073      8.2197      8.8289    
  8.5464      8.8839      9.2181      9.5676      9.8072      9.8085      9.5723      9.2258      8.8906      8.5467    
  8.2034      7.9114      7.7029      7.5815      7.5290      7.5278      7.5809      7.7072      7.9200      8.2102    
  8.2258      8.2655      8.3265      8.3993      8.4621      8.4888      8.4660      8.4031      8.3256      8.2584    
  8.2158      8.2029      8.2188      8.2540      8.2887      8.3015      8.2845      8.2500      8.2199      8.2103    
  8.5461      8.2654      8.0279      7.8610      7.7691      7.7345      7.7356      7.7695      7.8565      8.0193    
  8.2589      8.5467      8.8357      9.1215      9.4315      9.6489      9.6477      9.4270      9.1139      8.8290    
  9.5708      8.8839      8.3267      7.8610      7.5381      7.3607      7.3060      7.3599      7.5351      7.8570    
  8.3266      8.8911      9.5820      10.656      11.987      13.111      13.553      13.114      11.987      10.649    
  13.311      10.701      9.2183      8.3993      7.7689      7.3607      7.1698      7.1691      7.3594      7.7695    
  8.4036      9.2258      10.707      13.312      16.704      19.929      21.896      21.901      19.938      16.711    
  23.161      16.740      12.074      9.5675      8.4619      7.7346      7.3062      7.1690      7.3051      7.7354    
  8.4660      9.5716      12.073      16.733      23.151      29.878      34.998      36.911      35.002      29.886    
  41.203      29.867      19.968      13.218      9.8073      8.4889      7.7357      7.3598      7.3593      7.7354    
  8.4902      9.8077      13.214      19.959      29.861      41.204      51.240      57.149      57.145      51.234    
  67.329      51.158      34.939      21.921      13.662      9.8086      8.4659      7.7695      7.5351      7.7696    
  8.4661      9.8077      13.659      21.917      34.939      51.166      67.343      79.391      83.855      79.380    
  98.737      79.273      57.002      36.826      21.916      13.215      9.5722      8.4032      7.8566      7.8570    
  8.4036      9.5715      13.214      21.917      36.830      57.008      79.279      98.742      110.18      110.18    
  129.77      110.09      83.699      57.005      34.935      19.958      12.074      9.2259      8.3257      8.0192    
  8.3265      9.2258      12.073      19.959      34.939      57.008      83.695      110.08      129.76      137.09    
  152.94      137.05      110.09      79.284      51.165      29.859      16.733      10.708      8.8906      8.2582    
  8.2588      8.8912      10.707      16.733      29.861      51.166      79.279      110.08      137.03      152.93    
  151.74      143.65      121.90      92.742      63.211      38.666      21.814      12.747      9.3778      8.4047    
  8.0841      8.4049      9.3781      12.747      21.814      38.666      63.211      92.742      121.90      143.65    
  143.65      143.65      128.76      103.48      74.524      48.065      28.059      15.836      10.324      8.6748    
  8.0604      8.0599      8.6743      10.325      15.836      28.057      48.063      74.528      103.49      128.78    
  121.91      128.74      121.90      103.48      78.719      53.606      32.829      18.796      11.508      8.9287    
  8.0684      7.7707      8.0672      8.9285      11.509      18.796      32.826      53.603      78.723      103.49    
  92.738      103.42      103.42      92.742      74.524      53.606      34.614      20.609      12.517      9.1941    
  8.0969      7.5660      7.5656      8.0965      9.1947      12.518      20.609      34.611      53.599      74.518    
  63.198      74.443      78.611      74.453      63.211      48.064      32.829      20.609      12.914      9.3807    
  8.1272      7.4464      7.2183      7.4467      8.1274      9.3815      12.917      20.613      32.829      48.057    
  38.664      48.019      53.517      53.520      48.025      38.666      28.059      18.796      12.517      9.3807    
  8.1401      7.3948      7.0247      7.0252      7.3950      8.1389      9.3803      12.521      18.804      28.065    
  21.823      28.082      32.831      34.602      32.828      28.074      21.814      15.836      11.508      9.1939    
  8.1273      7.3948      6.9637      6.8269      6.9646      7.3940      8.1237      9.1905      11.509      15.843    
  12.746      15.903      18.895      20.712      20.708      18.887      15.897      12.747      10.324      8.9286    
  8.0970      7.4465      7.0246      6.8269      6.8276      7.0258      7.4462      8.0930      8.9215      10.318    
  9.3679      10.397      11.652      12.701      13.109      12.698      11.652      10.404      9.3780      8.6748    
  8.0683      7.5661      7.2182      7.0251      6.9647      7.0259      7.2210      7.5696      8.0682      8.6681    
  8.4045      8.7494      9.0771      9.4030      9.6236      9.6248      9.4073      9.0841      8.7555      8.4048    
  8.0603      7.7708      7.5656      7.4466      7.3951      7.3940      7.4460      7.5696      7.7787      8.0666    
  8.0933      8.1476      8.2253      8.3136      8.3872      8.4177      8.3908      8.3171      8.2244      8.1411    
  8.0840      8.0598      8.0673      8.0964      8.1273      8.1390      8.1236      8.0929      8.0684      8.0666    
  8.4042      8.1475      7.9365      7.7948      7.7224      7.6982      7.6992      7.7228      7.7908      7.9287    
  8.1415      8.4048      8.6743      8.9285      9.1945      9.3815      9.3803      9.1905      8.9216      8.6682    
  9.3677      8.7494      8.2255      7.7949      7.5020      7.3446      7.2969      7.3440      7.4994      7.7912    
  8.2254      8.7560      9.3780      10.325      11.509      12.518      12.917      12.521      11.509      10.318    
  12.746      10.398      9.0773      8.3136      7.7222      7.3446      7.1702      7.1696      7.3435      7.7227    
  8.3175      9.0842      10.404      12.747      15.836      18.796      20.609      20.613      18.804      15.842    
  21.823      15.903      11.651      9.4029      8.3871      7.6982      7.2971      7.1695      7.2960      7.6989    
  8.3908      9.4066      11.651      15.897      21.814      28.057      32.826      34.611      32.829      28.065    
  38.665      28.082      18.895      12.701      9.6237      8.4177      7.6992      7.3439      7.3434      7.6989    
  8.4189      9.6241      12.697      18.887      28.076      38.666      48.063      53.603      53.599      48.057    
  63.198      48.018      32.831      20.712      13.109      9.6248      8.3907      7.7227      7.4994      7.7228    
  8.3908      9.6240      13.106      20.708      32.831      48.026      63.211      74.528      78.723      74.518    
  92.738      74.443      53.517      34.602      20.708      12.698      9.4071      8.3171      7.7909      7.7913    
  8.3175      9.4065      12.697      20.708      34.605      53.523      74.449      92.742      103.49      103.49    
  121.91      103.42      78.612      53.520      32.828      18.886      11.651      9.0843      8.2246      7.9286    
  8.2253      9.0841      11.651      18.887      32.831      53.523      78.608      103.41      121.90      128.77    
  143.65      128.74      103.42      74.453      48.025      28.074      15.897      10.404      8.7556      8.1409    
  8.1414      8.7561      10.404      15.897      28.076      48.026      74.449      103.41      128.73      143.65    
  125.75      119.05      101.03      76.796      52.248      31.990      18.365      11.334      8.8628      8.0211    
  7.7303      8.0213      8.8630      11.334      18.365      31.990      52.248      76.796      101.03      119.05    
  119.06      119.05      106.71      85.705      61.608      39.670      23.315      13.633      9.5033      8.2371    
  7.6774      7.6770      8.2367      9.5038      13.634      23.314      39.669      61.611      85.714      106.72    
  101.03      106.71      101.03      85.705      65.082      44.218      27.140      15.891      10.319      8.4286    
  7.6608      7.3946      7.6597      8.4283      10.320      15.891      27.138      44.216      65.085      85.713    
  76.793      85.701      85.702      76.796      61.608      44.218      28.579      17.293      11.032      8.5951    
  7.6698      7.1968      7.1964      7.6693      8.5955      11.033      17.292      28.576      44.213      61.603    
  52.239      61.615      65.095      61.623      52.248      39.669      27.140      17.293      11.317      8.7093    
  7.6870      7.0811      6.8816      7.0814      7.6871      8.7097      11.318      17.295      27.140      39.664    
  31.989      39.724      44.293      44.295      39.728      31.990      23.315      15.892      11.032      8.7093    
  7.6952      7.0306      6.7077      6.7082      7.0310      7.6943      8.7089      11.035      15.898      23.320    
  18.372      23.430      27.314      28.769      27.311      23.424      18.365      13.634      10.319      8.5950    
  7.6871      7.0306      6.6532      6.5347      6.6540      7.0301      7.6844      8.5925      10.320      13.639    
  11.334      13.781      16.146      17.598      17.595      16.140      13.776      11.334      9.5034      8.4284    
  7.6698      7.0812      6.7076      6.5347      6.5352      6.7085      7.0808      7.6668      8.4231      9.4986    
  8.8550      9.6482      10.600      11.404      11.719      11.402      10.600      9.6534      8.8629      8.2371    
  7.6607      7.1969      6.8815      6.7082      6.6541      6.7086      6.8833      7.1995      7.6606      8.2319    
  8.0209      8.3777      8.7041      8.9798      9.1553      9.1561      8.9829      8.7093      8.3823      8.0211    
  7.6773      7.3947      7.1965      7.0813      7.0311      7.0302      7.0807      7.1994      7.4008      7.6821    
  7.7374      7.8250      7.9372      8.0551      8.1482      8.1849      8.1508      8.0576      7.9365      7.8200    
  7.7303      7.6769      7.6598      7.6693      7.6871      7.6944      7.6843      7.6667      7.6608      7.6822    
  8.0207      7.8250      7.6760      7.5885      7.5549      7.5504      7.5512      7.5553      7.5854      7.6700    
  7.8204      8.0212      8.2367      8.4283      8.5953      8.7097      8.7090      8.5925      8.4232      8.2320    
  8.8548      8.3776      7.9374      7.5885      7.3612      7.2447      7.2109      7.2445      7.3594      7.5858    
  7.9373      8.3828      8.8629      9.5039      10.319      11.033      11.319      11.035      10.319      9.4985    
  11.334      9.6483      8.7042      8.0551      7.5547      7.2447      7.1050      7.1046      7.2440      7.5552    
  8.0581      8.7094      9.6529      11.334      13.634      15.891      17.292      17.295      15.898      13.639    
  18.372      13.781      10.600      8.9798      8.1480      7.5504      7.2110      7.1046      7.2100      7.5507    
  8.1508      8.9825      10.599      13.776      18.365      23.314      27.138      28.576      27.140      23.320    
  31.989      23.430      16.146      11.404      9.1553      8.1850      7.5513      7.2444      7.2439      7.5508    
  8.1857      9.1557      11.401      16.140      23.425      31.990      39.669      44.216      44.213      39.664    
  52.239      39.723      27.313      17.598      11.719      9.1561      8.1507      7.5552      7.3594      7.5553    
  8.1508      9.1557      11.717      17.596      27.314      39.729      52.248      61.611      65.085      61.603    
  76.793      61.615      44.293      28.769      17.595      11.402      8.9827      8.0576      7.5855      7.5858    
  8.0581      8.9824      11.401      17.596      28.772      44.298      61.620      76.796      85.714      85.713    
  101.03      85.701      65.095      44.295      27.311      16.139      10.600      8.7094      7.9366      7.6699    
  7.9372      8.7094      10.599      16.140      27.314      44.298      65.092      85.693      101.03      106.72    
  119.06      106.71      85.702      61.623      39.728      23.424      13.776      9.6535      8.3823      7.8199    
  7.8203      8.3828      9.6530      13.776      23.425      39.729      61.620      85.693      106.70      119.05    
  91.931      87.024      73.788      55.985      38.049      23.531      14.185      9.7287      8.2201      7.5031    
  7.2589      7.5033      8.2202      9.7286      14.184      23.531      38.049      55.985      73.789      87.024    
  87.027      87.024      77.952      62.492      44.806      28.910      17.433      11.054      8.5667      7.6403    
  7.1682      7.1679      7.6399      8.5671      11.055      17.433      28.909      44.808      62.497      77.958    
  73.793      77.979      73.789      62.492      47.323      32.129      20.004      12.417      8.9681      7.7646    
  7.1133      6.8946      7.1124      7.7643      8.9689      12.417      20.002      32.128      47.324      62.497    
  55.983      62.561      62.562      55.985      44.806      32.129      20.981      13.285      9.3307      7.8545    
  7.0882      6.7011      6.7009      7.0878      7.8546      9.3310      13.285      20.979      32.126      44.803    
  38.043      44.927      47.492      44.932      38.049      28.909      20.004      13.285      9.4791      7.9023    
  7.0811      6.5848      6.4253      6.5851      7.0813      7.9023      9.4797      13.286      20.004      28.906    
  23.531      29.091      32.413      32.414      29.094      23.531      17.433      12.417      9.3307      7.9023    
  7.0805      6.5321      6.2739      6.2743      6.5327      7.0801      7.9020      9.3325      12.421      17.436    
  14.189      17.664      20.392      21.425      20.391      17.661      14.185      11.054      8.9681      7.8544    
  7.0812      6.5322      6.2263      6.1316      6.2269      6.5321      7.0798      7.8530      8.9689      11.058    
  9.7281      11.300      12.864      13.842      13.841      12.860      11.297      9.7287      8.5667      7.7645    
  7.0882      6.5848      6.2738      6.1316      6.1318      6.2742      6.5846      7.0864      7.7613      8.5637    
  8.2151      8.7985      9.4167      9.9304      10.132      9.9290      9.4167      8.8018      8.2201      7.6402    
  7.1133      6.7012      6.4252      6.2742      6.2271      6.2742      6.4261      6.7027      7.1132      7.6369    
  7.5030      7.8590      8.1904      8.4454      8.5853      8.5857      8.4470      8.1934      7.8618      7.5032    
  7.1681      6.8947      6.7009      6.5850      6.5328      6.5321      6.5844      6.7026      6.8984      7.1711    
  7.2633      7.3856      7.5264      7.6634      7.7659      7.8048      7.7674      7.6647      7.5257      7.3825    
  7.2589      7.1678      7.1125      7.0877      7.0812      7.0801      7.0796      7.0864      7.1133      7.1712    
  7.5028      7.3856      7.3059      7.2701      7.2678      7.2767      7.2773      7.2682      7.2683      7.3021    
  7.3828      7.5032      7.6399      7.7643      7.8544      7.9023      7.9020      7.8530      7.7614      7.6370    
  8.2150      7.8589      7.5265      7.2701      7.1078      7.0272      7.0045      7.0274      7.1070      7.2686    
  7.5264      7.8622      8.2202      8.5672      8.9688      9.3310      9.4799      9.3325      8.9688      8.5637    
  9.7282      8.7985      8.1905      7.6634      7.2677      7.0272      6.9201      6.9199      7.0269      7.2680    
  7.6652      8.1936      8.8013      9.7287      11.055      12.417      13.285      13.286      12.421      11.058    
  14.189      11.300      9.4166      8.4454      7.7658      7.2768      7.0046      6.9199      7.0038      7.2767    
  7.7674      8.4470      9.4159      11.297      14.185      17.433      20.002      20.979      20.004      17.436    
  23.531      17.664      12.864      9.9304      8.5854      7.8049      7.2774      7.0273      7.0268      7.2768    
  7.8052      8.5857      9.9286      12.860      17.661      23.531      28.909      32.128      32.126      28.906    
  38.043      29.091      20.392      13.842      10.132      8.5858      7.7673      7.2682      7.1070      7.2681    
  7.7674      8.5857      10.131      13.841      20.392      29.095      38.049      44.808      47.325      44.803    
  55.983      44.927      32.413      21.425      13.841      9.9289      8.4469      7.6648      7.2683      7.2686    
  7.6652      8.4469      9.9286      13.841      21.427      32.416      44.930      55.985      62.497      62.497    
  73.793      62.561      47.492      32.415      20.391      12.860      9.4166      8.1936      7.5258      7.3021    
  7.5264      8.1936      9.4160      12.860      20.392      32.416      47.490      62.556      73.789      77.958    
  87.027      77.980      62.562      44.932      29.094      17.661      11.297      8.8019      7.8618      7.3824    
  7.3827      7.8622      8.8014      11.297      17.661      29.095      44.930      62.556      77.973      87.024    
  59.198      56.014      47.443      35.997      24.691      15.924      10.716      8.4903      7.5485      6.9767    
  6.7891      6.9769      7.5486      8.4902      10.715      15.924      24.691      35.997      47.443      56.014    
  56.016      56.014      50.118      40.119      28.837      19.016      12.355      9.0213      7.7499      7.0213    
  6.6573      6.6570      7.0210      7.7503      9.0221      12.355      19.016      28.838      40.121      50.121    
  47.445      50.170      47.443      40.119      30.396      20.906      13.711      9.5964      7.8956      7.0629    
  6.5562      6.3920      6.5556      7.0626      7.8961      9.5969      13.710      20.905      30.396      40.121    
  35.996      40.253      40.253      35.997      28.837      20.906      14.237      9.9797      8.0018      7.0916    
  6.4872      6.1970      6.1968      6.4869      7.0914      8.0018      9.9793      14.236      20.904      28.836    
  24.688      29.059      30.702      29.061      24.691      19.016      13.711      9.9798      8.0449      7.1052    
  6.4480      6.0728      5.9555      6.0731      6.4481      7.1049      8.0448      9.9801      13.711      19.014    
  15.924      19.310      21.373      21.374      19.311      15.924      12.355      9.5965      8.0018      7.1051    
  6.4354      6.0135      5.8209      5.8213      6.0141      6.4354      7.1049      8.0025      9.5984      12.356    
  10.717      12.688      14.289      14.905      14.288      12.687      10.716      9.0214      7.8956      7.0915    
  6.4480      6.0135      5.7782      5.7060      5.7786      6.0137      6.4475      7.0911      7.8961      9.0231    
  8.4899      9.3566      10.216      10.762      10.761      10.214      9.3556      8.4903      7.7500      7.0628    
  6.4872      6.0729      5.8209      5.7060      5.7060      5.8209      6.0727      6.4865      7.0615      7.7486    
  7.5461      8.0648      8.5014      8.8137      8.9308      8.8129      8.5013      8.0664      7.5486      7.0213    
  6.5562      6.1970      5.9555      5.8213      5.7787      5.8209      5.9555      6.1975      6.5561      7.0197    
  6.9766      7.3176      7.6372      7.8856      8.0211      8.0212      7.8860      7.6383      7.3189      6.9768    
  6.6572      6.3920      6.1968      6.0731      6.0141      6.0137      6.0726      6.1975      6.3938      6.6586    
  6.7911      6.9457      7.1081      7.2557      7.3608      7.3993      7.3613      7.2560      7.1076      6.9443    
  6.7891      6.6570      6.5557      6.4868      6.4480      6.4354      6.4475      6.4865      6.5562      6.6587    
  6.9765      6.9457      6.9370      6.9505      6.9757      6.9954      6.9957      6.9760      6.9497      6.9353    
  6.9445      6.9768      7.0211      7.0626      7.0913      7.1049      7.1050      7.0910      7.0615      7.0198    
  7.5460      7.3175      7.1082      6.9505      6.8538      6.8076      6.7952      6.8081      6.8538      6.9499    
  7.1081      7.3191      7.5486      7.7504      7.8961      8.0018      8.0449      8.0026      7.8961      7.7486    
  8.4899      8.0648      7.6372      7.2557      6.9756      6.8076      6.7334      6.7334      6.8077      6.9758    
  7.2564      7.6385      8.0660      8.4903      9.0222      9.5969      9.9794      9.9801      9.5983      9.0231    
  10.718      9.3566      8.5013      7.8855      7.3607      6.9954      6.7953      6.7334      6.7947      6.9951    
  7.3613      7.8862      8.5008      9.3548      10.716      12.355      13.710      14.236      13.711      12.356    
  15.924      12.688      10.216      8.8136      8.0212      7.3994      6.9957      6.8080      6.8076      6.9952    
  7.3993      8.0214      8.8129      10.214      12.686      15.924      19.016      20.905      20.904      19.014    
  24.688      19.309      14.289      10.762      8.9309      8.0212      7.3612      6.9760      6.8538      6.9759    
  7.3613      8.0214      8.9308      10.762      14.289      19.311      24.691      28.838      30.396      28.836    
  35.996      29.059      21.373      14.905      10.761      8.8129      7.8859      7.2560      6.9498      6.9500    
  7.2564      7.8861      8.8129      10.762      14.906      21.375      29.061      35.997      40.121      40.121    
  47.445      40.253      30.703      21.374      14.288      10.214      8.5013      7.6384      7.1077      6.9352    
  7.1081      7.6385      8.5009      10.214      14.289      21.375      30.702      40.251      47.443      50.121    
  56.016      50.170      40.253      29.061      19.311      12.687      9.3557      8.0665      7.3189      6.9442    
  6.9444      7.3191      8.0661      9.3548      12.686      19.311      29.061      40.251      50.167      56.014    
  33.665      31.884      27.133      20.933      15.080      10.894      8.6799      7.6576      6.9528      6.5400    
  6.4088      6.5401      6.9528      7.6575      8.6798      10.894      15.080      20.933      27.133      31.884    
  31.884      31.884      28.589      23.093      17.101      12.207      9.2161      7.8358      7.0303      6.4901    
  6.2338      6.2337      6.4899      7.0306      7.8365      9.2166      12.207      17.101      23.093      28.590    
  27.133      28.655      27.133      23.093      17.876      13.044      9.6910      7.9679      7.0806      6.4474    
  6.0862      5.9726      6.0858      6.4472      7.0810      7.9684      9.6911      13.044      17.876      23.093    
  20.933      23.264      23.264      20.933      17.101      13.044      9.8824      8.0532      7.1033      6.4132    
  5.9735      5.7711      5.7710      5.9733      6.4130      7.1032      8.0530      9.8820      13.043      17.101    
  15.080      17.381      18.261      17.381      15.080      12.207      9.6910      8.0533      7.1089      6.3933    
  5.9024      5.6352      5.5532      5.6354      5.9025      6.3930      7.1084      8.0531      9.6910      12.207    
  10.894      12.567      13.619      13.619      12.567      10.894      9.2161      7.9680      7.1033      6.3933    
  5.8781      5.5669      5.4274      5.4276      5.5673      5.8782      6.3931      7.1034      7.9685      9.2167    
  8.6803      9.6151      10.387      10.689      10.387      9.6150      8.6799      7.8359      7.0806      6.4132    
  5.9024      5.5669      5.3864      5.3309      5.3866      5.5671      5.9025      6.4132      7.0810      7.8364    
  7.6573      8.2386      8.7116      8.9939      8.9938      8.7115      8.2386      7.6576      7.0304      6.4474    
  5.9735      5.6352      5.4273      5.3309      5.3308      5.4272      5.6351      5.9735      6.4472      7.0300    
  6.9521      7.4196      7.8224      8.0941      8.1897      8.0938      7.8223      7.4201      6.9528      6.4900    
  6.0862      5.7712      5.5532      5.4276      5.3867      5.4272      5.5529      5.7711      6.0861      6.4896    
  6.5399      6.8647      7.1697      7.4085      7.5398      7.5397      7.4083      7.1697      6.8650      6.5400    
  6.2338      5.9727      5.7711      5.6354      5.5673      5.5672      5.6351      5.7711      5.9731      6.2341    
  6.4093      6.6006      6.7916      6.9585      7.0739      7.1152      7.0738      6.9583      6.7914      6.6003    
  6.4088      6.2337      6.0859      5.9733      5.9024      5.8782      5.9025      5.9734      6.0862      6.2342    
  6.5399      6.6006      6.6722      6.7480      6.8139      6.8530      6.8532      6.8141      6.7479      6.6718    
  6.6004      6.5400      6.4899      6.4472      6.4129      6.3930      6.3932      6.4132      6.4472      6.4896    
  6.9520      6.8647      6.7917      6.7480      6.7332      6.7348      6.7378      6.7353      6.7336      6.7480    
  6.7917      6.8651      6.9528      7.0306      7.0809      7.1032      7.1085      7.1034      7.0809      7.0300    
  7.6573      7.4196      7.1697      6.9585      6.8139      6.7348      6.7034      6.7035      6.7350      6.8140    
  6.9586      7.1698      7.4198      7.6576      7.8365      7.9684      8.0530      8.0531      7.9684      7.8364    
  8.6804      8.2386      7.8223      7.4085      7.0738      6.8531      6.7379      6.7034      6.7375      6.8527    
  7.0738      7.4085      7.8220      8.2380      8.6799      9.2166      9.6910      9.8820      9.6910      9.2167    
  10.894      9.6151      8.7115      8.0941      7.5399      7.1153      6.8532      6.7353      6.7350      6.8528    
  7.1151      7.5400      8.0940      8.7110      9.6145      10.894      12.207      13.044      13.043      12.207    
  15.080      12.567      10.387      8.9939      8.1898      7.5397      7.0737      6.8141      6.7336      6.8141    
  7.0738      7.5400      8.1901      8.9940      10.387      12.567      15.080      17.101      17.876      17.101    
  20.933      17.381      13.619      10.689      8.9938      8.0938      7.4082      6.9583      6.7479      6.7480    
  6.9586      7.4085      8.0940      8.9940      10.690      13.619      17.381      20.933      23.093      23.093    
  27.133      23.264      18.261      13.619      10.387      8.7114      7.8223      7.1698      6.7914      6.6718    
  6.7916      7.1698      7.8221      8.7111      10.387      13.619      18.261      23.263      27.133      28.590    
  31.884      28.655      23.264      17.381      12.567      9.6150      8.2387      7.4201      6.8650      6.6002    
  6.6003      6.8652      7.4199      8.2380      9.6145      12.567      17.381      23.263      28.654      31.884    
  17.682      16.891      14.824      12.252      10.014      8.5628      7.6977      7.0064      6.5186      6.2474    
  6.1630      6.2474      6.5186      7.0064      7.6976      8.5628      10.014      12.252      14.824      16.891    
  16.891      16.891      15.431      13.077      10.669      8.8789      7.8209      7.0602      6.4759      6.1095    
  5.9416      5.9415      6.1095      6.4760      7.0606      7.8213      8.8790      10.669      13.077      15.431    
  14.824      15.497      14.824      13.077      10.931      9.0931      7.8959      7.0890      6.4385      5.9939    