unknown system                          
   1.00000000000000     
     2.353300    0.000000    0.000000
    -1.176650    2.038018    0.000000
     0.000000    0.000000    4.016770
   Fe
     2
Direct
  0.000000  0.000000  0.000000
  0.333333  0.666667  0.500000
 
   20   20   32
 0.16155940782E+03 0.15293028328E+03 0.12976131927E+03 0.98741398073E+02 0.67343293688E+02
 0.41204332164E+02 0.23150908438E+02 0.13311630698E+02 0.95817922687E+01 0.85465720160E+01
 0.82157925956E+01 0.85468585312E+01 0.95820299807E+01 0.13311566710E+02 0.23150669341E+02
 0.41204234862E+02 0.67343444148E+02 0.98741601445E+02 0.12976137572E+03 0.15293023345E+03
 0.15293700001E+03 0.15293010289E+03 0.13707190116E+03 0.11017110531E+03 0.79386324174E+02
 0.51241970104E+02 0.29879761384E+02 0.16703449445E+02 0.10655747222E+02 0.88361683398E+01
 0.82034962477E+01 0.82029665590E+01 0.88356168494E+01 0.10656298517E+02 0.16703821407E+02
 0.29878169047E+02 0.51240482105E+02 0.79390630505E+02 0.11018384225E+03 0.13708713210E+03
 0.12977140953E+03 0.13704471883E+03 0.12976136158E+03 0.11017128154E+03 0.83851370253E+02
 0.57152003604E+02 0.35001523307E+02 0.19929159747E+02 0.11985692744E+02 0.91216991510E+01
 0.82199172850E+01 0.79113030351E+01 0.82186615855E+01 0.91214365098E+01 0.11986740893E+02
 0.19928544204E+02 0.34997614424E+02 0.57148825751E+02 0.83855205486E+02 0.11018237561E+03
 0.98737166974E+02 0.11009098353E+03 0.11009251444E+03 0.98741734896E+02 0.79386266576E+02
 0.57151856628E+02 0.36915371835E+02 0.21896693747E+02 0.13109346712E+02 0.94309409531E+01
 0.82544937696E+01 0.77032642506E+01 0.77028191510E+01 0.82540147228E+01 0.94316502628E+01
 0.13110638584E+02 0.21896161532E+02 0.36911261484E+02 0.57145027009E+02 0.79379429467E+02
 0.67329373164E+02 0.79272655675E+02 0.83698710003E+02 0.79283790236E+02 0.67343315349E+02
 0.51241679394E+02 0.35001596843E+02 0.21896800876E+02 0.13549782961E+02 0.96480997327E+01
 0.82885815273E+01 0.75813829875E+01 0.73429009586E+01 0.75816059420E+01 0.82887382872E+01
 0.96489470940E+01 0.13552639446E+02 0.21900596003E+02 0.35001651595E+02 0.51233715538E+02
 0.41202879474E+02 0.51158145384E+02 0.57001440855E+02 0.57005201289E+02 0.51164833620E+02
 0.41204179333E+02 0.29879770514E+02 0.19929386228E+02 0.13109261098E+02 0.96480312620E+01
 0.83028007415E+01 0.75286790195E+01 0.71412889272E+01 0.71417811609E+01 0.75288530627E+01
 0.83014404575E+01 0.96475917057E+01 0.13113717667E+02 0.19938132805E+02 0.29886291002E+02
 0.23160703154E+02 0.29867248427E+02 0.34938653854E+02 0.36825814786E+02 0.34934682941E+02
 0.29859245512E+02 0.23150790029E+02 0.16703603346E+02 0.11985656778E+02 0.94307801812E+01
 0.82886801678E+01 0.75287198153E+01 0.70777021081E+01 0.69339987439E+01 0.70785811664E+01
 0.75277445563E+01 0.82847011160E+01 0.94269689099E+01 0.11986740893E+02 0.16710834855E+02
 0.13311032493E+02 0.16740052263E+02 0.19968162738E+02 0.21920628233E+02 0.21916213121E+02
 0.19958609867E+02 0.16733063536E+02 0.13311602760E+02 0.10655837425E+02 0.91215532177E+01
 0.82545528511E+01 0.75814901888E+01 0.71411664715E+01 0.69339666521E+01 0.69347798427E+01
 0.71426023323E+01 0.75810717251E+01 0.82501144687E+01 0.91137375135E+01 0.10648997733E+02
 0.95709596735E+01 0.10700533470E+02 0.12074279361E+02 0.13218581297E+02 0.13661976396E+02
 0.13215523096E+02 0.12074227736E+02 0.10707686243E+02 0.95819095032E+01 0.88361372336E+01
 0.82198451819E+01 0.77033859118E+01 0.73428128540E+01 0.71417006885E+01 0.70787386030E+01
 0.71426443155E+01 0.73459016348E+01 0.77072536220E+01 0.82196980804E+01 0.88288502827E+01
 0.85463541952E+01 0.88839351635E+01 0.92180944406E+01 0.95675996775E+01 0.98071544322E+01
 0.98085394858E+01 0.95723338203E+01 0.92257914726E+01 0.88905942440E+01 0.85466739261E+01
 0.82033704860E+01 0.79113600898E+01 0.77028815758E+01 0.75815200698E+01 0.75289772694E+01
 0.75278279671E+01 0.75808786515E+01 0.77071943856E+01 0.79200405843E+01 0.82102374617E+01
 0.82258264079E+01 0.82654751329E+01 0.83265068997E+01 0.83992558400E+01 0.84620806925E+01
 0.84888326593E+01 0.84660227635E+01 0.84031436270E+01 0.83256257950E+01 0.82583685888E+01
 0.82157589337E+01 0.82029100397E+01 0.82188086870E+01 0.82539747445E+01 0.82886801678E+01
 0.83014892429E+01 0.82845443561E+01 0.82500154089E+01 0.82199172850E+01 0.82103067041E+01
 0.85461242381E+01 0.82654123407E+01 0.80278509101E+01 0.78609769559E+01 0.77691302109E+01
 0.77345379297E+01 0.77355677329E+01 0.77695270073E+01 0.78565315245E+01 0.80192962160E+01
 0.82588602565E+01 0.85467304841E+01 0.88356894557E+01 0.91214667788E+01 0.94314748411E+01
 0.96489388723E+01 0.96476519548E+01 0.94269542601E+01 0.91139137158E+01 0.88289539952E+01
 0.95707802190E+01 0.88838518514E+01 0.83267271825E+01 0.78610149922E+01 0.75380786191E+01
 0.73606623541E+01 0.73060344713E+01 0.73599356813E+01 0.75351131431E+01 0.78569793024E+01
 0.83266040324E+01 0.88910985800E+01 0.95819677607E+01 0.10656371642E+02 0.11986635015E+02
 0.13110616486E+02 0.13552841895E+02 0.13113781183E+02 0.11986670982E+02 0.10648980655E+02
 0.13311115717E+02 0.10700578290E+02 0.92182594403E+01 0.83992920737E+01 0.77689418708E+01
 0.73606621319E+01 0.71697891639E+01 0.71690716903E+01 0.73594206998E+01 0.77694598038E+01
 0.84036147187E+01 0.92258021180E+01 0.10707171261E+02 0.13311621996E+02 0.16703871446E+02
 0.19928545821E+02 0.21896285894E+02 0.21900613236E+02 0.19937907941E+02 0.16710730993E+02
 0.23160942250E+02 0.16740167994E+02 0.12074186162E+02 0.95675348532E+01 0.84619479443E+01
 0.77345661049E+01 0.73061750925E+01 0.71690339222E+01 0.73050562339E+01 0.77353602152E+01
 0.84660227635E+01 0.95715892241E+01 0.12073191241E+02 0.16732769579E+02 0.23150790029E+02
 0.29878174865E+02 0.34997559672E+02 0.36911177624E+02 0.35001523307E+02 0.29886287690E+02
 0.41203002326E+02 0.29867227101E+02 0.19967926710E+02 0.13218487919E+02 0.98072501210E+01
 0.84889066823E+01 0.77356556823E+01 0.73598472758E+01 0.73593325166E+01 0.77354199893E+01
 0.84902063866E+01 0.98077139842E+01 0.13214193258E+02 0.19959405487E+02 0.29860822232E+02
 0.41204204884E+02 0.51240349557E+02 0.57148751995E+02 0.57145100229E+02 0.51233873700E+02
 0.67329277967E+02 0.51157939479E+02 0.34938546577E+02 0.21920683590E+02 0.13662185900E+02
 0.98085799586E+01 0.84659298531E+01 0.77694568522E+01 0.75350749477E+01 0.77695779888E+01
 0.84660626013E+01 0.98076587682E+01 0.13659030982E+02 0.21916747338E+02 0.34938664850E+02
 0.51166189008E+02 0.67343370612E+02 0.79390701047E+02 0.83855352162E+02 0.79379557607E+02
 0.98737006212E+02 0.79272502019E+02 0.57001552220E+02 0.36826031734E+02 0.21916291729E+02
 0.13215425896E+02 0.95721669743E+01 0.84031689531E+01 0.78566231313E+01 0.78570328730E+01
 0.84036038112E+01 0.95714872024E+01 0.13214189436E+02 0.21916770589E+02 0.36829959765E+02
 0.57008237762E+02 0.79279398375E+02 0.98741777506E+02 0.11018390662E+03 0.11018226373E+03
 0.12977135309E+03 0.11009112315E+03 0.83698873917E+02 0.57005343060E+02 0.34934564669E+02
 0.19958414171E+02 0.12074186162E+02 0.92259271606E+01 0.83257489451E+01 0.80192204304E+01
 0.83265068997E+01 0.92257728063E+01 0.12073242866E+02 0.19959445819E+02 0.34938653854E+02
 0.57008268169E+02 0.83694672832E+02 0.11007989726E+03 0.12976136158E+03 0.13708685043E+03
 0.15293702958E+03 0.13704505832E+03 0.11009255955E+03 0.79283640183E+02 0.51164685782E+02
 0.29859150960E+02 0.16733181431E+02 0.10707839575E+02 0.88905981549E+01 0.82582182593E+01
 0.82587727192E+01 0.88911858029E+01 0.10707279774E+02 0.16732771743E+02 0.29860749006E+02
 0.51166247076E+02 0.79279401979E+02 0.11007980275E+03 0.13702973932E+03 0.15293008263E+03
 0.15174133042E+03 0.14364798588E+03 0.12189849473E+03 0.92741785106E+02 0.63210700532E+02
 0.38665739412E+02 0.21813735545E+02 0.12746564910E+02 0.93778416539E+01 0.84046711548E+01
 0.80840576252E+01 0.84049452999E+01 0.93780685251E+01 0.12746501952E+02 0.21813503965E+02
 0.38665643300E+02 0.63210842431E+02 0.92741979191E+02 0.12189854940E+03 0.14364793897E+03
 0.14365414620E+03 0.14364781082E+03 0.12876116707E+03 0.10348126474E+03 0.74524089281E+02
 0.48064681600E+02 0.28058794323E+02 0.15835710771E+02 0.10324175146E+02 0.86747914778E+01
 0.80603831607E+01 0.80598742880E+01 0.86742607087E+01 0.10324726828E+02 0.15836170321E+02
 0.28057445015E+02 0.48063351945E+02 0.74528012548E+02 0.10349292244E+03 0.12877514250E+03
 0.12190775857E+03 0.12874143616E+03 0.12189853491E+03 0.10348143541E+03 0.78719275702E+02
 0.53605860049E+02 0.32829198270E+02 0.18796142349E+02 0.11508110496E+02 0.89287349543E+01
 0.80683857262E+01 0.77707057126E+01 0.80671732384E+01 0.89284596747E+01 0.11509125889E+02
 0.18795678177E+02 0.32825666723E+02 0.53602918993E+02 0.78722739947E+02 0.10349158965E+03
 0.92737932545E+02 0.10342172285E+03 0.10342311985E+03 0.92742111249E+02 0.74524034359E+02
 0.53605717935E+02 0.34614468615E+02 0.20609083338E+02 0.12517130907E+02 0.91940749950E+01
 0.80969478832E+01 0.75659915060E+01 0.75655670670E+01 0.80964684666E+01 0.91946779944E+01
 0.12518269259E+02 0.20608549146E+02 0.34610655719E+02 0.53599425619E+02 0.74517758671E+02
 0.63197977888E+02 0.74443273252E+02 0.78611403733E+02 0.74453467776E+02 0.63210722414E+02
 0.48064400576E+02 0.32829268869E+02 0.20609186960E+02 0.12914292723E+02 0.93807486244E+01
 0.81272306045E+01 0.74464458922E+01 0.72183114680E+01 0.74466861430E+01 0.81273818356E+01
 0.93814590297E+01 0.12916804594E+02 0.20612595792E+02 0.32829322098E+02 0.48057144713E+02
 0.38664443842E+02 0.48018574855E+02 0.53516724458E+02 0.53520181626E+02 0.48024708338E+02
 0.38665591837E+02 0.28058802777E+02 0.18796361489E+02 0.12517048831E+02 0.93806824826E+01
 0.81401140972E+01 0.73947523815E+01 0.70246762519E+01 0.70251711937E+01 0.73949953118E+01
 0.81389071169E+01 0.93802595722E+01 0.12521116447E+02 0.18804417654E+02 0.28064851705E+02
 0.21822713133E+02 0.28081544923E+02 0.32831350576E+02 0.34601641196E+02 0.32827755361E+02
 0.28074250229E+02 0.21813621187E+02 0.15835859829E+02 0.11508076216E+02 0.91939194261E+01
 0.81273250079E+01 0.73947914723E+01 0.69637245717E+01 0.68268992006E+01 0.69645731018E+01
 0.73939541219E+01 0.81237264614E+01 0.91904730807E+01 0.11509125889E+02 0.15842535821E+02
 0.12745966497E+02 0.15903354694E+02 0.18895366796E+02 0.20711586092E+02 0.20707554925E+02
 0.18886656014E+02 0.15897010826E+02 0.12746538017E+02 0.10324262001E+02 0.89285931830E+01
 0.80970040843E+01 0.74465491336E+01 0.70245584604E+01 0.68268685651E+01 0.68275929233E+01
 0.70258351961E+01 0.74461506880E+01 0.80929572757E+01 0.89214551103E+01 0.10317984141E+02
 0.93678586657E+01 0.10397487765E+02 0.11651557193E+02 0.12701131288E+02 0.13108903741E+02
 0.12698303057E+02 0.11651506752E+02 0.10404088737E+02 0.93779542022E+01 0.86747605155E+01
 0.80683160369E+01 0.75661096977E+01 0.72182270264E+01 0.70250939155E+01 0.69647252626E+01
 0.70258757094E+01 0.72209661514E+01 0.75696137130E+01 0.80681739292E+01 0.86680534769E+01
 0.84044634192E+01 0.87494422073E+01 0.90771321045E+01 0.94029920226E+01 0.96235624145E+01
 0.96247927949E+01 0.94072521674E+01 0.90841369251E+01 0.87555458442E+01 0.84047694570E+01
 0.80602624435E+01 0.77707623285E+01 0.75656278169E+01 0.74466027079E+01 0.73951150854E+01
 0.73940348047E+01 0.74459640114E+01 0.75695562712E+01 0.77787276128E+01 0.80665634005E+01
 0.80932667937E+01 0.81475895466E+01 0.82253019421E+01 0.83135521135E+01 0.83872048979E+01
 0.84176757833E+01 0.83907726474E+01 0.83170539183E+01 0.82244489614E+01 0.81410555698E+01
 0.80840260166E+01 0.80598207393E+01 0.80673153460E+01 0.80964284527E+01 0.81273250079E+01
 0.81389548162E+01 0.81235752303E+01 0.80928610607E+01 0.80683857262E+01 0.80666305691E+01
 0.84042411026E+01 0.81475284843E+01 0.79365478344E+01 0.77948293304E+01 0.77223822022E+01
 0.76981855245E+01 0.76991513390E+01 0.77227853055E+01 0.77907697299E+01 0.79286975819E+01
 0.81415257986E+01 0.84048212856E+01 0.86743304633E+01 0.89284877802E+01 0.91945077460E+01
 0.93814518879E+01 0.93803185722E+01 0.91904584012E+01 0.89216249870E+01 0.86681541938E+01
 0.93676854181E+01 0.87493610022E+01 0.82255149213E+01 0.77948666225E+01 0.75020456475E+01
 0.73446032460E+01 0.72969496272E+01 0.73440285453E+01 0.74994232426E+01 0.77911997821E+01
 0.82253960286E+01 0.87560277250E+01 0.93780078258E+01 0.10324797456E+02 0.11509023283E+02
 0.12518248289E+02 0.12917001030E+02 0.12521177553E+02 0.11509057563E+02 0.10317967914E+02
 0.12746047484E+02 0.10397530804E+02 0.90772915519E+01 0.83135881566E+01 0.77222005451E+01
 0.73446026609E+01 0.71701927596E+01 0.71695587409E+01 0.73435111199E+01 0.77226979323E+01
 0.83175311671E+01 0.90841724698E+01 0.10403571312E+02 0.12746556047E+02 0.15836218987E+02
 0.18795679457E+02 0.20608669534E+02 0.20612612558E+02 0.18804199794E+02 0.15842435428E+02
 0.21822944713E+02 0.15903466769E+02 0.11651466862E+02 0.94029298882E+01 0.83870769479E+01
 0.76982119803E+01 0.72970848324E+01 0.71695222207E+01 0.72960025599E+01 0.76988744004E+01
 0.83907726474E+01 0.94066171731E+01 0.11650506061E+02 0.15896628484E+02 0.21813621187E+02
 0.28057450206E+02 0.32825613495E+02 0.34610575083E+02 0.32829198270E+02 0.28064848441E+02
 0.38664562532E+02 0.28081524502E+02 0.18895138329E+02 0.12701040765E+02 0.96236549197E+01
 0.84177467613E+01 0.76992357468E+01 0.73439432063E+01 0.73434263660E+01 0.76989323523E+01
 0.84188928399E+01 0.96240977956E+01 0.12697126177E+02 0.18887297439E+02 0.28075585377E+02
 0.38665614414E+02 0.48063223696E+02 0.53602848169E+02 0.53599496909E+02 0.48057297488E+02
 0.63197885327E+02 0.48018375796E+02 0.32831246803E+02 0.20711639142E+02 0.13109106016E+02
 0.96248317997E+01 0.83906829841E+01 0.77227179705E+01 0.74993866786E+01 0.77228122543E+01
 0.83908109340E+01 0.96240442952E+01 0.13106298395E+02 0.20708090380E+02 0.32831361397E+02
 0.48025907795E+02 0.63210771752E+02 0.74528081005E+02 0.78722881738E+02 0.74517882049E+02
 0.92737776638E+02 0.74443124994E+02 0.53516832532E+02 0.34601850809E+02 0.20707630674E+02
 0.12698209177E+02 0.94070914699E+01 0.83170791994E+01 0.77908581543E+01 0.77912509144E+01
 0.83175204051E+01 0.94065186100E+01 0.12697122820E+02 0.20708113079E+02 0.34605491396E+02
 0.53522990637E+02 0.74449459308E+02 0.92742149427E+02 0.10349298389E+03 0.10349148044E+03
 0.12190770390E+03 0.10342185887E+03 0.78611563106E+02 0.53520318753E+02 0.32827640767E+02
 0.18886466760E+02 0.11651466862E+02 0.90842688153E+01 0.82245678540E+01 0.79286230934E+01
 0.82253019421E+01 0.90841449126E+01 0.11650556502E+02 0.18887336653E+02 0.32831350576E+02
 0.53523019689E+02 0.78607748359E+02 0.10341157851E+03 0.12189853491E+03 0.12877486899E+03
 0.14365417491E+03 0.12874176576E+03 0.10342316453E+03 0.74453322495E+02 0.48024564829E+02
 0.28074158589E+02 0.15897124622E+02 0.10404237263E+02 0.87555500355E+01 0.81409093988E+01
 0.81414406899E+01 0.87561131213E+01 0.10403676798E+02 0.15896630206E+02 0.28075514157E+02
 0.48025963346E+02 0.74449462285E+02 0.10341148717E+03 0.12872770711E+03 0.14364779262E+03
 0.12574851583E+03 0.11905456086E+03 0.10102779663E+03 0.76795878493E+02 0.52248247026E+02
 0.31990139981E+02 0.18365050562E+02 0.11334368315E+02 0.88627555148E+01 0.80210609160E+01
 0.77302895538E+01 0.80213025918E+01 0.88629544936E+01 0.11334309466E+02 0.18364840388E+02
 0.31990048061E+02 0.52248366550E+02 0.76796047736E+02 0.10102784625E+03 0.11905452150E+03
 0.11905927239E+03 0.11905440119E+03 0.10671285488E+03 0.85704841099E+02 0.61607952363E+02
 0.39669596457E+02 0.23314742846E+02 0.13633396957E+02 0.95032880470E+01 0.82371352884E+01
 0.76774129246E+01 0.76769645505E+01 0.82366653594E+01 0.95038282300E+01 0.13634051882E+02
 0.23313994891E+02 0.39668668214E+02 0.61610885198E+02 0.85713696810E+02 0.10672356186E+03
 0.10103490681E+03 0.10671348509E+03 0.10102783109E+03 0.85704995908E+02 0.65082194344E+02
 0.44218281704E+02 0.27140369874E+02 0.15891464318E+02 0.10318618064E+02 0.84285785493E+01
 0.76607736296E+01 0.73946217981E+01 0.76596883727E+01 0.84282777673E+01 0.10319532796E+02
 0.15891367255E+02 0.27137806236E+02 0.44215963675E+02 0.65084706469E+02 0.85712708902E+02
 0.76793004812E+02 0.85700990123E+02 0.85702040955E+02 0.76796174282E+02 0.61607904852E+02
 0.44218153324E+02 0.28579417199E+02 0.17292500361E+02 0.11032102479E+02 0.85951490165E+01
 0.76697836414E+01 0.71967942819E+01 0.71964277025E+01 0.76693134016E+01 0.85954876172E+01
 0.11032853957E+02 0.17291974423E+02 0.28576391350E+02 0.44213267793E+02 0.61603091377E+02
 0.52238631174E+02 0.61615228981E+02 0.65094655823E+02 0.61622981074E+02 0.52248269227E+02
 0.39669342736E+02 0.27140432007E+02 0.17292593976E+02 0.11316789115E+02 0.87093360895E+01
 0.76869687537E+01 0.70810900278E+01 0.68815656130E+01 0.70813660478E+01 0.76871042576E+01
 0.87097087897E+01 0.11318433839E+02 0.17295017347E+02 0.27140481050E+02 0.39663917316E+02
 0.31989242399E+02 0.39723661399E+02 0.44292693869E+02 0.44295359056E+02 0.39728350491E+02
 0.31990007078E+02 0.23314749216E+02 0.15891662503E+02 0.11032030528E+02 0.87092766638E+01
 0.76951615539E+01 0.70305826176E+01 0.67077450605E+01 0.67082352165E+01 0.70309823777E+01
 0.76943431424E+01 0.87089031277E+01 0.11035091219E+02 0.15897911723E+02 0.23319551451E+02
 0.18371900949E+02 0.23429930829E+02 0.27313525873E+02 0.28768581661E+02 0.27310895827E+02
 0.23424467702E+02 0.18364947606E+02 0.13633532254E+02 0.10318588732E+02 0.85950084918E+01
 0.76870512745E+01 0.70306168865E+01 0.66532418870E+01 0.65347106590E+01 0.66539993304E+01
 0.70301229668E+01 0.76844294429E+01 0.85924984425E+01 0.10319532796E+02 0.13638749031E+02
 0.11333783016E+02 0.13780855262E+02 0.16146160102E+02 0.17598180388E+02 0.17595143593E+02
 0.16139627192E+02 0.13776171693E+02 0.11334344571E+02 0.95033656130E+01 0.84284488905E+01
 0.76698317912E+01 0.70811819993E+01 0.67076404555E+01 0.65346840928E+01 0.65351833603E+01
 0.67085144285E+01 0.70808395977E+01 0.76667969281E+01 0.84230654112E+01 0.94985508822E+01
 0.88549994818E+01 0.96482475281E+01 0.10600088269E+02 0.11404274949E+02 0.11718847816E+02
 0.11402052043E+02 0.10600041343E+02 0.96533993676E+01 0.88628549730E+01 0.82371048489E+01
 0.76607107333E+01 0.71969024113E+01 0.68814914696E+01 0.67081669056E+01 0.66541363375E+01
 0.67085507225E+01 0.68833459771E+01 0.71994706261E+01 0.76605828233E+01 0.82319144617E+01
 0.80208837638E+01 0.83776861600E+01 0.87040890994E+01 0.89798428463E+01 0.91552566197E+01
 0.91560959338E+01 0.89828926938E+01 0.87093072637E+01 0.83823438056E+01 0.80211488186E+01
 0.76773062154E+01 0.73946767954E+01 0.71964835834E+01 0.70812896214E+01 0.70310894632E+01
 0.70301957835E+01 0.70806711998E+01 0.71994183774E+01 0.74007794322E+01 0.76821342762E+01
 0.77373501150E+01 0.78250348582E+01 0.79372302458E+01 0.80551083474E+01 0.81481508059E+01
 0.81849023073E+01 0.81507572452E+01 0.80576236787E+01 0.79364644704E+01 0.78199972535E+01
 0.77302633230E+01 0.76769191128E+01 0.76598162827E+01 0.76692736158E+01 0.76870512745E+01
 0.76943876172E+01 0.76842939390E+01 0.76667089925E+01 0.76607736296E+01 0.76821955477E+01
 0.80206832083E+01 0.78249787048E+01 0.76760020845E+01 0.75884585906E+01 0.75548923510E+01
 0.75503851744E+01 0.75511777902E+01 0.75552998430E+01 0.75853986530E+01 0.76699886966E+01
 0.78204066866E+01 0.80211899389E+01 0.82367271412E+01 0.84283001481E+01 0.85953324507E+01
 0.87097046182E+01 0.87089583818E+01 0.85924838006E+01 0.84232174509E+01 0.82320066830E+01
 0.88548438773E+01 0.83776108954E+01 0.79374222709E+01 0.75884936697E+01 0.73611583597E+01
 0.72447095142E+01 0.72108911879E+01 0.72445046361E+01 0.73594011950E+01 0.75857763607E+01
 0.79373155467E+01 0.83827626336E+01 0.88628983472E+01 0.95038920631E+01 0.10319439809E+02
 0.11032836190E+02 0.11318612853E+02 0.11035145403E+02 0.10319469141E+02 0.94985371493E+01
 0.11333857576E+02 0.96482854209E+01 0.87042325504E+01 0.80551436595E+01 0.75547297230E+01
 0.72447079955E+01 0.71050159248E+01 0.71045927696E+01 0.72439938964E+01 0.75551668110E+01
 0.80581026931E+01 0.87093991755E+01 0.96528886279E+01 0.11334360281E+02 0.13634096743E+02
 0.15891367581E+02 0.17292083236E+02 0.17295032545E+02 0.15897713863E+02 0.13638658595E+02
 0.18372111123E+02 0.13780956862E+02 0.10600006032E+02 0.89797882583E+01 0.81480365567E+01
 0.75504069599E+01 0.72110111585E+01 0.71045598326E+01 0.72100401115E+01 0.75507454350E+01
 0.81507572452E+01 0.89825285134E+01 0.10599146892E+02 0.13775590596E+02 0.18364947606E+02
 0.23313998202E+02 0.27137757193E+02 0.28576319628E+02 0.27140369874E+02 0.23319548392E+02
 0.31989349311E+02 0.23429912983E+02 0.16145953204E+02 0.11404192608E+02 0.91553401573E+01
 0.81849648020E+01 0.75512522776E+01 0.72444280650E+01 0.72439188440E+01 0.75507981369E+01
 0.81857247029E+01 0.91557240916E+01 0.11401261373E+02 0.16139891412E+02 0.23425204623E+02
 0.31990022070E+02 0.39668552066E+02 0.44215901070E+02 0.44213333568E+02 0.39664054889E+02
 0.52238546245E+02 0.39723481813E+02 0.27313432092E+02 0.17598227005E+02 0.11719029625E+02
 0.91561308275E+01 0.81506767764E+01 0.75552404627E+01 0.73593692164E+01 0.75552700587E+01
 0.81507910256E+01 0.91556754476E+01 0.11717102046E+02 0.17595670043E+02 0.27313536047E+02
 0.39729156153E+02 0.52248303822E+02 0.61610947775E+02 0.65084834564E+02 0.61603201465E+02
 0.76792862825E+02 0.61615095894E+02 0.44292792427E+02 0.28768770465E+02 0.17595211337E+02
 0.11401967610E+02 0.89827492788E+01 0.80576485878E+01 0.75854780017E+01 0.75858206303E+01
 0.80580922900E+01 0.89824396862E+01 0.11401259281E+02 0.17595691170E+02 0.28771651078E+02
 0.44297569062E+02 0.61619965406E+02 0.76796201538E+02 0.85713750382E+02 0.85712607665E+02
 0.10103485720E+03 0.85701115500E+02 0.65094801878E+02 0.44295482941E+02 0.27310791872E+02
 0.16139456351E+02 0.10600006032E+02 0.87094279927E+01 0.79365711946E+01 0.76699181948E+01
 0.79372302458E+01 0.87093764534E+01 0.10599193818E+02 0.16139927470E+02 0.27313525873E+02
 0.44297594389E+02 0.65091981008E+02 0.85693291850E+02 0.10102783109E+03 0.10672331196E+03
 0.11905929861E+03 0.10671378608E+03 0.85702083930E+02 0.61622849314E+02 0.39728219565E+02
 0.23424384561E+02 0.13776273758E+02 0.96535339121E+01 0.83823486469E+01 0.78198632456E+01
 0.78203288321E+01 0.83828427395E+01 0.96529852797E+01 0.13775591061E+02 0.23425139329E+02
 0.39729204813E+02 0.61619966732E+02 0.85693209448E+02 0.10670300853E+03 0.11905438804E+03
 0.91931257932E+02 0.87024287093E+02 0.73788497086E+02 0.55985008803E+02 0.38048677486E+02
 0.23531343835E+02 0.14184662253E+02 0.97286726935E+01 0.82200588620E+01 0.75030812298E+01
 0.72588958961E+01 0.75032793704E+01 0.82202210617E+01 0.97286213329E+01 0.14184484244E+02
 0.23531261539E+02 0.38048770009E+02 0.55985145671E+02 0.73788539109E+02 0.87024256757E+02
 0.87027195238E+02 0.87024150988E+02 0.77951538647E+02 0.62491846094E+02 0.44806008554E+02
 0.28909689002E+02 0.17432761569E+02 0.11054145198E+02 0.85666584038E+01 0.76402567566E+01
 0.71682080878E+01 0.71678517706E+01 0.76398804617E+01 0.85671497043E+01 0.11054954601E+02
 0.17432677504E+02 0.28909231871E+02 0.44807728066E+02 0.62497235958E+02 0.77958178306E+02
 0.73792921532E+02 0.77979249043E+02 0.73788523865E+02 0.62491977180E+02 0.47323090473E+02
 0.32129113026E+02 0.20003755216E+02 0.12417042104E+02 0.89681133524E+01 0.77646324656E+01
 0.71133232059E+01 0.68946012421E+01 0.71124378675E+01 0.77643221194E+01 0.89688623325E+01
 0.12417328676E+02 0.20002355989E+02 0.32127587168E+02 0.47324454618E+02 0.62496667221E+02
 0.55983335265E+02 0.62561005435E+02 0.62561631770E+02 0.55985259192E+02 0.44805971536E+02
 0.32129004936E+02 0.20981183964E+02 0.13285082222E+02 0.93307390354E+01 0.78545315409E+01
 0.70881940372E+01 0.67011334669E+01 0.67008507286E+01 0.70877646329E+01 0.78545765162E+01
 0.93310444372E+01 0.13284601943E+02 0.20979170109E+02 0.32125890355E+02 0.44802979179E+02
 0.38042895962E+02 0.44927173834E+02 0.47491574239E+02 0.44931899530E+02 0.38048699349E+02
 0.28909475503E+02 0.20003804522E+02 0.13285160779E+02 0.94790821905E+01 0.79023295875E+01
 0.70811384102E+01 0.65847586701E+01 0.64252919222E+01 0.65850538895E+01 0.70812504063E+01
 0.79023327904E+01 0.94797288798E+01 0.13286412349E+02 0.20003847613E+02 0.28906293389E+02
 0.23530912424E+02 0.29091463190E+02 0.32412791579E+02 0.32414464738E+02 0.29094354618E+02
 0.23531232140E+02 0.17432764504E+02 0.12417208782E+02 0.93306822596E+01 0.79022804205E+01
 0.70804699509E+01 0.65321355432E+01 0.62738509141E+01 0.62743023947E+01 0.65326677896E+01
 0.70801046869E+01 0.79019836761E+01 0.93325057287E+01 0.12421185008E+02 0.17435965100E+02
 0.14188866667E+02 0.17663969905E+02 0.20392376138E+02 0.21425178687E+02 0.20390912758E+02
 0.17660753272E+02 0.14184576094E+02 0.11054259862E+02 0.89680917379E+01 0.78544141119E+01
 0.70812036644E+01 0.65321627123E+01 0.62263375118E+01 0.61316152936E+01 0.62269492662E+01
 0.65320526279E+01 0.70797587826E+01 0.78530321578E+01 0.89688623325E+01 0.11057627035E+02
 0.97281399690E+01 0.11300043273E+02 0.12864043559E+02 0.13842438891E+02 0.13840625714E+02
 0.12860182537E+02 0.11297376541E+02 0.97286540284E+01 0.85667227439E+01 0.77645216131E+01
 0.70882306022E+01 0.65848338023E+01 0.62737657983E+01 0.61315945887E+01 0.61318306102E+01
 0.62741701451E+01 0.65845725255E+01 0.70864355911E+01 0.77612962653E+01 0.85637298589E+01
 0.82151128938E+01 0.87984761707E+01 0.94166952988E+01 0.99304410542E+01 0.10131877376E+02
 0.99289890039E+01 0.94166540817E+01 0.88017919160E+01 0.82201394005E+01 0.76402274862E+01
 0.71132703112E+01 0.67012260006E+01 0.64252328319E+01 0.62742471623E+01 0.62270632566E+01
 0.62742000285E+01 0.64260578010E+01 0.67026611344E+01 0.71131636124E+01 0.76369419803E+01
 0.75029523872E+01 0.78589669590E+01 0.81904122706E+01 0.84454292024E+01 0.85853379554E+01
 0.85857213813E+01 0.84470356901E+01 0.81934479663E+01 0.78618256755E+01 0.75031533151E+01
 0.71681214156E+01 0.68946527410E+01 0.67008990174E+01 0.65849881830E+01 0.65327557430E+01
 0.65321134122E+01 0.65844316868E+01 0.67026168894E+01 0.68984354434E+01 0.71711172352E+01
 0.72632783191E+01 0.73856344622E+01 0.75263642188E+01 0.76633925218E+01 0.77659241521E+01
 0.78048272709E+01 0.77673695270E+01 0.76647289316E+01 0.75257432996E+01 0.73824732600E+01
 0.72588765052E+01 0.71678175229E+01 0.71125445664E+01 0.70877261477E+01 0.70812036644E+01
 0.70801439271E+01 0.70796467864E+01 0.70863605409E+01 0.71133232059E+01 0.71711696597E+01
 0.75027844328E+01 0.73855856728E+01 0.73058663398E+01 0.72700915926E+01 0.72678264209E+01
 0.72767402773E+01 0.72773000480E+01 0.72682078816E+01 0.72682628519E+01 0.73021455066E+01
 0.73827931476E+01 0.75031835014E+01 0.76399306892E+01 0.77643370462E+01 0.78544448615E+01
 0.79023327378E+01 0.79020327905E+01 0.78530179322E+01 0.77614220445E+01 0.76370214782E+01
 0.82149836331E+01 0.78589005657E+01 0.75265245448E+01 0.72701230544E+01 0.71077898942E+01
 0.70271805965E+01 0.70044583594E+01 0.70273673262E+01 0.71070357400E+01 0.72685596489E+01
 0.75264361055E+01 0.78621526588E+01 0.82201723395E+01 0.85672041078E+01 0.89687845437E+01
 0.93310313739E+01 0.94798810084E+01 0.93325494411E+01 0.89688061582E+01 0.85637199224E+01
 0.97282047231E+01 0.87985062339E+01 0.81905313843E+01 0.76634261408E+01 0.72676921891E+01
 0.70271779736E+01 0.69201022407E+01 0.69199242542E+01 0.70268993558E+01 0.72680367082E+01
 0.76651738115E+01 0.81935889535E+01 0.88013239455E+01 0.97286674219E+01 0.11054993880E+02
 0.12417327638E+02 0.13284692808E+02 0.13286424657E+02 0.12421017293E+02 0.11057551650E+02
 0.14189044676E+02 0.11300129048E+02 0.94166250382E+01 0.84453855712E+01 0.77658304254E+01
 0.72767556795E+01 0.70045560556E+01 0.69198967549E+01 0.70037655536E+01 0.72767407664E+01
 0.77673695270E+01 0.84469711914E+01 0.94159283368E+01 0.11296632693E+02 0.14184576094E+02
 0.17432677874E+02 0.20002312899E+02 0.20979111074E+02 0.20003755216E+02 0.17435962535E+02
 0.23531001860E+02 0.17663955873E+02 0.12863869079E+02 0.99303711226E+01 0.85854082861E+01
 0.78048775744E+01 0.72773601386E+01 0.70273039695E+01 0.70268386220E+01 0.72767854548E+01
 0.78051923360E+01 0.85857063901E+01 0.99286470294E+01 0.12860043148E+02 0.17660829199E+02
 0.23531239279E+02 0.28909133529E+02 0.32127536505E+02 0.32125947782E+02 0.28906408546E+02
 0.38042822815E+02 0.29091312652E+02 0.20392297401E+02 0.13842476252E+02 0.10132028912E+02
 0.85857502607E+01 0.77673026740E+01 0.72681601595E+01 0.71070104514E+01 0.72681232179E+01
 0.77673964007E+01 0.85856649387E+01 0.10131130873E+02 0.13841107078E+02 0.20392385006E+02
 0.29094703732E+02 0.38048718724E+02 0.44807781942E+02 0.47324562722E+02 0.44803070073E+02
 0.55983214390E+02 0.44927062930E+02 0.32412875491E+02 0.21425336563E+02 0.13840681839E+02
 0.99289186837E+01 0.84469174999E+01 0.76647525837E+01 0.72683286411E+01 0.72685939763E+01
 0.76651638446E+01 0.84468966325E+01 0.99286466409E+01 0.13841125842E+02 0.21427239148E+02
 0.32415910037E+02 0.44930105117E+02 0.55985275184E+02 0.62497278811E+02 0.62496578989E+02
 0.73792879509E+02 0.62561113763E+02 0.47491699335E+02 0.32414568768E+02 0.20390825152E+02
 0.12860039415E+02 0.94166250382E+01 0.81935511041E+01 0.75258317390E+01 0.73020818526E+01
 0.75263642188E+01 0.81935729775E+01 0.94159695539E+01 0.12860074505E+02 0.20392376138E+02
 0.32415930155E+02 0.47490082615E+02 0.62556333674E+02 0.73788523865E+02 0.77957964818E+02
 0.87027217634E+02 0.77979505981E+02 0.62561670912E+02 0.44931787885E+02 0.29094243193E+02
 0.17660683357E+02 0.11297460991E+02 0.88019047455E+01 0.78618311069E+01 0.73823583345E+01
 0.73827270116E+01 0.78622244835E+01 0.88014067119E+01 0.11296631368E+02 0.17660773317E+02
 0.29094742846E+02 0.44930104375E+02 0.62556264488E+02 0.77972811284E+02 0.87024143047E+02
 0.59198100026E+02 0.56014326601E+02 0.47442668541E+02 0.35996639553E+02 0.24690795250E+02
 0.15924460546E+02 0.10715613534E+02 0.84902905544E+01 0.75485232459E+01 0.69767135349E+01
 0.67890796500E+01 0.69768621233E+01 0.75486422419E+01 0.84902459211E+01 0.10715473915E+02
 0.15924397145E+02 0.24690867737E+02 0.35996746154E+02 0.47442701500E+02 0.56014303381E+02
 0.56015645928E+02 0.56014219246E+02 0.50117970234E+02 0.40118612263E+02 0.28837401889E+02
 0.19015723796E+02 0.12354733807E+02 0.90213387825E+01 0.77499444433E+01 0.70213087985E+01