    2    2    1    1
  0.9632349E+01  0.2353300E-09  0.2353300E-09  0.4016770E-09  0.5000000E-15
  1.000000000000000E-004
  CAR 
 unknown system                          
     16     96     40
 
  0.0000000E+00  0.0000000E+00  0.0000000E+00  0.7513148E-03
    1       -1.677467   1.000000
    2        2.257055   1.000000
    3        5.378681   1.000000
    4        5.824936   1.000000
    5        5.825031   1.000000
    6        6.205346   1.000000
    7        6.205460   1.000000
    8        7.041456   1.001614
    9        7.041482   1.001615
   10        7.155354   1.012418
   11        8.340602  -0.000000
   12        8.340629  -0.000000
   13       15.813661   0.000000
   14       31.002230   0.000000
   15       32.578789   0.000000
   16       34.333133   0.000000
   17       36.548986   0.000000
   18       36.549050   0.000000
   19       37.371257   0.000000
   20       37.371429   0.000000
   21       39.856114   0.000000
   22       40.361772   0.000000
   23       40.361797   0.000000
   24       41.471869   0.000000
   25       44.371800   0.000000
   26       44.371811   0.000000
   27       45.794793   0.000000
   28       48.254452   0.000000
   29       48.254834   0.000000
   30       50.200740   0.000000
   31       50.200872   0.000000
   32       53.271180   0.000000
   33       61.407880   0.000000
   34       63.182391   0.000000
   35       63.183402   0.000000
   36       63.191203   0.000000
   37       64.547329   0.000000
   38       65.940245   0.000000
   39       65.941492   0.000000
   40       68.029118   0.000000
 
  0.9090909E-01 -0.1455493E-16  0.0000000E+00  0.4507889E-02
    1       -1.339770   1.000000
    2        2.500818   1.000000
    3        5.295160   1.000000
    4        5.845998   1.000000
    5        6.023746   1.000000
    6        6.095331   1.000000
    7        6.102258   1.000000
    8        6.388218   1.000000
    9        6.918419   1.000075
   10        6.923759   1.000087
   11        8.383128  -0.000000
   12        9.642427  -0.000000
   13       15.830350   0.000000
   14       29.817495   0.000000
   15       32.581265   0.000000
   16       32.848276   0.000000
   17       33.711055   0.000000
   18       36.161398   0.000000
   19       36.373811   0.000000
   20       39.599471   0.000000
   21       39.867252   0.000000
   22       40.296740   0.000000
   23       41.090358   0.000000
   24       41.366078   0.000000
   25       45.465385   0.000000
   26       45.673415   0.000000
   27       45.784341   0.000000
   28       45.932653   0.000000
   29       49.685057   0.000000
   30       51.693213   0.000000
   31       52.553216   0.000000
   32       54.987485   0.000000
   33       60.358733   0.000000
   34       62.168590   0.000000
   35       62.661774   0.000000
   36       62.975985   0.000000
   37       63.005716   0.000000
   38       66.586925   0.000000
   39       67.958145   0.000000
   40       67.958426   0.000000
 
  0.1818182E+00 -0.8158573E-17  0.0000000E+00  0.4507889E-02
    1       -0.385760   1.000000
    2        3.072017   1.000000
    3        4.898185   1.000000
    4        4.975349   1.000000
    5        5.694971   1.000000
    6        6.315497   1.000000
    7        6.586465   1.000000
    8        6.600838   1.000000
    9        6.628436   1.000000
   10        6.899036   1.000043
   11        8.461851  -0.000000
   12       11.607610  -0.000000
   13       15.915167   0.000000
   14       26.155628   0.000000
   15       30.840222   0.000000
   16       31.358542   0.000000
   17       32.020043   0.000000
   18       33.525565   0.000000
   19       37.021671   0.000000
   20       38.701111   0.000000
   21       39.095304   0.000000
   22       39.284064   0.000000
   23       41.684084   0.000000
   24       43.144698   0.000000
   25       45.271121   0.000000
   26       46.317651   0.000000
   27       48.031459   0.000000
   28       50.388696   0.000000
   29       52.709062   0.000000
   30       54.963458   0.000000
   31       55.478560   0.000000
   32       58.308848   0.000000
   33       58.733687   0.000000
   34       60.002207   0.000000
   35       60.555516   0.000000
   36       61.976406   0.000000
   37       63.773277   0.000000
   38       67.507122   0.000000
   39       67.806667   0.000000
   40       69.465390   0.000000
 
  0.2727273E+00 -0.7373728E-16  0.0000000E+00  0.4507889E-02
    1        0.963455   1.000000
    2        3.350621   1.000000
    3        3.966284   1.000000
    4        4.863126   1.000000
    5        5.536016   1.000000
    6        6.194971   1.000000
    7        6.298358   1.000000
    8        7.095214   1.004687
    9        7.381786   0.967508
   10        7.610990   0.174792
   11        8.517461  -0.000000
   12       13.786050   0.000000
   13       16.086826   0.000000
   14       22.182383   0.000000
   15       28.352988   0.000000
   16       28.417747   0.000000
   17       29.874691   0.000000
   18       33.045455   0.000000
   19       35.324147   0.000000
   20       38.486429   0.000000
   21       39.384007   0.000000
   22       39.386493   0.000000
   23       39.494875   0.000000
   24       43.643533   0.000000
   25       48.730863   0.000000
   26       50.556795   0.000000
   27       51.504119   0.000000
   28       53.365080   0.000000
   29       54.764504   0.000000
   30       55.685958   0.000000
   31       57.165234   0.000000
   32       58.600729   0.000000
   33       59.872922   0.000000
   34       60.754650   0.000000
   35       60.977014   0.000000
   36       62.562638   0.000000
   37       64.105022   0.000000
   38       67.653000   0.000000
   39       68.014158   0.000000
   40       68.805013   0.000000
 
  0.3636364E+00 -0.5604925E-16  0.0000000E+00  0.4507889E-02
    1        2.169591   1.000000
    2        3.088868   1.000000
    3        3.339553   1.000000
    4        5.091043   1.000000
    5        5.834119   1.000000
    6        5.869917   1.000000
    7        6.027216   1.000000
    8        8.182554  -0.000018
    9        8.334060  -0.000000
   10        8.343971  -0.000000
   11        8.542242  -0.000000
   12       15.743089   0.000000
   13       16.091945   0.000000
   14       19.476754   0.000000
   15       25.171072   0.000000
   16       26.450578   0.000000
   17       27.249282   0.000000
   18       32.030279   0.000000
   19       34.108409   0.000000
   20       37.342748   0.000000
   21       38.119772   0.000000
   22       40.362751   0.000000
   23       41.638415   0.000000
   24       44.145313   0.000000
   25       52.041472   0.000000
   26       52.424409   0.000000
   27       52.522871   0.000000
   28       55.672946   0.000000
   29       56.122508   0.000000
   30       56.961491   0.000000
   31       59.278075   0.000000
   32       59.878514   0.000000
   33       60.223011   0.000000
   34       60.963625   0.000000
   35       62.600137   0.000000
   36       64.318788   0.000000
   37       67.053160   0.000000
   38       67.578483   0.000000
   39       67.778216   0.000000
   40       68.054643   0.000000
 
  0.4545455E+00 -0.4271400E-16  0.0000000E+00  0.4507889E-02
    1        2.635721   1.000000
    2        2.871020   1.000000
    3        3.025658   1.000000
    4        5.616373   1.000000
    5        5.624529   1.000000
    6        5.875365   1.000000
    7        6.125599   1.000000
    8        8.548629  -0.000000
    9        8.674193  -0.000000
   10        8.825547  -0.000000
   11       10.049429  -0.000000
   12       13.604692   0.000000
   13       18.254487   0.000000
   14       19.639940   0.000000
   15       22.553542   0.000000
   16       24.653699   0.000000
   17       25.382411   0.000000
   18       31.367969   0.000000
   19       33.728695   0.000000
   20       36.200192   0.000000
   21       37.921103   0.000000
   22       41.118981   0.000000
   23       43.791136   0.000000
   24       44.462860   0.000000
   25       48.678660   0.000000
   26       53.374844   0.000000
   27       54.437962   0.000000
   28       57.833905   0.000000
   29       58.843928   0.000000
   30       59.019954   0.000000
   31       60.240787   0.000000
   32       61.258000   0.000000
   33       61.305646   0.000000
   34       63.452764   0.000000
   35       63.531564   0.000000
   36       64.993664   0.000000
   37       66.337675   0.000000
   38       66.652028   0.000000
   39       67.520214   0.000000
   40       68.034831   0.000000
 
  0.9090909E-01  0.9090909E-01  0.0000000E+00  0.4507889E-02
    1       -0.691139   1.000000
    2        2.926453   1.000000
    3        5.033536   1.000000
    4        5.216633   1.000000
    5        5.881821   1.000000
    6        6.012869   1.000000
    7        6.435102   1.000000
    8        6.497866   1.000000
    9        6.787650   1.000001
   10        6.916435   1.000071
   11        8.414075  -0.000000
   12       11.063328  -0.000000
   13       15.887432   0.000000
   14       27.840086   0.000000
   15       29.238166   0.000000
   16       33.098484   0.000000
   17       33.566153   0.000000
   18       34.766485   0.000000
   19       35.233739   0.000000
   20       37.570989   0.000000
   21       39.068073   0.000000
   22       42.398386   0.000000
   23       42.815557   0.000000
   24       43.575803   0.000000
   25       44.451195   0.000000
   26       44.523112   0.000000
   27       44.717119   0.000000
   28       50.765313   0.000000
   29       53.192139   0.000000
   30       53.593999   0.000000
   31       53.654845   0.000000
   32       57.554408   0.000000
   33       59.179353   0.000000
   34       60.871755   0.000000
   35       61.231297   0.000000
   36       62.029984   0.000000
   37       63.088636   0.000000
   38       67.668306   0.000000
   39       67.834470   0.000000
   40       69.533776   0.000000
 
  0.1818182E+00  0.9090909E-01  0.0000000E+00  0.9015778E-02
    1        0.485860   1.000000
    2        3.465479   1.000000
    3        4.305989   1.000000
    4        4.661605   1.000000
    5        5.617980   1.000000
    6        6.073609   1.000000
    7        6.466530   1.000000
    8        6.663791   1.000000
    9        7.167058   1.014578
   10        7.527328   0.495650
   11        8.438865  -0.000000
   12       13.022066   0.000000
   13       16.063272   0.000000
   14       24.196085   0.000000
   15       26.808286   0.000000
   16       30.166337   0.000000
   17       32.504779   0.000000
   18       32.705057   0.000000
   19       35.926417   0.000000
   20       37.224680   0.000000
   21       37.609903   0.000000
   22       42.292410   0.000000
   23       42.427775   0.000000
   24       43.083356   0.000000
   25       46.231723   0.000000
   26       47.190448   0.000000
   27       48.918790   0.000000
   28       53.665006   0.000000
   29       55.430713   0.000000
   30       56.396513   0.000000
   31       56.652501   0.000000
   32       58.732007   0.000000
   33       59.377382   0.000000
   34       59.884123   0.000000
   35       60.820558   0.000000
   36       61.052169   0.000000
   37       63.571694   0.000000
   38       67.632569   0.000000
   39       68.091643   0.000000
   40       69.236897   0.000000
 
  0.2727273E+00  0.9090909E-01  0.0000000E+00  0.9015778E-02
    1        1.852069   1.000000
    2        3.415724   1.000000
    3        3.612356   1.000000
    4        4.714788   1.000000
    5        5.688930   1.000000
    6        5.749808   1.000000
    7        6.285066   1.000000
    8        7.233070   1.029131
    9        7.979086  -0.003113
   10        8.451947  -0.000000
   11        8.495772  -0.000000
   12       15.232295   0.000000
   13       16.292058   0.000000
   14       20.576264   0.000000
   15       25.056548   0.000000
   16       26.856331   0.000000
   17       29.530929   0.000000
   18       31.242586   0.000000
   19       35.320562   0.000000
   20       36.375916   0.000000
   21       38.488148   0.000000
   22       42.129729   0.000000
   23       42.143735   0.000000
   24       44.562114   0.000000
   25       48.303049   0.000000
   26       51.010708   0.000000
   27       52.900832   0.000000
   28       54.068062   0.000000
   29       54.341478   0.000000
   30       57.458285   0.000000
   31       58.766403   0.000000
   32       59.724098   0.000000
   33       60.488321   0.000000
   34       60.643272   0.000000
   35       62.142910   0.000000
   36       63.768394   0.000000
   37       65.696748   0.000000
   38       67.106069   0.000000
   39       67.517700   0.000000
   40       69.356505   0.000000
 
  0.3636364E+00  0.9090909E-01  0.0000000E+00  0.9015778E-02
    1        2.711861   1.000000
    2        3.109618   1.000000
    3        3.189439   1.000000
    4        5.141682   1.000000
    5        5.589697   1.000000
    6        5.927980   1.000000
    7        6.038920   1.000000
    8        8.139111  -0.000065
    9        8.452227  -0.000000
   10        8.555422  -0.000000
   11        9.746356  -0.000000
   12       15.084908   0.000000
   13       17.539574   0.000000
   14       19.398763   0.000000
   15       23.708615   0.000000
   16       23.902211   0.000000
   17       26.362822   0.000000
   18       30.311784   0.000000
   19       34.342261   0.000000
   20       35.805937   0.000000
   21       39.219441   0.000000
   22       42.551397   0.000000
   23       43.635044   0.000000
   24       44.613958   0.000000
   25       50.609331   0.000000
   26       51.118424   0.000000
   27       53.553535   0.000000
   28       54.970672   0.000000
   29       56.659520   0.000000
   30       58.822885   0.000000
   31       58.971702   0.000000
   32       60.556212   0.000000
   33       61.419389   0.000000
   34       63.476420   0.000000
   35       64.148422   0.000000
   36       65.261793   0.000000
   37       65.426696   0.000000
   38       67.413224   0.000000
   39       68.533363   0.000000
   40       68.679343   0.000000
 
  0.4545455E+00  0.9090909E-01  0.0000000E+00  0.4507889E-02
    1        2.842111   1.000000
    2        3.035704   1.000000
    3        3.047947   1.000000
    4        5.500425   1.000000
    5        5.580739   1.000000
    6        5.747777   1.000000
    7        6.173136   1.000000
    8        8.449180  -0.000000
    9        8.645885  -0.000000
   10        8.659847  -0.000000
   11       11.004794  -0.000000
   12       13.261608   0.000000
   13       19.099646   0.000000
   14       20.082076   0.000000
   15       22.126614   0.000000
   16       22.974499   0.000000
   17       24.838019   0.000000
   18       29.982695   0.000000
   19       33.934716   0.000000
   20       35.625076   0.000000
   21       39.314591   0.000000
   22       43.272376   0.000000
   23       43.773302   0.000000
   24       45.512969   0.000000
   25       48.303565   0.000000
   26       53.190283   0.000000
   27       53.420964   0.000000
   28       56.363664   0.000000
   29       57.876637   0.000000
   30       58.110842   0.000000
   31       61.426376   0.000000
   32       61.535765   0.000000
   33       61.537535   0.000000
   34       61.568299   0.000000
   35       64.620282   0.000000
   36       66.922070   0.000000
   37       67.098858   0.000000
   38       67.132499   0.000000
   39       67.483083   0.000000
   40       69.655173   0.000000
 
  0.1818182E+00  0.1818182E+00  0.0000000E+00  0.4507889E-02
    1        1.754403   1.000000
    2        3.772036   1.000000
    3        3.895542   1.000000
    4        4.190246   1.000000
    5        5.625137   1.000000
    6        5.683493   1.000000
    7        6.453191   1.000000
    8        6.729952   1.000000
    9        7.956274  -0.004782
   10        8.359290  -0.000000
   11        8.556914  -0.000000
   12       14.956786   0.000000
   13       16.484291   0.000000
   14       22.173337   0.000000
   15       23.027963   0.000000
   16       28.286237   0.000000
   17       29.892178   0.000000
   18       31.856517   0.000000
   19       32.674600   0.000000
   20       38.298591   0.000000
   21       39.121784   0.000000
   22       42.959607   0.000000
   23       43.483498   0.000000
   24       45.724589   0.000000
   25       46.277803   0.000000
   26       48.345527   0.000000
   27       49.987310   0.000000
   28       55.212531   0.000000
   29       55.551809   0.000000
   30       57.297382   0.000000
   31       57.496954   0.000000
   32       60.008123   0.000000
   33       60.130761   0.000000
   34       62.676648   0.000000
   35       62.706688   0.000000
   36       63.018151   0.000000
   37       63.164654   0.000000
   38       67.176760   0.000000
   39       67.444519   0.000000
   40       70.477085   0.000000
 
  0.2727273E+00  0.1818182E+00  0.0000000E+00  0.9015778E-02
    1        2.958882   1.000000
    2        3.404791   1.000000
    3        3.640944   1.000000
    4        4.372932   1.000000
    5        5.386816   1.000000
    6        5.968933   1.000000
    7        6.060993   1.000000
    8        7.296028   1.034543
    9        8.289957  -0.000000
   10        8.510794  -0.000000
   11        9.863498  -0.000000
   12       16.749977   0.000000
   13       17.190126   0.000000
   14       19.465529   0.000000
   15       21.397313   0.000000
   16       25.748930   0.000000
   17       28.229167   0.000000
   18       28.465257   0.000000
   19       31.334757   0.000000
   20       39.586597   0.000000
   21       40.291323   0.000000
   22       43.498308   0.000000
   23       45.464579   0.000000
   24       46.162316   0.000000
   25       48.009598   0.000000
   26       49.649827   0.000000
   27       51.272874   0.000000
   28       53.262000   0.000000
   29       56.318203   0.000000
   30       56.857091   0.000000
   31       58.511498   0.000000
   32       60.410691   0.000000
   33       61.730608   0.000000
   34       62.837162   0.000000
   35       64.919353   0.000000
   36       65.116325   0.000000
   37       66.420947   0.000000
   38       67.685944   0.000000
   39       68.588350   0.000000
   40       69.743014   0.000000
 
  0.3636364E+00  0.1818182E+00  0.0000000E+00  0.9015778E-02
    1        3.223345   1.000000
    2        3.337119   1.000000
    3        3.463008   1.000000
    4        4.871451   1.000000
    5        5.404900   1.000000
    6        5.661064   1.000000
    7        6.242891   1.000000
    8        7.995875  -0.002224
    9        8.250216  -0.000002
   10        8.567000  -0.000000
   11       11.494794  -0.000000
   12       14.654006   0.000000
   13       19.461659   0.000000
   14       19.789619   0.000000
   15       20.730337   0.000000
   16       23.123538   0.000000
   17       25.577970   0.000000
   18       27.577646   0.000000
   19       30.673513   0.000000
   20       39.444933   0.000000
   21       41.824816   0.000000
   22       44.063943   0.000000
   23       45.778581   0.000000
   24       46.372482   0.000000
   25       50.137173   0.000000
   26       50.418650   0.000000
   27       52.409211   0.000000
   28       52.494940   0.000000
   29       56.283896   0.000000
   30       57.372183   0.000000
   31       57.746344   0.000000
   32       60.947180   0.000000
   33       61.383975   0.000000
   34       61.911730   0.000000
   35       66.095340   0.000000
   36       66.497929   0.000000
   37       68.032864   0.000000
   38       68.512465   0.000000
   39       68.886772   0.000000
   40       69.686957   0.000000
 
  0.2727273E+00  0.2727273E+00  0.0000000E+00  0.4507889E-02
    1        3.344582   1.000000
    2        3.713304   1.000000
    3        4.065323   1.000000
    4        4.071785   1.000000
    5        5.235263   1.000000
    6        5.685804   1.000000
    7        6.295117   1.000000
    8        7.572913   0.308581
    9        8.147095  -0.000052
   10        8.542664  -0.000000
   11       11.622085  -0.000000
   12       16.803614   0.000000
   13       17.281223   0.000000
   14       19.490995   0.000000
   15       20.714011   0.000000
   16       25.025755   0.000000
   17       25.267466   0.000000
   18       27.245104   0.000000
   19       28.169388   0.000000
   20       41.783389   0.000000
   21       42.847011   0.000000
   22       45.541089   0.000000
   23       46.611735   0.000000
   24       48.112249   0.000000
   25       48.191813   0.000000
   26       48.212720   0.000000
   27       50.989951   0.000000
   28       53.583336   0.000000
   29       53.986170   0.000000
   30       56.571578   0.000000
   31       57.733835   0.000000
   32       60.236579   0.000000
   33       61.256301   0.000000
   34       62.080018   0.000000
   35       65.760212   0.000000
   36       66.885103   0.000000
   37       67.071076   0.000000
   38       68.821461   0.000000
   39       69.763049   0.000000
   40       70.112341   0.000000
 
  0.3636364E+00  0.2727273E+00  0.0000000E+00  0.4507889E-02
    1        3.344285   1.000000
    2        3.865225   1.000000
    3        3.906484   1.000000
    4        4.426717   1.000000
    5        5.302532   1.000000
    6        5.401343   1.000000
    7        6.451686   1.000000
    8        7.946219  -0.005719
    9        8.092424  -0.000233
   10        8.251300  -0.000002
   11       13.388203   0.000000
   12       14.753489   0.000000
   13       16.900543   0.000000
   14       21.491486   0.000000
   15       21.673898   0.000000
   16       22.940315   0.000000
   17       24.892572   0.000000
   18       25.645056   0.000000
   19       27.546215   0.000000
   20       42.243618   0.000000
   21       44.894551   0.000000
   22       45.942340   0.000000
   23       46.661361   0.000000
   24       47.391229   0.000000
   25       49.058296   0.000000
   26       49.325323   0.000000
   27       52.059213   0.000000
   28       52.482927   0.000000
   29       52.704394   0.000000
   30       56.169561   0.000000
   31       57.723031   0.000000
   32       58.174884   0.000000
   33       61.260579   0.000000
   34       61.645306   0.000000
   35       66.357597   0.000000
   36       67.090430   0.000000
   37       68.892574   0.000000
   38       69.135040   0.000000
   39       69.296513   0.000000
   40       69.660708   0.000000
 
  0.0000000E+00  0.0000000E+00  0.9090909E-01  0.1502630E-02
    1       -1.590190   1.000000
    2        2.235124   1.000000
    3        5.351749   1.000000
    4        5.809674   1.000000
    5        5.809766   1.000000
    6        6.182133   1.000000
    7        6.182246   1.000000
    8        6.907022   1.000054
    9        7.092463   1.004457
   10        7.092491   1.004459
   11        8.332346  -0.000000
   12        8.332374  -0.000000
   13       16.220776   0.000000
   14       30.815372   0.000000
   15       32.225878   0.000000
   16       34.140397   0.000000
   17       36.602077   0.000000
   18       36.602133   0.000000
   19       37.382612   0.000000
   20       37.382778   0.000000
   21       40.229826   0.000000
   22       40.273636   0.000000
   23       40.273654   0.000000
   24       41.753168   0.000000
   25       44.002357   0.000000
   26       44.002373   0.000000
   27       46.107941   0.000000
   28       48.532809   0.000000
   29       48.533171   0.000000
   30       50.646388   0.000000
   31       50.646511   0.000000
   32       53.144154   0.000000
   33       60.556159   0.000000
   34       62.962120   0.000000
   35       62.963081   0.000000
   36       63.342275   0.000000
   37       64.629525   0.000000
   38       64.630207   0.000000
   39       65.515933   0.000000
   40       68.618395   0.000000
 
  0.9090909E-01 -0.1455493E-16  0.9090909E-01  0.9015778E-02
    1       -1.254564   1.000000
    2        2.483937   1.000000
    3        5.292100   1.000000
    4        5.791584   1.000000
    5        5.866289   1.000000
    6        6.003585   1.000000
    7        6.204103   1.000000
    8        6.362545   1.000000
    9        6.979149   1.000379
   10        6.980645   1.000393
   11        8.371947  -0.000000
   12        9.464283  -0.000000
   13       16.273213   0.000000
   14       29.808071   0.000000
   15       32.150246   0.000000
   16       32.723383   0.000000
   17       33.791975   0.000000
   18       35.468983   0.000000
   19       37.002702   0.000000
   20       39.534652   0.000000
   21       39.659165   0.000000
   22       40.421221   0.000000
   23       41.086763   0.000000
   24       41.814287   0.000000
   25       45.075417   0.000000
   26       45.440257   0.000000
   27       46.448792   0.000000
   28       46.500929   0.000000
   29       49.579617   0.000000
   30       52.018150   0.000000
   31       52.915494   0.000000
   32       54.935079   0.000000
   33       59.269549   0.000000
   34       61.740504   0.000000
   35       62.555286   0.000000
   36       63.020764   0.000000
   37       64.047660   0.000000
   38       65.570952   0.000000
   39       66.765127   0.000000
   40       68.540896   0.000000
 
  0.1818182E+00 -0.8158573E-17  0.9090909E-01  0.9015778E-02
    1       -0.309079   1.000000
    2        3.070885   1.000000
    3        4.799785   1.000000
    4        4.996681   1.000000
    5        5.658652   1.000000
    6        6.199946   1.000000
    7        6.475658   1.000000
    8        6.745173   1.000000
    9        6.759884   1.000000
   10        6.909986   1.000059
   11        8.441584  -0.000000
   12       11.234472  -0.000000
   13       16.477932   0.000000
   14       26.213332   0.000000
   15       30.907205   0.000000
   16       30.937876   0.000000
   17       32.280591   0.000000
   18       33.014025   0.000000
   19       36.953509   0.000000
   20       38.405429   0.000000
   21       38.561077   0.000000
   22       39.848882   0.000000
   23       42.035397   0.000000
   24       43.850185   0.000000
   25       45.577338   0.000000
   26       46.334947   0.000000
   27       47.811469   0.000000
   28       50.441001   0.000000
   29       52.591058   0.000000
   30       55.047979   0.000000
   31       55.804014   0.000000
   32       57.335453   0.000000
   33       58.119235   0.000000
   34       60.072037   0.000000
   35       61.214623   0.000000
   36       62.140945   0.000000
   37       63.774067   0.000000
   38       66.636482   0.000000
   39       68.406572   0.000000
   40       68.911287   0.000000
 
  0.2727273E+00 -0.7373728E-16  0.9090909E-01  0.9015778E-02
    1        1.015792   1.000000
    2        3.362611   1.000000
    3        3.931720   1.000000
    4        4.877162   1.000000
    5        5.474401   1.000000
    6        6.223625   1.000000
    7        6.322156   1.000000
    8        7.132001   1.008756
    9        7.395672   0.942439
   10        7.590146   0.244501
   11        8.492912  -0.000000
   12       13.069734   0.000000
   13       16.938994   0.000000
   14       22.255197   0.000000
   15       27.911852   0.000000
   16       28.470468   0.000000
   17       30.267899   0.000000
   18       32.862687   0.000000
   19       35.325117   0.000000
   20       37.410731   0.000000
   21       38.136791   0.000000
   22       40.397581   0.000000
   23       40.478212   0.000000
   24       44.594273   0.000000
   25       48.858361   0.000000
   26       50.465955   0.000000
   27       51.150964   0.000000
   28       51.970728   0.000000
   29       55.284618   0.000000
   30       56.119962   0.000000
   31       57.489685   0.000000
   32       59.018019   0.000000
   33       59.529636   0.000000
   34       59.764583   0.000000
   35       61.653008   0.000000
   36       62.451674   0.000000
   37       64.332955   0.000000
   38       67.181005   0.000000
   39       67.654887   0.000000
   40       68.751010   0.000000
 
  0.3636364E+00 -0.5604925E-16  0.9090909E-01  0.9015778E-02
    1        2.154707   1.000000
    2        3.064049   1.000000
    3        3.434503   1.000000
    4        4.891671   1.000000
    5        5.867652   1.000000
    6        6.066346   1.000000
    7        6.093195   1.000000
    8        8.188945  -0.000015
    9        8.271322  -0.000001
   10        8.304237  -0.000000
   11        8.541641  -0.000000
   12       14.475141   0.000000
   13       17.315691   0.000000
   14       19.645089   0.000000
   15       24.725805   0.000000
   16       26.581684   0.000000
   17       27.722022   0.000000
   18       31.996912   0.000000
   19       34.101173   0.000000
   20       36.140103   0.000000
   21       39.269058   0.000000
   22       39.351785   0.000000
   23       41.750994   0.000000
   24       45.343739   0.000000
   25       50.251784   0.000000
   26       52.364183   0.000000
   27       53.973957   0.000000
   28       54.772751   0.000000
   29       56.151205   0.000000
   30       57.765327   0.000000
   31       59.030121   0.000000
   32       59.704541   0.000000
   33       60.737810   0.000000
   34       60.855349   0.000000
   35       62.703648   0.000000
   36       64.263821   0.000000
   37       66.674511   0.000000
   38       66.945182   0.000000
   39       68.021122   0.000000
   40       68.403268   0.000000
 
  0.4545455E+00 -0.4271400E-16  0.9090909E-01  0.9015778E-02
    1        2.551584   1.000000
    2        2.747876   1.000000
    3        3.306517   1.000000
    4        4.983511   1.000000
    5        5.920170   1.000000
    6        6.112689   1.000000
    7        6.353091   1.000000
    8        8.468941  -0.000000
    9        8.684775  -0.000000
   10        8.828998  -0.000000
   11        9.955537  -0.000000
   12       13.423726   0.000000
   13       18.040403   0.000000
   14       19.708443   0.000000
   15       22.670683   0.000000
   16       25.080202   0.000000
   17       25.523701   0.000000
   18       31.369761   0.000000
   19       33.715669   0.000000
   20       35.268925   0.000000
   21       38.908201   0.000000