 vasp.6.2.0 18Jan21 (build Mar 17 2021 09:06:54) complex                        
  
 executed on             LinuxIFC date 2021.09.09  12:05:25
 serial version


--------------------------------------------------------------------------------------------------------


 INCAR:
   ENCUT = 280.000000
   SIGMA = 0.200000
   EDIFF = 1.00e-06
   GGA = PE
   PREC = normal
   IBRION = 1
   ICHARG = 1
   ISIF = 2
   ISMEAR = 1
   KPAR = 1
   NBANDS = 40
   NSW = 0
   NCORE = 1
   LCHARG = .TRUE.

 POTCAR:    PAW_PBE Fe 06Sep2000                  
 POTCAR:    PAW_PBE Fe 06Sep2000                  
   SHA256 =  cd5a22d9368cc8b5cc476bea79732366149640da08ac9009b0e1b7fc627eea28 Fe/POTCAR             
   COPYR  = (c) Copyright 06Sep2000 Georg Kresse                                                    
   COPYR  = This file is part of the software VASP. Any use, copying, and all other rights are regul
   COPYR  = If you do not have a valid VASP license, you may not use, copy or distribute this file. 
   VRHFIN =Fe:  d7 s1                                                                               
   LEXCH  = PE                                                                                      
   EATOM  =   594.3153 eV,   43.6809 Ry                                                             
                                                                                                    
   TITEL  = PAW_PBE Fe 06Sep2000                                                                    
   LULTRA =        F    use ultrasoft PP ?                                                          
   IUNSCR =        1    unscreen: 0-lin 1-nonlin 2-no                                               
   RPACOR =    2.000    partial core radius                                                         
   POMASS =   55.847; ZVAL   =    8.000    mass and valenz                                          
   RCORE  =    2.300    outmost cutoff radius                                                       
   RWIGS  =    2.460; RWIGS  =    1.302    wigner-seitz radius (au A)                               
   ENMAX  =  267.882; ENMIN  =  200.911 eV                                                          
   RCLOC  =    1.701    cutoff for local pot                                                        
   LCOR   =        T    correct aug charges                                                         
   LPAW   =        T    paw PP                                                                      
   EAUG   =  511.368                                                                                
   DEXC   =    0.000                                                                                
   RMAX   =    2.356    core radius for proj-oper                                                   
   RAUG   =    1.300    factor for augmentation sphere                                              
   RDEP   =    2.442    radius for radial grids                                                     
   RDEPT  =    1.890    core radius for aug-charge                                                  
                                                                                                    
   Atomic configuration                                                                             
    9 entries                                                                                       
     n  l   j            E        occ.                                                              
     1  0  0.50     -6993.8440   2.0000                                                             
     2  0  0.50      -814.6047   2.0000                                                             
     2  1  1.50      -693.3689   6.0000                                                             
     3  0  0.50       -89.4732   2.0000                                                             
     3  1  1.50       -55.6373   6.0000                                                             
     3  2  2.50        -3.8151   7.0000                                                             
     4  0  0.50        -4.2551   1.0000                                                             
     4  1  1.50        -3.4015   0.0000                                                             
     4  3  2.50        -1.3606   0.0000                                                             
   Description                                                                                      
     l       E           TYP  RCUT    TYP  RCUT                                                     
     2     -3.8151135     23  2.300                                                                 
     2     -5.1756961     23  2.300                                                                 
     0     -4.2550963     23  2.300                                                                 
     0      7.2035603     23  2.300                                                                 
     1     -2.7211652     23  2.300                                                                 
     1     18.4316424     23  2.300                                                                 
  local pseudopotential read in
  partial core-charges read in
  partial kinetic energy density read in
  atomic valenz-charges read in
  non local Contribution for L=           2  read in
    real space projection operators read in
  non local Contribution for L=           2  read in
    real space projection operators read in
  non local Contribution for L=           0  read in
    real space projection operators read in
  non local Contribution for L=           0  read in
    real space projection operators read in
  non local Contribution for L=           1  read in
    real space projection operators read in
  non local Contribution for L=           1  read in
    real space projection operators read in
    PAW grid and wavefunctions read in
 
   number of l-projection  operators is LMAX  =           6
   number of lm-projection operators is LMMAX =          18
 
  PAW_PBE Fe 06Sep2000                  :
 energy of atom  1       EATOM= -594.3153
 kinetic energy error for atom=    0.0278 (will be added to EATOM!!)
 
 
 POSCAR: Fe
  positions in cartesian coordinates
  No initial velocities read in
 exchange correlation table for  LEXCH =        8
   RHO(1)=    0.500       N(1)  =     2000
   RHO(2)=  100.500       N(2)  =     4000
 


--------------------------------------------------------------------------------------------------------


 ion  position               nearest neighbor table
   1  0.000  0.000  0.000-   2 2.42   2 2.42   2 2.42   2 2.42   2 2.42   2 2.42
   2  0.333  0.667  0.500-   1 2.42   1 2.42   1 2.42   1 2.42   1 2.42   1 2.42
 
  LATTYP: Found a hexagonal cell.
 ALAT       =     2.3533000000
 C/A-ratio  =     1.7068669528
  
  Lattice vectors:
  
 A1 = (   2.3533000000,   0.0000000000,   0.0000000000)
 A2 = (  -1.1766500000,   2.0380175827,   0.0000000000)
 A3 = (   0.0000000000,   0.0000000000,   4.0167700000)


Analysis of symmetry for initial positions (statically):
=====================================================================
 Subroutine PRICEL returns:
 Original cell was already a primitive cell.
 

 Routine SETGRP: Setting up the symmetry group for a 
 hexagonal supercell.


 Subroutine GETGRP returns: Found 24 space group operations
 (whereof 12 operations were pure point group operations)
 out of a pool of 24 trial point group operations.


The static configuration has the point symmetry D_3h.
 The point group associated with its full space group is D_6h.


Analysis of symmetry for dynamics (positions and initial velocities):
=====================================================================
 Subroutine PRICEL returns:
 Original cell was already a primitive cell.
 

 Routine SETGRP: Setting up the symmetry group for a 
 hexagonal supercell.


 Subroutine GETGRP returns: Found 24 space group operations
 (whereof 12 operations were pure point group operations)
 out of a pool of 24 trial point group operations.


The dynamic configuration has the point symmetry D_3h.
 The point group associated with its full space group is D_6h.


 Subroutine INISYM returns: Found 24 space group operations
 (whereof 12 operations are pure point group operations),
 and found     1 'primitive' translations


----------------------------------------------------------------------------------------

                                     Primitive cell                                     

  volume of cell :      19.2647

  direct lattice vectors                    reciprocal lattice vectors
     2.353300000  0.000000000  0.000000000     0.424935197  0.245336451  0.000000000
    -1.176650000  2.038017583  0.000000000     0.000000000  0.490672901  0.000000000
     0.000000000  0.000000000  4.016770000     0.000000000  0.000000000  0.248956251

  length of vectors
     2.353300000  2.353300000  4.016770000     0.490672901  0.490672901  0.248956251

  position of ions in fractional coordinates (direct lattice)
     0.000000000  0.000000000  0.000000000
     0.333333333  0.666666667  0.500000000

  ion indices of the primitive-cell ions
   primitive index   ion index
                 1           1
                 2           2

----------------------------------------------------------------------------------------

 
 
 KPOINTS: KPOINTS created by Atomic Simulation Env

Automatic generation of k-mesh.
 Grid dimensions read from file:
 generate k-points for:   11   11   11

 Generating k-lattice:

  Cartesian coordinates                     Fractional coordinates (reciprocal lattice)
     0.038630472  0.022303314  0.000000000     0.090909091  0.000000000  0.000000000
     0.000000000  0.044606627  0.000000000     0.000000000  0.090909091  0.000000000
     0.000000000  0.000000000  0.022632386     0.000000000  0.000000000  0.090909091

  Length of vectors
     0.044606627  0.044606627  0.022632386

  Shift w.r.t. Gamma in fractional coordinates (k-lattice)
     0.000000000  0.000000000  0.000000000

 
 Subroutine IBZKPT returns following result:
 ===========================================
 
 Found     96 irreducible k-points:
 
 Following reciprocal coordinates:
            Coordinates               Weight
  0.000000  0.000000  0.000000      1.000000
  0.090909 -0.000000  0.000000      6.000000
  0.181818 -0.000000  0.000000      6.000000
  0.272727 -0.000000  0.000000      6.000000
  0.363636 -0.000000  0.000000      6.000000
  0.454545 -0.000000  0.000000      6.000000
  0.090909  0.090909  0.000000      6.000000
  0.181818  0.090909  0.000000     12.000000
  0.272727  0.090909  0.000000     12.000000
  0.363636  0.090909  0.000000     12.000000
  0.454545  0.090909  0.000000      6.000000
  0.181818  0.181818  0.000000      6.000000
  0.272727  0.181818  0.000000     12.000000
  0.363636  0.181818  0.000000     12.000000
  0.272727  0.272727  0.000000      6.000000
  0.363636  0.272727  0.000000      6.000000
  0.000000  0.000000  0.090909      2.000000
  0.090909 -0.000000  0.090909     12.000000
  0.181818 -0.000000  0.090909     12.000000
  0.272727 -0.000000  0.090909     12.000000
  0.363636 -0.000000  0.090909     12.000000
  0.454545 -0.000000  0.090909     12.000000
  0.090909  0.090909  0.090909     12.000000
  0.181818  0.090909  0.090909     24.000000
  0.272727  0.090909  0.090909     24.000000
  0.363636  0.090909  0.090909     24.000000
  0.454545  0.090909  0.090909     12.000000
  0.181818  0.181818  0.090909     12.000000
  0.272727  0.181818  0.090909     24.000000
  0.363636  0.181818  0.090909     24.000000
  0.272727  0.272727  0.090909     12.000000
  0.363636  0.272727  0.090909     12.000000
  0.000000  0.000000  0.181818      2.000000
  0.090909 -0.000000  0.181818     12.000000
  0.181818 -0.000000  0.181818     12.000000
  0.272727 -0.000000  0.181818     12.000000
  0.363636 -0.000000  0.181818     12.000000
  0.454545 -0.000000  0.181818     12.000000
  0.090909  0.090909  0.181818     12.000000
  0.181818  0.090909  0.181818     24.000000
  0.272727  0.090909  0.181818     24.000000
  0.363636  0.090909  0.181818     24.000000
  0.454545  0.090909  0.181818     12.000000
  0.181818  0.181818  0.181818     12.000000
  0.272727  0.181818  0.181818     24.000000
  0.363636  0.181818  0.181818     24.000000
  0.272727  0.272727  0.181818     12.000000
  0.363636  0.272727  0.181818     12.000000
  0.000000  0.000000  0.272727      2.000000
  0.090909 -0.000000  0.272727     12.000000
  0.181818 -0.000000  0.272727     12.000000
  0.272727 -0.000000  0.272727     12.000000
  0.363636 -0.000000  0.272727     12.000000
  0.454545 -0.000000  0.272727     12.000000
  0.090909  0.090909  0.272727     12.000000
  0.181818  0.090909  0.272727     24.000000
  0.272727  0.090909  0.272727     24.000000
  0.363636  0.090909  0.272727     24.000000
  0.454545  0.090909  0.272727     12.000000
  0.181818  0.181818  0.272727     12.000000
  0.272727  0.181818  0.272727     24.000000
  0.363636  0.181818  0.272727     24.000000
  0.272727  0.272727  0.272727     12.000000
  0.363636  0.272727  0.272727     12.000000
  0.000000  0.000000  0.363636      2.000000
  0.090909 -0.000000  0.363636     12.000000
  0.181818 -0.000000  0.363636     12.000000
  0.272727 -0.000000  0.363636     12.000000
  0.363636 -0.000000  0.363636     12.000000
  0.454545 -0.000000  0.363636     12.000000
  0.090909  0.090909  0.363636     12.000000
  0.181818  0.090909  0.363636     24.000000
  0.272727  0.090909  0.363636     24.000000
  0.363636  0.090909  0.363636     24.000000
  0.454545  0.090909  0.363636     12.000000
  0.181818  0.181818  0.363636     12.000000
  0.272727  0.181818  0.363636     24.000000
  0.363636  0.181818  0.363636     24.000000
  0.272727  0.272727  0.363636     12.000000
  0.363636  0.272727  0.363636     12.000000
  0.000000  0.000000  0.454545      2.000000
  0.090909 -0.000000  0.454545     12.000000
  0.181818 -0.000000  0.454545     12.000000
  0.272727 -0.000000  0.454545     12.000000
  0.363636 -0.000000  0.454545     12.000000
  0.454545 -0.000000  0.454545     12.000000
  0.090909  0.090909  0.454545     12.000000
  0.181818  0.090909  0.454545     24.000000
  0.272727  0.090909  0.454545     24.000000
  0.363636  0.090909  0.454545     24.000000
  0.454545  0.090909  0.454545     12.000000
  0.181818  0.181818  0.454545     12.000000
  0.272727  0.181818  0.454545     24.000000
  0.363636  0.181818  0.454545     24.000000
  0.272727  0.272727  0.454545     12.000000
  0.363636  0.272727  0.454545     12.000000
 
 Following cartesian coordinates:
            Coordinates               Weight
  0.000000  0.000000  0.000000      1.000000
  0.038630  0.022303  0.000000      6.000000
  0.077261  0.044607  0.000000      6.000000
  0.115891  0.066910  0.000000      6.000000
  0.154522  0.089213  0.000000      6.000000
  0.193152  0.111517  0.000000      6.000000
  0.038630  0.066910  0.000000      6.000000
  0.077261  0.089213  0.000000     12.000000
  0.115891  0.111517  0.000000     12.000000
  0.154522  0.133820  0.000000     12.000000
  0.193152  0.156123  0.000000      6.000000
  0.077261  0.133820  0.000000      6.000000
  0.115891  0.156123  0.000000     12.000000
  0.154522  0.178427  0.000000     12.000000
  0.115891  0.200730  0.000000      6.000000
  0.154522  0.223033  0.000000      6.000000
  0.000000  0.000000  0.022632      2.000000
  0.038630  0.022303  0.022632     12.000000
  0.077261  0.044607  0.022632     12.000000
  0.115891  0.066910  0.022632     12.000000
  0.154522  0.089213  0.022632     12.000000
  0.193152  0.111517  0.022632     12.000000
  0.038630  0.066910  0.022632     12.000000
  0.077261  0.089213  0.022632     24.000000
  0.115891  0.111517  0.022632     24.000000
  0.154522  0.133820  0.022632     24.000000
  0.193152  0.156123  0.022632     12.000000
  0.077261  0.133820  0.022632     12.000000
  0.115891  0.156123  0.022632     24.000000
  0.154522  0.178427  0.022632     24.000000
  0.115891  0.200730  0.022632     12.000000
  0.154522  0.223033  0.022632     12.000000
  0.000000  0.000000  0.045265      2.000000
  0.038630  0.022303  0.045265     12.000000
  0.077261  0.044607  0.045265     12.000000
  0.115891  0.066910  0.045265     12.000000
  0.154522  0.089213  0.045265     12.000000
  0.193152  0.111517  0.045265     12.000000
  0.038630  0.066910  0.045265     12.000000
  0.077261  0.089213  0.045265     24.000000
  0.115891  0.111517  0.045265     24.000000
  0.154522  0.133820  0.045265     24.000000
  0.193152  0.156123  0.045265     12.000000
  0.077261  0.133820  0.045265     12.000000
  0.115891  0.156123  0.045265     24.000000
  0.154522  0.178427  0.045265     24.000000
  0.115891  0.200730  0.045265     12.000000
  0.154522  0.223033  0.045265     12.000000
  0.000000  0.000000  0.067897      2.000000
  0.038630  0.022303  0.067897     12.000000
  0.077261  0.044607  0.067897     12.000000
  0.115891  0.066910  0.067897     12.000000
  0.154522  0.089213  0.067897     12.000000
  0.193152  0.111517  0.067897     12.000000
  0.038630  0.066910  0.067897     12.000000
  0.077261  0.089213  0.067897     24.000000
  0.115891  0.111517  0.067897     24.000000
  0.154522  0.133820  0.067897     24.000000
  0.193152  0.156123  0.067897     12.000000
  0.077261  0.133820  0.067897     12.000000
  0.115891  0.156123  0.067897     24.000000
  0.154522  0.178427  0.067897     24.000000
  0.115891  0.200730  0.067897     12.000000
  0.154522  0.223033  0.067897     12.000000
  0.000000  0.000000  0.090530      2.000000
  0.038630  0.022303  0.090530     12.000000
  0.077261  0.044607  0.090530     12.000000
  0.115891  0.066910  0.090530     12.000000
  0.154522  0.089213  0.090530     12.000000
  0.193152  0.111517  0.090530     12.000000
  0.038630  0.066910  0.090530     12.000000
  0.077261  0.089213  0.090530     24.000000
  0.115891  0.111517  0.090530     24.000000
  0.154522  0.133820  0.090530     24.000000
  0.193152  0.156123  0.090530     12.000000
  0.077261  0.133820  0.090530     12.000000
  0.115891  0.156123  0.090530     24.000000
  0.154522  0.178427  0.090530     24.000000
  0.115891  0.200730  0.090530     12.000000
  0.154522  0.223033  0.090530     12.000000
  0.000000  0.000000  0.113162      2.000000
  0.038630  0.022303  0.113162     12.000000
  0.077261  0.044607  0.113162     12.000000
  0.115891  0.066910  0.113162     12.000000
  0.154522  0.089213  0.113162     12.000000
  0.193152  0.111517  0.113162     12.000000
  0.038630  0.066910  0.113162     12.000000
  0.077261  0.089213  0.113162     24.000000
  0.115891  0.111517  0.113162     24.000000
  0.154522  0.133820  0.113162     24.000000
  0.193152  0.156123  0.113162     12.000000
  0.077261  0.133820  0.113162     12.000000
  0.115891  0.156123  0.113162     24.000000
  0.154522  0.178427  0.113162     24.000000
  0.115891  0.200730  0.113162     12.000000
  0.154522  0.223033  0.113162     12.000000
 


--------------------------------------------------------------------------------------------------------




 Dimension of arrays:
   k-points           NKPTS =     96   k-points in BZ     NKDIM =     96   number of bands    NBANDS=     40
   number of dos      NEDOS =    301   number of ions     NIONS =      2
   non local maximal  LDIM  =      6   non local SUM 2l+1 LMDIM =     18
   total plane-waves  NPLWV =   1600
   max r-space proj   IRMAX =      1   max aug-charges    IRDMAX=   3158
   dimension x,y,z NGX =    10 NGY =   10 NGZ =   16
   dimension x,y,z NGXF=    20 NGYF=   20 NGZF=   32
   support grid    NGXF=    20 NGYF=   20 NGZF=   32
   ions per type =               2
   NGX,Y,Z   is equivalent  to a cutoff of   7.06,  7.06,  6.62 a.u.
   NGXF,Y,Z  is equivalent  to a cutoff of  14.13, 14.13, 13.24 a.u.

 SYSTEM =  unknown system                          
 POSCAR =  Fe                                      

 Startparameter for this run:
   NWRITE =      2    write-flag & timer
   PREC   = normal    normal or accurate (medium, high low for compatibility)
   ISTART =      0    job   : 0-new  1-cont  2-samecut
   ICHARG =      1    charge: 1-file 2-atom 10-const
   ISPIN  =      1    spin polarized calculation?
   LNONCOLLINEAR =      F non collinear calculations
   LSORBIT =      F    spin-orbit coupling
   INIWAV =      1    electr: 0-lowe 1-rand  2-diag
   LASPH  =      F    aspherical Exc in radial PAW
   METAGGA=      F    non-selfconsistent MetaGGA calc.

 Electronic Relaxation 1
   ENCUT  =  280.0 eV  20.58 Ry    4.54 a.u.   3.21  3.21  5.48*2*pi/ulx,y,z
   ENINI  =  280.0     initial cutoff
   ENAUG  =  511.4 eV  augmentation charge cutoff
   NELM   =     60;   NELMIN=  2; NELMDL= -5     # of ELM steps 
   EDIFF  = 0.1E-05   stopping-criterion for ELM
   LREAL  =      F    real-space projection
   NLSPLINE    = F    spline interpolate recip. space projectors
   LCOMPAT=      F    compatible to vasp.4.4
   GGA_COMPAT  = T    GGA compatible to vasp.4.4-vasp.4.6
   LMAXPAW     = -100 max onsite density
   LMAXMIX     =    2 max onsite mixed and CHGCAR
   VOSKOWN=      0    Vosko Wilk Nusair interpolation
   ROPT   =    0.00000
 Ionic relaxation
   EDIFFG = 0.1E-04   stopping-criterion for IOM
   NSW    =      0    number of steps for IOM
   NBLOCK =      1;   KBLOCK =      1    inner block; outer block 
   IBRION =     -1    ionic relax: 0-MD 1-quasi-New 2-CG
   NFREE  =      0    steps in history (QN), initial steepest desc. (CG)
   ISIF   =      2    stress and relaxation
   IWAVPR =      0    prediction:  0-non 1-charg 2-wave 3-comb
   ISYM   =      2    0-nonsym 1-usesym 2-fastsym
   LCORR  =      T    Harris-Foulkes like correction to forces

   POTIM  = 0.5000    time-step for ionic-motion
   TEIN   =    0.0    initial temperature
   TEBEG  =    0.0;   TEEND  =   0.0 temperature during run
   SMASS  =  -3.00    Nose mass-parameter (am)
   estimated Nose-frequenzy (Omega)   =  0.10E-29 period in steps = 0.13E+47 mass=  -0.127E-27a.u.
   SCALEE = 1.0000    scale energy and forces
   NPACO  =    256;   APACO  = 16.0  distance and # of slots for P.C.
   PSTRESS=    0.0 pullay stress

  Mass of Ions in am
   POMASS =  55.85
  Ionic Valenz
   ZVAL   =   8.00
  Atomic Wigner-Seitz radii
   RWIGS  =  -1.00
  virtual crystal weights 
   VCA    =   1.00
   NELECT =      16.0000    total number of electrons
   NUPDOWN=      -1.0000    fix difference up-down

 DOS related values:
   EMIN   =  10.00;   EMAX   =-10.00  energy-range for DOS
   EFERMI =   0.00
   ISMEAR =     1;   SIGMA  =   0.20  broadening in eV -4-tet -1-fermi 0-gaus

 Electronic relaxation 2 (details)
   IALGO  =     38    algorithm
   LDIAG  =      T    sub-space diagonalisation (order eigenvalues)
   LSUBROT=      F    optimize rotation matrix (better conditioning)
   TURBO    =      0    0=normal 1=particle mesh
   IRESTART =      0    0=no restart 2=restart with 2 vectors
   NREBOOT  =      0    no. of reboots
   NMIN     =      0    reboot dimension
   EREF     =   0.00    reference energy to select bands
   IMIX   =      4    mixing-type and parameters
     AMIX     =   0.40;   BMIX     =  1.00
     AMIX_MAG =   1.60;   BMIX_MAG =  1.00
     AMIN     =   0.10
     WC   =   100.;   INIMIX=   1;  MIXPRE=   1;  MAXMIX= -45

 Intra band minimization:
   WEIMIN = 0.0000     energy-eigenvalue tresh-hold
   EBREAK =  0.62E-08  absolut break condition
   DEPER  =   0.30     relativ break condition  

   TIME   =   0.40     timestep for ELM

  volume/ion in A,a.u.               =       9.63        65.00
  Fermi-wavevector in a.u.,A,eV,Ry     =   1.538842  2.907990 32.219078  2.368035
  Thomas-Fermi vector in A             =   2.645154
 
 Write flags
   LWAVE        =      T    write WAVECAR
   LDOWNSAMPLE  =      F    k-point downsampling of WAVECAR
   LCHARG       =      T    write CHGCAR
   LVTOT        =      F    write LOCPOT, total local potential
   LVHAR        =      F    write LOCPOT, Hartree potential only
   LELF         =      F    write electronic localiz. function (ELF)
   LORBIT       =      0    0 simple, 1 ext, 2 COOP (PROOUT), +10 PAW based schemes


 Dipole corrections
   LMONO  =      F    monopole corrections only (constant potential shift)
   LDIPOL =      F    correct potential (dipole corrections)
   IDIPOL =      0    1-x, 2-y, 3-z, 4-all directions 
   EPSILON=  1.0000000 bulk dielectric constant

 Exchange correlation treatment:
   GGA     =    PE    GGA type
   LEXCH   =     8    internal setting for exchange type
   VOSKOWN=      0    Vosko Wilk Nusair interpolation
   LHFCALC =     F    Hartree Fock is set to
   LHFONE  =     F    Hartree Fock one center treatment
   AEXX    =    0.0000 exact exchange contribution

 Linear response parameters
   LEPSILON=     F    determine dielectric tensor
   LRPA    =     F    only Hartree local field effects (RPA)
   LNABLA  =     F    use nabla operator in PAW spheres
   LVEL    =     F    velocity operator in full k-point grid
   LINTERFAST=   F  fast interpolation
   KINTER  =     0    interpolate to denser k-point grid
   CSHIFT  =0.1000    complex shift for real part using Kramers Kronig
   OMEGAMAX=  -1.0    maximum frequency
   DEG_THRESHOLD= 0.2000000E-02 threshold for treating states as degnerate
   RTIME   =   -0.100 relaxation time in fs
  (WPLASMAI=    0.000 imaginary part of plasma frequency in eV, 0.658/RTIME)
   DFIELD  = 0.0000000 0.0000000 0.0000000 field for delta impulse in time
 
 Orbital magnetization related:
   ORBITALMAG=     F  switch on orbital magnetization
   LCHIMAG   =     F  perturbation theory with respect to B field
   DQ        =  0.001000  dq finite difference perturbation B field
   LLRAUG    =     F  two centre corrections for induced B field



--------------------------------------------------------------------------------------------------------


 Static calculation
 charge density and potential will be updated during run
 non-spin polarized calculation
 Variant of blocked Davidson
 Davidson routine will perform the subspace rotation
 perform sub-space diagonalisation
    after iterative eigenvector-optimisation
 modified Broyden-mixing scheme, WC =      100.0
 initial mixing is a Kerker type mixing with AMIX =  0.4000 and BMIX =      1.0000
 Hartree-type preconditioning will be used
 using additional bands           32
 reciprocal scheme for non local part
 use partial core corrections
 calculate Harris-corrections to forces 
   (improved forces if not selfconsistent)
 use gradient corrections 
 use of overlap-Matrix (Vanderbilt PP)
 Methfessel and Paxton  Order N= 1 SIGMA  =   0.20


--------------------------------------------------------------------------------------------------------


  energy-cutoff  :      280.00
  volume of cell :       19.26
      direct lattice vectors                 reciprocal lattice vectors
     2.353300000  0.000000000  0.000000000     0.424935197  0.245336451  0.000000000
    -1.176650000  2.038017583  0.000000000     0.000000000  0.490672901  0.000000000
     0.000000000  0.000000000  4.016770000     0.000000000  0.000000000  0.248956251

  length of vectors
     2.353300000  2.353300000  4.016770000     0.490672901  0.490672901  0.248956251


 
 k-points in units of 2pi/SCALE and weight: KPOINTS created by Atomic Simulation Env
   0.00000000  0.00000000  0.00000000       0.001
   0.03863047  0.02230331  0.00000000       0.005
   0.07726094  0.04460663  0.00000000       0.005
   0.11589142  0.06690994  0.00000000       0.005
   0.15452189  0.08921325  0.00000000       0.005
   0.19315236  0.11151657  0.00000000       0.005
   0.03863047  0.06690994  0.00000000       0.005
   0.07726094  0.08921325  0.00000000       0.009
   0.11589142  0.11151657  0.00000000       0.009
   0.15452189  0.13381988  0.00000000       0.009
   0.19315236  0.15612320  0.00000000       0.005
   0.07726094  0.13381988  0.00000000       0.005
   0.11589142  0.15612320  0.00000000       0.009
   0.15452189  0.17842651  0.00000000       0.009
   0.11589142  0.20072982  0.00000000       0.005
   0.15452189  0.22303314  0.00000000       0.005
   0.00000000  0.00000000  0.02263239       0.002
   0.03863047  0.02230331  0.02263239       0.009
   0.07726094  0.04460663  0.02263239       0.009
   0.11589142  0.06690994  0.02263239       0.009
   0.15452189  0.08921325  0.02263239       0.009
   0.19315236  0.11151657  0.02263239       0.009
   0.03863047  0.06690994  0.02263239       0.009
   0.07726094  0.08921325  0.02263239       0.018
   0.11589142  0.11151657  0.02263239       0.018
   0.15452189  0.13381988  0.02263239       0.018
   0.19315236  0.15612320  0.02263239       0.009
   0.07726094  0.13381988  0.02263239       0.009
   0.11589142  0.15612320  0.02263239       0.018
   0.15452189  0.17842651  0.02263239       0.018
   0.11589142  0.20072982  0.02263239       0.009
   0.15452189  0.22303314  0.02263239       0.009
   0.00000000  0.00000000  0.04526477       0.002
   0.03863047  0.02230331  0.04526477       0.009
   0.07726094  0.04460663  0.04526477       0.009
   0.11589142  0.06690994  0.04526477       0.009
   0.15452189  0.08921325  0.04526477       0.009
   0.19315236  0.11151657  0.04526477       0.009
   0.03863047  0.06690994  0.04526477       0.009
   0.07726094  0.08921325  0.04526477       0.018
   0.11589142  0.11151657  0.04526477       0.018
   0.15452189  0.13381988  0.04526477       0.018
   0.19315236  0.15612320  0.04526477       0.009
   0.07726094  0.13381988  0.04526477       0.009
   0.11589142  0.15612320  0.04526477       0.018
   0.15452189  0.17842651  0.04526477       0.018
   0.11589142  0.20072982  0.04526477       0.009
   0.15452189  0.22303314  0.04526477       0.009
   0.00000000  0.00000000  0.06789716       0.002
   0.03863047  0.02230331  0.06789716       0.009
   0.07726094  0.04460663  0.06789716       0.009
   0.11589142  0.06690994  0.06789716       0.009
   0.15452189  0.08921325  0.06789716       0.009
   0.19315236  0.11151657  0.06789716       0.009
   0.03863047  0.06690994  0.06789716       0.009
   0.07726094  0.08921325  0.06789716       0.018
   0.11589142  0.11151657  0.06789716       0.018
   0.15452189  0.13381988  0.06789716       0.018
   0.19315236  0.15612320  0.06789716       0.009
   0.07726094  0.13381988  0.06789716       0.009
   0.11589142  0.15612320  0.06789716       0.018
   0.15452189  0.17842651  0.06789716       0.018
   0.11589142  0.20072982  0.06789716       0.009
   0.15452189  0.22303314  0.06789716       0.009
   0.00000000  0.00000000  0.09052955       0.002
   0.03863047  0.02230331  0.09052955       0.009
   0.07726094  0.04460663  0.09052955       0.009
   0.11589142  0.06690994  0.09052955       0.009
   0.15452189  0.08921325  0.09052955       0.009
   0.19315236  0.11151657  0.09052955       0.009
   0.03863047  0.06690994  0.09052955       0.009
   0.07726094  0.08921325  0.09052955       0.018
   0.11589142  0.11151657  0.09052955       0.018
   0.15452189  0.13381988  0.09052955       0.018
   0.19315236  0.15612320  0.09052955       0.009
   0.07726094  0.13381988  0.09052955       0.009
   0.11589142  0.15612320  0.09052955       0.018
   0.15452189  0.17842651  0.09052955       0.018
   0.11589142  0.20072982  0.09052955       0.009
   0.15452189  0.22303314  0.09052955       0.009
   0.00000000  0.00000000  0.11316193       0.002
   0.03863047  0.02230331  0.11316193       0.009
   0.07726094  0.04460663  0.11316193       0.009
   0.11589142  0.06690994  0.11316193       0.009
   0.15452189  0.08921325  0.11316193       0.009
   0.19315236  0.11151657  0.11316193       0.009
   0.03863047  0.06690994  0.11316193       0.009
   0.07726094  0.08921325  0.11316193       0.018
   0.11589142  0.11151657  0.11316193       0.018
   0.15452189  0.13381988  0.11316193       0.018
   0.19315236  0.15612320  0.11316193       0.009
   0.07726094  0.13381988  0.11316193       0.009
   0.11589142  0.15612320  0.11316193       0.018
   0.15452189  0.17842651  0.11316193       0.018
   0.11589142  0.20072982  0.11316193       0.009
   0.15452189  0.22303314  0.11316193       0.009
 
 k-points in reciprocal lattice and weights: KPOINTS created by Atomic Simulation Env
   0.00000000  0.00000000  0.00000000       0.001
   0.09090909 -0.00000000  0.00000000       0.005
   0.18181818 -0.00000000  0.00000000       0.005
   0.27272727 -0.00000000  0.00000000       0.005
   0.36363636 -0.00000000  0.00000000       0.005
   0.45454545 -0.00000000  0.00000000       0.005
   0.09090909  0.09090909  0.00000000       0.005
   0.18181818  0.09090909  0.00000000       0.009
   0.27272727  0.09090909  0.00000000       0.009
   0.36363636  0.09090909  0.00000000       0.009
   0.45454545  0.09090909  0.00000000       0.005
   0.18181818  0.18181818  0.00000000       0.005
   0.27272727  0.18181818  0.00000000       0.009
   0.36363636  0.18181818  0.00000000       0.009
   0.27272727  0.27272727  0.00000000       0.005
   0.36363636  0.27272727  0.00000000       0.005
   0.00000000  0.00000000  0.09090909       0.002
   0.09090909 -0.00000000  0.09090909       0.009
   0.18181818 -0.00000000  0.09090909       0.009
   0.27272727 -0.00000000  0.09090909       0.009
   0.36363636 -0.00000000  0.09090909       0.009
   0.45454545 -0.00000000  0.09090909       0.009
   0.09090909  0.09090909  0.09090909       0.009
   0.18181818  0.09090909  0.09090909       0.018
   0.27272727  0.09090909  0.09090909       0.018
   0.36363636  0.09090909  0.09090909       0.018
   0.45454545  0.09090909  0.09090909       0.009
   0.18181818  0.18181818  0.09090909       0.009
   0.27272727  0.18181818  0.09090909       0.018
   0.36363636  0.18181818  0.09090909       0.018
   0.27272727  0.27272727  0.09090909       0.009
   0.36363636  0.27272727  0.09090909       0.009
   0.00000000  0.00000000  0.18181818       0.002
   0.09090909 -0.00000000  0.18181818       0.009
   0.18181818 -0.00000000  0.18181818       0.009
   0.27272727 -0.00000000  0.18181818       0.009
   0.36363636 -0.00000000  0.18181818       0.009
   0.45454545 -0.00000000  0.18181818       0.009
   0.09090909  0.09090909  0.18181818       0.009
   0.18181818  0.09090909  0.18181818       0.018
   0.27272727  0.09090909  0.18181818       0.018
   0.36363636  0.09090909  0.18181818       0.018
   0.45454545  0.09090909  0.18181818       0.009
   0.18181818  0.18181818  0.18181818       0.009
   0.27272727  0.18181818  0.18181818       0.018
   0.36363636  0.18181818  0.18181818       0.018
   0.27272727  0.27272727  0.18181818       0.009
   0.36363636  0.27272727  0.18181818       0.009
   0.00000000  0.00000000  0.27272727       0.002
   0.09090909 -0.00000000  0.27272727       0.009
   0.18181818 -0.00000000  0.27272727       0.009
   0.27272727 -0.00000000  0.27272727       0.009
   0.36363636 -0.00000000  0.27272727       0.009
   0.45454545 -0.00000000  0.27272727       0.009
   0.09090909  0.09090909  0.27272727       0.009
   0.18181818  0.09090909  0.27272727       0.018
   0.27272727  0.09090909  0.27272727       0.018
   0.36363636  0.09090909  0.27272727       0.018
   0.45454545  0.09090909  0.27272727       0.009
   0.18181818  0.18181818  0.27272727       0.009
   0.27272727  0.18181818  0.27272727       0.018
   0.36363636  0.18181818  0.27272727       0.018
   0.27272727  0.27272727  0.27272727       0.009
   0.36363636  0.27272727  0.27272727       0.009
   0.00000000  0.00000000  0.36363636       0.002
   0.09090909 -0.00000000  0.36363636       0.009
   0.18181818 -0.00000000  0.36363636       0.009
   0.27272727 -0.00000000  0.36363636       0.009
   0.36363636 -0.00000000  0.36363636       0.009
   0.45454545 -0.00000000  0.36363636       0.009
   0.09090909  0.09090909  0.36363636       0.009
   0.18181818  0.09090909  0.36363636       0.018
   0.27272727  0.09090909  0.36363636       0.018
   0.36363636  0.09090909  0.36363636       0.018
   0.45454545  0.09090909  0.36363636       0.009
   0.18181818  0.18181818  0.36363636       0.009
   0.27272727  0.18181818  0.36363636       0.018
   0.36363636  0.18181818  0.36363636       0.018
   0.27272727  0.27272727  0.36363636       0.009
   0.36363636  0.27272727  0.36363636       0.009
   0.00000000  0.00000000  0.45454545       0.002
   0.09090909 -0.00000000  0.45454545       0.009
   0.18181818 -0.00000000  0.45454545       0.009
   0.27272727 -0.00000000  0.45454545       0.009
   0.36363636 -0.00000000  0.45454545       0.009
   0.45454545 -0.00000000  0.45454545       0.009
   0.09090909  0.09090909  0.45454545       0.009
   0.18181818  0.09090909  0.45454545       0.018
   0.27272727  0.09090909  0.45454545       0.018
   0.36363636  0.09090909  0.45454545       0.018
   0.45454545  0.09090909  0.45454545       0.009
   0.18181818  0.18181818  0.45454545       0.009
   0.27272727  0.18181818  0.45454545       0.018
   0.36363636  0.18181818  0.45454545       0.018
   0.27272727  0.27272727  0.45454545       0.009
   0.36363636  0.27272727  0.45454545       0.009
 
 position of ions in fractional coordinates (direct lattice) 
   0.00000000  0.00000000  0.00000000
   0.33333333  0.66666667  0.50000000
 
 position of ions in cartesian coordinates  (Angst):
   0.00000000  0.00000000  0.00000000
   0.00000000  1.35867839  2.00838500
 


--------------------------------------------------------------------------------------------------------


 k-point   1 :   0.0000 0.0000 0.0000  plane waves:     209
 k-point   2 :   0.0909-0.0000 0.0000  plane waves:     217
 k-point   3 :   0.1818-0.0000 0.0000  plane waves:     205
 k-point   4 :   0.2727-0.0000 0.0000  plane waves:     204
 k-point   5 :   0.3636-0.0000 0.0000  plane waves:     202
 k-point   6 :   0.4545-0.0000 0.0000  plane waves:     208
 k-point   7 :   0.0909 0.0909 0.0000  plane waves:     207
 k-point   8 :   0.1818 0.0909 0.0000  plane waves:     205
 k-point   9 :   0.2727 0.0909 0.0000  plane waves:     205
 k-point  10 :   0.3636 0.0909 0.0000  plane waves:     206
 k-point  11 :   0.4545 0.0909 0.0000  plane waves:     210
 k-point  12 :   0.1818 0.1818 0.0000  plane waves:     205
 k-point  13 :   0.2727 0.1818 0.0000  plane waves:     202
 k-point  14 :   0.3636 0.1818 0.0000  plane waves:     204
 k-point  15 :   0.2727 0.2727 0.0000  plane waves:     203
 k-point  16 :   0.3636 0.2727 0.0000  plane waves:     207
 k-point  17 :   0.0000 0.0000 0.0909  plane waves:     209
 k-point  18 :   0.0909-0.0000 0.0909  plane waves:     211
 k-point  19 :   0.1818-0.0000 0.0909  plane waves:     204
 k-point  20 :   0.2727-0.0000 0.0909  plane waves:     203
 k-point  21 :   0.3636-0.0000 0.0909  plane waves:     206
 k-point  22 :   0.4545-0.0000 0.0909  plane waves:     208
 k-point  23 :   0.0909 0.0909 0.0909  plane waves:     208
 k-point  24 :   0.1818 0.0909 0.0909  plane waves:     205
 k-point  25 :   0.2727 0.0909 0.0909  plane waves:     203
 k-point  26 :   0.3636 0.0909 0.0909  plane waves:     208
 k-point  27 :   0.4545 0.0909 0.0909  plane waves:     210
 k-point  28 :   0.1818 0.1818 0.0909  plane waves:     205
 k-point  29 :   0.2727 0.1818 0.0909  plane waves:     203
 k-point  30 :   0.3636 0.1818 0.0909  plane waves:     206
 k-point  31 :   0.2727 0.2727 0.0909  plane waves:     203
 k-point  32 :   0.3636 0.2727 0.0909  plane waves:     208
 k-point  33 :   0.0000 0.0000 0.1818  plane waves:     203
 k-point  34 :   0.0909-0.0000 0.1818  plane waves:     206
 k-point  35 :   0.1818-0.0000 0.1818  plane waves:     203
 k-point  36 :   0.2727-0.0000 0.1818  plane waves:     207
 k-point  37 :   0.3636-0.0000 0.1818  plane waves:     207
 k-point  38 :   0.4545-0.0000 0.1818  plane waves:     208
 k-point  39 :   0.0909 0.0909 0.1818  plane waves:     204
 k-point  40 :   0.1818 0.0909 0.1818  plane waves:     205
 k-point  41 :   0.2727 0.0909 0.1818  plane waves:     206
 k-point  42 :   0.3636 0.0909 0.1818  plane waves:     206
 k-point  43 :   0.4545 0.0909 0.1818  plane waves:     211
 k-point  44 :   0.1818 0.1818 0.1818  plane waves:     203
 k-point  45 :   0.2727 0.1818 0.1818  plane waves:     206
 k-point  46 :   0.3636 0.1818 0.1818  plane waves:     208
 k-point  47 :   0.2727 0.2727 0.1818  plane waves:     206
 k-point  48 :   0.3636 0.2727 0.1818  plane waves:     205
 k-point  49 :   0.0000 0.0000 0.2727  plane waves:     209
 k-point  50 :   0.0909-0.0000 0.2727  plane waves:     206
 k-point  51 :   0.1818-0.0000 0.2727  plane waves:     200
 k-point  52 :   0.2727-0.0000 0.2727  plane waves:     203
 k-point  53 :   0.3636-0.0000 0.2727  plane waves:     205
 k-point  54 :   0.4545-0.0000 0.2727  plane waves:     203
 k-point  55 :   0.0909 0.0909 0.2727  plane waves:     204
 k-point  56 :   0.1818 0.0909 0.2727  plane waves:     201
 k-point  57 :   0.2727 0.0909 0.2727  plane waves:     203
 k-point  58 :   0.3636 0.0909 0.2727  plane waves:     206
 k-point  59 :   0.4545 0.0909 0.2727  plane waves:     208
 k-point  60 :   0.1818 0.1818 0.2727  plane waves:     205
 k-point  61 :   0.2727 0.1818 0.2727  plane waves:     208
 k-point  62 :   0.3636 0.1818 0.2727  plane waves:     209
 k-point  63 :   0.2727 0.2727 0.2727  plane waves:     206
 k-point  64 :   0.3636 0.2727 0.2727  plane waves:     207
 k-point  65 :   0.0000 0.0000 0.3636  plane waves:     215
 k-point  66 :   0.0909-0.0000 0.3636  plane waves:     206
 k-point  67 :   0.1818-0.0000 0.3636  plane waves:     198
 k-point  68 :   0.2727-0.0000 0.3636  plane waves:     201
 k-point  69 :   0.3636-0.0000 0.3636  plane waves:     206
 k-point  70 :   0.4545-0.0000 0.3636  plane waves:     202
 k-point  71 :   0.0909 0.0909 0.3636  plane waves:     202
 k-point  72 :   0.1818 0.0909 0.3636  plane waves:     202
 k-point  73 :   0.2727 0.0909 0.3636  plane waves:     202
 k-point  74 :   0.3636 0.0909 0.3636  plane waves:     206
 k-point  75 :   0.4545 0.0909 0.3636  plane waves:     203
 k-point  76 :   0.1818 0.1818 0.3636  plane waves:     203
 k-point  77 :   0.2727 0.1818 0.3636  plane waves:     207
 k-point  78 :   0.3636 0.1818 0.3636  plane waves:     209
 k-point  79 :   0.2727 0.2727 0.3636  plane waves:     209
 k-point  80 :   0.3636 0.2727 0.3636  plane waves:     204
 k-point  81 :   0.0000 0.0000 0.4545  plane waves:     215
 k-point  82 :   0.0909-0.0000 0.4545  plane waves:     207
 k-point  83 :   0.1818-0.0000 0.4545  plane waves:     197
 k-point  84 :   0.2727-0.0000 0.4545  plane waves:     204
 k-point  85 :   0.3636-0.0000 0.4545  plane waves:     204
 k-point  86 :   0.4545-0.0000 0.4545  plane waves:     202
 k-point  87 :   0.0909 0.0909 0.4545  plane waves:     198
 k-point  88 :   0.1818 0.0909 0.4545  plane waves:     198
 k-point  89 :   0.2727 0.0909 0.4545  plane waves:     201
 k-point  90 :   0.3636 0.0909 0.4545  plane waves:     204
 k-point  91 :   0.4545 0.0909 0.4545  plane waves:     201
 k-point  92 :   0.1818 0.1818 0.4545  plane waves:     206
 k-point  93 :   0.2727 0.1818 0.4545  plane waves:     206
 k-point  94 :   0.3636 0.1818 0.4545  plane waves:     208
 k-point  95 :   0.2727 0.2727 0.4545  plane waves:     208
 k-point  96 :   0.3636 0.2727 0.4545  plane waves:     210

 maximum number of plane-waves:       217
 maximum index in each direction: 
   IXMAX=    3   IYMAX=    3   IZMAX=    5
   IXMIN=   -3   IYMIN=   -3   IZMIN=   -5


 total amount of memory used by VASP MPI-rank0    49302. kBytes
=======================================================================

   base      :      30000. kBytes
   nonl-proj :       3006. kBytes
   grid      :        721. kBytes
   one-center:         31. kBytes
   wavefun   :      15544. kBytes
 
     INWAV:  cpu time    0.0000: real time    0.0000
 Broyden mixing: mesh for mixing (old mesh)
   NGX =  7   NGY =  7   NGZ = 11
  (NGX  = 20   NGY  = 20   NGZ  = 32)
  gives a total of    539 points

 initial charge density was supplied:
 charge density of overlapping atoms calculated
 number of electron      16.0000000 magnetization 
 keeping initial charge density in first step


--------------------------------------------------------------------------------------------------------


 Maximum index for augmentation-charges         2868 (set IRDMAX)


--------------------------------------------------------------------------------------------------------


 First call to EWALD:  gamma=   0.661
 Maximum number of real-space cells 3x 3x 2
 Maximum number of reciprocal cells 2x 2x 4

    FEWALD:  cpu time    0.0008: real time    0.0008


--------------------------------------- Iteration      1(   1)  ---------------------------------------


    POTLOK:  cpu time    0.0030: real time    0.0030
    SETDIJ:  cpu time    0.0022: real time    0.0022
     EDDAV:  cpu time    0.7725: real time    0.7913
       DOS:  cpu time    0.0057: real time    0.0057
    --------------------------------------------
      LOOP:  cpu time    0.7835: real time    0.8022

 eigenvalue-minimisations  :  9344
 total energy-change (2. order) : 0.6079727E+02  (-0.2595728E+03)
 number of electron      16.0000000 magnetization 
 augmentation part       16.0000000 magnetization 

 Free energy of the ion-electron system (eV)
  ---------------------------------------------------
  alpha Z        PSCENC =       143.50347781
  Ewald energy   TEWEN  =     -1250.63582166
  -Hartree energ DENC   =      -198.72319579
  -exchange      EXHF   =         0.00000000
  -V(xc)+E(xc)   XCENC  =         8.85217552
  PAW double counting   =      1109.69170683    -1125.09647265
  entropy T*S    EENTRO =        -0.00218727
  eigenvalues    EBANDS =       184.63267528
  atomic energy  EATOM  =      1188.57490811
  Solvation  Ediel_sol  =         0.00000000
  ---------------------------------------------------
  free energy    TOTEN  =        60.79726618 eV

  energy without entropy =       60.79945345  energy(sigma->0) =       60.79799527


--------------------------------------------------------------------------------------------------------




--------------------------------------- Iteration      1(   2)  ---------------------------------------


     EDDAV:  cpu time    0.6384: real time    0.6384
       DOS:  cpu time    0.0062: real time    0.0062
    --------------------------------------------
      LOOP:  cpu time    0.6445: real time    0.6445

 eigenvalue-minimisations  :  7936
 total energy-change (2. order) :-0.7553839E+02  (-0.6401770E+02)
 number of electron      16.0000000 magnetization 
 augmentation part       16.0000000 magnetization 

 Free energy of the ion-electron system (eV)
  ---------------------------------------------------
  alpha Z        PSCENC =       143.50347781
  Ewald energy   TEWEN  =     -1250.63582166
  -Hartree energ DENC   =      -198.72319579
  -exchange      EXHF   =         0.00000000
  -V(xc)+E(xc)   XCENC  =         8.85217552
  PAW double counting   =      1109.69170683    -1125.09647265
  entropy T*S    EENTRO =         0.00204979
  eigenvalues    EBANDS =       109.09005264
  atomic energy  EATOM  =      1188.57490811
  Solvation  Ediel_sol  =         0.00000000
  ---------------------------------------------------
  free energy    TOTEN  =       -14.74111940 eV

  energy without entropy =      -14.74316919  energy(sigma->0) =      -14.74180266


--------------------------------------------------------------------------------------------------------




--------------------------------------- Iteration      1(   3)  ---------------------------------------


     EDDAV:  cpu time    0.7390: real time    0.7390
       DOS:  cpu time    0.0064: real time    0.0064
    --------------------------------------------
      LOOP:  cpu time    0.7454: real time    0.7455

 eigenvalue-minimisations  :  9544
 total energy-change (2. order) :-0.4406016E+01  (-0.4213072E+01)
 number of electron      16.0000000 magnetization 
 augmentation part       16.0000000 magnetization 

 Free energy of the ion-electron system (eV)
  ---------------------------------------------------
  alpha Z        PSCENC =       143.50347781
  Ewald energy   TEWEN  =     -1250.63582166
  -Hartree energ DENC   =      -198.72319579
  -exchange      EXHF   =         0.00000000
  -V(xc)+E(xc)   XCENC  =         8.85217552
  PAW double counting   =      1109.69170683    -1125.09647265
  entropy T*S    EENTRO =        -0.00075887
  eigenvalues    EBANDS =       104.68684565
  atomic energy  EATOM  =      1188.57490811
  Solvation  Ediel_sol  =         0.00000000
  ---------------------------------------------------
  free energy    TOTEN  =       -19.14713506 eV

  energy without entropy =      -19.14637619  energy(sigma->0) =      -19.14688210


--------------------------------------------------------------------------------------------------------




--------------------------------------- Iteration      1(   4)  ---------------------------------------


     EDDAV:  cpu time    0.6978: real time    0.6978
       DOS:  cpu time    0.0063: real time    0.0063
    --------------------------------------------
      LOOP:  cpu time    0.7040: real time    0.7040

 eigenvalue-minimisations  :  9016
 total energy-change (2. order) :-0.1796379E-01  (-0.1795512E-01)
 number of electron      16.0000000 magnetization 
 augmentation part       16.0000000 magnetization 

 Free energy of the ion-electron system (eV)
  ---------------------------------------------------
  alpha Z        PSCENC =       143.50347781
  Ewald energy   TEWEN  =     -1250.63582166
  -Hartree energ DENC   =      -198.72319579
  -exchange      EXHF   =         0.00000000
  -V(xc)+E(xc)   XCENC  =         8.85217552
  PAW double counting   =      1109.69170683    -1125.09647265
  entropy T*S    EENTRO =        -0.00077368
  eigenvalues    EBANDS =       104.66889667
  atomic energy  EATOM  =      1188.57490811
  Solvation  Ediel_sol  =         0.00000000
  ---------------------------------------------------
  free energy    TOTEN  =       -19.16509884 eV

  energy without entropy =      -19.16432516  energy(sigma->0) =      -19.16484095


--------------------------------------------------------------------------------------------------------




--------------------------------------- Iteration      1(   5)  ---------------------------------------


     EDDAV:  cpu time    0.7072: real time    0.7072
       DOS:  cpu time    0.0063: real time    0.0063
    CHARGE:  cpu time    0.0178: real time    0.0178
    MIXING:  cpu time    0.0001: real time    0.0001
    --------------------------------------------
      LOOP:  cpu time    0.7314: real time    0.7314

 eigenvalue-minimisations  :  9232
 total energy-change (2. order) :-0.1601412E-04  (-0.1601516E-04)
 number of electron      16.0000008 magnetization 
 augmentation part        7.1107744 magnetization 

 Broyden mixing:
  rms(total) = 0.17988E+01    rms(broyden)= 0.17988E+01
  rms(prec ) = 0.29884E+01
  weight for this iteration     100.00

 Free energy of the ion-electron system (eV)
  ---------------------------------------------------
  alpha Z        PSCENC =       143.50347781
  Ewald energy   TEWEN  =     -1250.63582166
  -Hartree energ DENC   =      -198.72319579
  -exchange      EXHF   =         0.00000000
  -V(xc)+E(xc)   XCENC  =         8.85217552
  PAW double counting   =      1109.69170683    -1125.09647265
  entropy T*S    EENTRO =        -0.00077370
  eigenvalues    EBANDS =       104.66888067
  atomic energy  EATOM  =      1188.57490811
  Solvation  Ediel_sol  =         0.00000000
  ---------------------------------------------------
  free energy    TOTEN  =       -19.16511486 eV

  energy without entropy =      -19.16434116  energy(sigma->0) =      -19.16485696


--------------------------------------------------------------------------------------------------------




--------------------------------------- Iteration      1(   6)  ---------------------------------------


    POTLOK:  cpu time    0.0029: real time    0.0029
    SETDIJ:  cpu time    0.0021: real time    0.0021
     EDDAV:  cpu time    0.8530: real time    0.8531
       DOS:  cpu time    0.0068: real time    0.0068
    CHARGE:  cpu time    0.0179: real time    0.0179
    MIXING:  cpu time    0.0002: real time    0.0002
    --------------------------------------------
      LOOP:  cpu time    0.8829: real time    0.8829

 eigenvalue-minimisations  : 11168
 total energy-change (2. order) : 0.2828919E+01  (-0.1583924E+00)
 number of electron      16.0000014 magnetization 
 augmentation part        8.4100884 magnetization 

 Broyden mixing:
  rms(total) = 0.17884E+00    rms(broyden)= 0.17875E+00
  rms(prec ) = 0.30238E+00
  weight for this iteration     100.00

 eigenvalues of (default mixing * dielectric matrix)
  average eigenvalue GAMMA=   0.9611
  0.9611

 Free energy of the ion-electron system (eV)
  ---------------------------------------------------
  alpha Z        PSCENC =       143.50347781
  Ewald energy   TEWEN  =     -1250.63582166
  -Hartree energ DENC   =      -165.74894893
  -exchange      EXHF   =         0.00000000
  -V(xc)+E(xc)   XCENC  =         7.23564706
  PAW double counting   =      1287.75909726    -1299.18775871
  entropy T*S    EENTRO =         0.00079225
  eigenvalues    EBANDS =        72.16241118
  atomic energy  EATOM  =      1188.57490811
  Solvation  Ediel_sol  =         0.00000000
  ---------------------------------------------------
  free energy    TOTEN  =       -16.33619564 eV

  energy without entropy =      -16.33698788  energy(sigma->0) =      -16.33645972


--------------------------------------------------------------------------------------------------------




--------------------------------------- Iteration      1(   7)  ---------------------------------------


    POTLOK:  cpu time    0.0030: real time    0.0030
    SETDIJ:  cpu time    0.0021: real time    0.0021
     EDDAV:  cpu time    0.7590: real time    0.7591
       DOS:  cpu time    0.0066: real time    0.0066
    CHARGE:  cpu time    0.0171: real time    0.0171
    MIXING:  cpu time    0.0002: real time    0.0002
    --------------------------------------------
      LOOP:  cpu time    0.7880: real time    0.7880

 eigenvalue-minimisations  :  9976
 total energy-change (2. order) : 0.1536873E+00  (-0.9145923E-02)
 number of electron      16.0000013 magnetization 
 augmentation part        8.1743072 magnetization 

 Broyden mixing:
  rms(total) = 0.11487E+00    rms(broyden)= 0.11487E+00
  rms(prec ) = 0.20379E+00
  weight for this iteration     100.00

 eigenvalues of (default mixing * dielectric matrix)
  average eigenvalue GAMMA=   1.0204
  1.2707  0.7701

 Free energy of the ion-electron system (eV)
  ---------------------------------------------------
  alpha Z        PSCENC =       143.50347781
  Ewald energy   TEWEN  =     -1250.63582166
  -Hartree energ DENC   =      -168.62200232
  -exchange      EXHF   =         0.00000000
  -V(xc)+E(xc)   XCENC  =         7.40573390
  PAW double counting   =      1376.41301679    -1391.30506322
  entropy T*S    EENTRO =         0.00070846
  eigenvalues    EBANDS =        78.48253379
  atomic energy  EATOM  =      1188.57490811
  Solvation  Ediel_sol  =         0.00000000
  ---------------------------------------------------
  free energy    TOTEN  =       -16.18250834 eV

  energy without entropy =      -16.18321680  energy(sigma->0) =      -16.18274449


--------------------------------------------------------------------------------------------------------




--------------------------------------- Iteration      1(   8)  ---------------------------------------


    POTLOK:  cpu time    0.0029: real time    0.0029
    SETDIJ:  cpu time    0.0021: real time    0.0021
     EDDAV:  cpu time    0.7620: real time    0.7620
       DOS:  cpu time    0.0068: real time    0.0068
    CHARGE:  cpu time    0.0173: real time    0.0173
    MIXING:  cpu time    0.0002: real time    0.0002
    --------------------------------------------
      LOOP:  cpu time    0.7913: real time    0.7913

 eigenvalue-minimisations  :  9936
 total energy-change (2. order) : 0.2925525E-01  (-0.2631754E-03)
 number of electron      16.0000013 magnetization 
 augmentation part        8.1994153 magnetization 

 Broyden mixing:
  rms(total) = 0.52782E-01    rms(broyden)= 0.52781E-01
  rms(prec ) = 0.91382E-01
  weight for this iteration     100.00

 eigenvalues of (default mixing * dielectric matrix)
  average eigenvalue GAMMA=   1.4899
  1.0439  0.8185  2.6072

 Free energy of the ion-electron system (eV)
  ---------------------------------------------------
  alpha Z        PSCENC =       143.50347781
  Ewald energy   TEWEN  =     -1250.63582166
  -Hartree energ DENC   =      -166.53517822
  -exchange      EXHF   =         0.00000000
  -V(xc)+E(xc)   XCENC  =         7.32265708
  PAW double counting   =      1450.24110267    -1466.62182672
  entropy T*S    EENTRO =         0.00072822
  eigenvalues    EBANDS =        77.99669963
  atomic energy  EATOM  =      1188.57490811
  Solvation  Ediel_sol  =         0.00000000
  ---------------------------------------------------
  free energy    TOTEN  =       -16.15325308 eV

  energy without entropy =      -16.15398130  energy(sigma->0) =      -16.15349582


--------------------------------------------------------------------------------------------------------




--------------------------------------- Iteration      1(   9)  ---------------------------------------


    POTLOK:  cpu time    0.0030: real time    0.0030
    SETDIJ:  cpu time    0.0021: real time    0.0021
     EDDAV:  cpu time    0.8121: real time    0.8121
       DOS:  cpu time    0.0065: real time    0.0065
    CHARGE:  cpu time    0.0174: real time    0.0174
    MIXING:  cpu time    0.0002: real time    0.0002
    --------------------------------------------
      LOOP:  cpu time    0.8412: real time    0.8413

 eigenvalue-minimisations  : 10776
 total energy-change (2. order) : 0.1045644E-01  (-0.9407793E-04)
 number of electron      16.0000013 magnetization 
 augmentation part        8.2129190 magnetization 

 Broyden mixing:
  rms(total) = 0.59539E-02    rms(broyden)= 0.59530E-02
  rms(prec ) = 0.73154E-02
  weight for this iteration     100.00

 eigenvalues of (default mixing * dielectric matrix)
  average eigenvalue GAMMA=   1.6017
  0.8197  0.9990  2.6132  1.9750

 Free energy of the ion-electron system (eV)
  ---------------------------------------------------
  alpha Z        PSCENC =       143.50347781
  Ewald energy   TEWEN  =     -1250.63582166
  -Hartree energ DENC   =      -164.53621978
  -exchange      EXHF   =         0.00000000
  -V(xc)+E(xc)   XCENC  =         7.24809605
  PAW double counting   =      1539.49137565    -1557.61716909
  entropy T*S    EENTRO =         0.00072721
  eigenvalues    EBANDS =        77.82782906
  atomic energy  EATOM  =      1188.57490811
  Solvation  Ediel_sol  =         0.00000000
  ---------------------------------------------------
  free energy    TOTEN  =       -16.14279664 eV

  energy without entropy =      -16.14352385  energy(sigma->0) =      -16.14303904


--------------------------------------------------------------------------------------------------------




--------------------------------------- Iteration      1(  10)  ---------------------------------------


    POTLOK:  cpu time    0.0029: real time    0.0029
    SETDIJ:  cpu time    0.0022: real time    0.0022
     EDDAV:  cpu time    0.6730: real time    0.6730
       DOS:  cpu time    0.0064: real time    0.0064
    CHARGE:  cpu time    0.0175: real time    0.0175
    MIXING:  cpu time    0.0002: real time    0.0002
    --------------------------------------------
      LOOP:  cpu time    0.7021: real time    0.7021

 eigenvalue-minimisations  :  8688
 total energy-change (2. order) :-0.1449834E-04  (-0.3141991E-05)
 number of electron      16.0000013 magnetization 
 augmentation part        8.2128537 magnetization 

 Broyden mixing:
  rms(total) = 0.21112E-02    rms(broyden)= 0.21107E-02
  rms(prec ) = 0.29805E-02
  weight for this iteration     100.00

 eigenvalues of (default mixing * dielectric matrix)
  average eigenvalue GAMMA=   1.6297
  2.5842  2.5163  0.8193  1.0023  1.2265

 Free energy of the ion-electron system (eV)
  ---------------------------------------------------
  alpha Z        PSCENC =       143.50347781
  Ewald energy   TEWEN  =     -1250.63582166
  -Hartree energ DENC   =      -164.60423298
  -exchange      EXHF   =         0.00000000
  -V(xc)+E(xc)   XCENC  =         7.25190786
  PAW double counting   =      1540.67868475    -1558.73202625
  entropy T*S    EENTRO =         0.00072296
  eigenvalues    EBANDS =        77.81956827
  atomic energy  EATOM  =      1188.57490811
  Solvation  Ediel_sol  =         0.00000000
  ---------------------------------------------------
  free energy    TOTEN  =       -16.14281114 eV

  energy without entropy =      -16.14353410  energy(sigma->0) =      -16.14305212


--------------------------------------------------------------------------------------------------------




--------------------------------------- Iteration      1(  11)  ---------------------------------------


    POTLOK:  cpu time    0.0029: real time    0.0029
    SETDIJ:  cpu time    0.0021: real time    0.0021
     EDDAV:  cpu time    0.6513: real time    0.6513
       DOS:  cpu time    0.0065: real time    0.0065
    CHARGE:  cpu time    0.0172: real time    0.0172
    MIXING:  cpu time    0.0002: real time    0.0002
    --------------------------------------------
      LOOP:  cpu time    0.6801: real time    0.6801

 eigenvalue-minimisations  :  8152
 total energy-change (2. order) : 0.9641903E-05  (-0.1602248E-07)
 number of electron      16.0000013 magnetization 
 augmentation part        8.2125557 magnetization 

 Broyden mixing:
  rms(total) = 0.15582E-03    rms(broyden)= 0.15571E-03
  rms(prec ) = 0.20523E-03
  weight for this iteration     100.00

 eigenvalues of (default mixing * dielectric matrix)
  average eigenvalue GAMMA=   1.5638
  2.5758  2.5758  0.8191  1.0062  1.0062  1.3999

 Free energy of the ion-electron system (eV)
  ---------------------------------------------------
  alpha Z        PSCENC =       143.50347781
  Ewald energy   TEWEN  =     -1250.63582166
  -Hartree energ DENC   =      -164.66151041
  -exchange      EXHF   =         0.00000000
  -V(xc)+E(xc)   XCENC  =         7.25463295
  PAW double counting   =      1540.30697459    -1558.30672133
  entropy T*S    EENTRO =         0.00072294
  eigenvalues    EBANDS =        77.82053551
  atomic energy  EATOM  =      1188.57490811
  Solvation  Ediel_sol  =         0.00000000
  ---------------------------------------------------
  free energy    TOTEN  =       -16.14280149 eV

  energy without entropy =      -16.14352443  energy(sigma->0) =      -16.14304247


--------------------------------------------------------------------------------------------------------




--------------------------------------- Iteration      1(  12)  ---------------------------------------


    POTLOK:  cpu time    0.0030: real time    0.0030
    SETDIJ:  cpu time    0.0021: real time    0.0021
     EDDAV:  cpu time    0.5251: real time    0.5251
       DOS:  cpu time    0.0059: real time    0.0059
    --------------------------------------------
      LOOP:  cpu time    0.5361: real time    0.5361

 eigenvalue-minimisations  :  5848
 total energy-change (2. order) : 0.5535624E-06  (-0.6662194E-08)
 number of electron      16.0000013 magnetization 
 augmentation part        8.2125557 magnetization 

 Free energy of the ion-electron system (eV)
  ---------------------------------------------------
  alpha Z        PSCENC =       143.50347781
  Ewald energy   TEWEN  =     -1250.63582166
  -Hartree energ DENC   =      -164.66548789
  -exchange      EXHF   =         0.00000000
  -V(xc)+E(xc)   XCENC  =         7.25481655
  PAW double counting   =      1540.35397577    -1558.34959107
  entropy T*S    EENTRO =         0.00072324
  eigenvalues    EBANDS =        77.82019820
  atomic energy  EATOM  =      1188.57490811
  Solvation  Ediel_sol  =         0.00000000
  ---------------------------------------------------
  free energy    TOTEN  =       -16.14280094 eV

  energy without entropy =      -16.14352418  energy(sigma->0) =      -16.14304202


--------------------------------------------------------------------------------------------------------




 average (electrostatic) potential at core
  the test charge radii are     1.0103
  (the norm of the test charge is              1.0000)
       1 -42.0477       2 -42.0476
 
 
 
 E-fermi :   7.5263     XC(G=0): -14.1257     alpha+bet :-16.0921

 Fermi energy:         7.5263003127

 k-point     1 :       0.0000    0.0000    0.0000
  band No.  band energies     occupation 
      1      -1.6775      2.00000
      2       2.2571      2.00000
      3       5.3787      2.00000
      4       5.8249      2.00000
      5       5.8250      2.00000
      6       6.2053      2.00000
      7       6.2055      2.00000
      8       7.0415      2.00323
      9       7.0415      2.00323
     10       7.1554      2.02484
     11       8.3406     -0.00000
     12       8.3406     -0.00000
     13      15.8137      0.00000
     14      31.0022      0.00000
     15      32.5788      0.00000
     16      34.3331      0.00000
     17      36.5490      0.00000
     18      36.5490      0.00000
     19      37.3713      0.00000
     20      37.3714      0.00000
     21      39.8561      0.00000
     22      40.3618      0.00000
     23      40.3618      0.00000
     24      41.4719      0.00000
     25      44.3718      0.00000
     26      44.3718      0.00000
     27      45.7948      0.00000
     28      48.2545      0.00000
     29      48.2548      0.00000
     30      50.2007      0.00000
     31      50.2009      0.00000
     32      53.2712      0.00000
     33      61.4079      0.00000
     34      63.1824      0.00000
     35      63.1834      0.00000
     36      63.1912      0.00000
     37      64.5473      0.00000
     38      65.9402      0.00000
     39      65.9415      0.00000
     40      68.0291      0.00000

 k-point     2 :       0.0909   -0.0000    0.0000
  band No.  band energies     occupation 
      1      -1.3398      2.00000
      2       2.5008      2.00000
      3       5.2952      2.00000
      4       5.8460      2.00000
      5       6.0237      2.00000
      6       6.0953      2.00000
      7       6.1023      2.00000
      8       6.3882      2.00000
      9       6.9184      2.00015
     10       6.9238      2.00017
     11       8.3831     -0.00000
     12       9.6424     -0.00000
     13      15.8303      0.00000
     14      29.8175      0.00000
     15      32.5813      0.00000
     16      32.8483      0.00000
     17      33.7111      0.00000
     18      36.1614      0.00000
     19      36.3738      0.00000
     20      39.5995      0.00000
     21      39.8673      0.00000
     22      40.2967      0.00000
     23      41.0904      0.00000
     24      41.3661      0.00000
     25      45.4654      0.00000
     26      45.6734      0.00000
     27      45.7843      0.00000
     28      45.9327      0.00000
     29      49.6851      0.00000
     30      51.6932      0.00000
     31      52.5532      0.00000
     32      54.9875      0.00000
     33      60.3587      0.00000
     34      62.1686      0.00000
     35      62.6618      0.00000
     36      62.9760      0.00000
     37      63.0057      0.00000
     38      66.5869      0.00000
     39      67.9581      0.00000
     40      67.9584      0.00000

 k-point     3 :       0.1818   -0.0000    0.0000
  band No.  band energies     occupation 
      1      -0.3858      2.00000
      2       3.0720      2.00000
      3       4.8982      2.00000
      4       4.9753      2.00000
      5       5.6950      2.00000
      6       6.3155      2.00000
      7       6.5865      2.00000
      8       6.6008      2.00000
      9       6.6284      2.00000
     10       6.8990      2.00009
     11       8.4619     -0.00000
     12      11.6076     -0.00000
     13      15.9152      0.00000
     14      26.1556      0.00000
     15      30.8402      0.00000
     16      31.3585      0.00000
     17      32.0200      0.00000
     18      33.5256      0.00000
     19      37.0217      0.00000
     20      38.7011      0.00000
     21      39.0953      0.00000
     22      39.2841      0.00000
     23      41.6841      0.00000
     24      43.1447      0.00000
     25      45.2711      0.00000
     26      46.3177      0.00000
     27      48.0315      0.00000
     28      50.3887      0.00000
     29      52.7091      0.00000
     30      54.9635      0.00000
     31      55.4786      0.00000
     32      58.3088      0.00000
     33      58.7337      0.00000
     34      60.0022      0.00000
     35      60.5555      0.00000
     36      61.9764      0.00000
     37      63.7733      0.00000
     38      67.5071      0.00000
     39      67.8067      0.00000
     40      69.4654      0.00000

 k-point     4 :       0.2727   -0.0000    0.0000
  band No.  band energies     occupation 
      1       0.9635      2.00000
      2       3.3506      2.00000
      3       3.9663      2.00000
      4       4.8631      2.00000
      5       5.5360      2.00000
      6       6.1950      2.00000
      7       6.2984      2.00000
      8       7.0952      2.00937
      9       7.3818      1.93502
     10       7.6110      0.34958
     11       8.5175     -0.00000
     12      13.7860      0.00000
     13      16.0868      0.00000
     14      22.1824      0.00000
     15      28.3530      0.00000
     16      28.4177      0.00000
     17      29.8747      0.00000
     18      33.0455      0.00000
     19      35.3241      0.00000
     20      38.4864      0.00000
     21      39.3840      0.00000
     22      39.3865      0.00000
     23      39.4949      0.00000
     24      43.6435      0.00000
     25      48.7309      0.00000
     26      50.5568      0.00000
     27      51.5041      0.00000
     28      53.3651      0.00000
     29      54.7645      0.00000
     30      55.6860      0.00000
     31      57.1652      0.00000
     32      58.6007      0.00000
     33      59.8729      0.00000
     34      60.7546      0.00000
     35      60.9770      0.00000
     36      62.5626      0.00000
     37      64.1050      0.00000
     38      67.6530      0.00000
     39      68.0142      0.00000
     40      68.8050      0.00000

 k-point     5 :       0.3636   -0.0000    0.0000
  band No.  band energies     occupation 
      1       2.1696      2.00000
      2       3.0889      2.00000
      3       3.3396      2.00000
      4       5.0910      2.00000
      5       5.8341      2.00000
      6       5.8699      2.00000
      7       6.0272      2.00000
      8       8.1826     -0.00004
      9       8.3341     -0.00000
     10       8.3440     -0.00000
     11       8.5422     -0.00000
     12      15.7431      0.00000
     13      16.0919      0.00000
     14      19.4768      0.00000
     15      25.1711      0.00000
     16      26.4506      0.00000
     17      27.2493      0.00000
     18      32.0303      0.00000
     19      34.1084      0.00000
     20      37.3427      0.00000
     21      38.1198      0.00000
     22      40.3628      0.00000
     23      41.6384      0.00000
     24      44.1453      0.00000
     25      52.0415      0.00000
     26      52.4244      0.00000
     27      52.5229      0.00000
     28      55.6729      0.00000
     29      56.1225      0.00000
     30      56.9615      0.00000
     31      59.2781      0.00000
     32      59.8785      0.00000
     33      60.2230      0.00000
     34      60.9636      0.00000
     35      62.6001      0.00000
     36      64.3188      0.00000
     37      67.0532      0.00000
     38      67.5785      0.00000
     39      67.7782      0.00000
     40      68.0546      0.00000

 k-point     6 :       0.4545   -0.0000    0.0000
  band No.  band energies     occupation 
      1       2.6357      2.00000
      2       2.8710      2.00000
      3       3.0257      2.00000
      4       5.6164      2.00000
      5       5.6245      2.00000
      6       5.8754      2.00000
      7       6.1256      2.00000
      8       8.5486     -0.00000
      9       8.6742     -0.00000
     10       8.8255     -0.00000
     11      10.0494     -0.00000
     12      13.6047      0.00000
     13      18.2545      0.00000
     14      19.6399      0.00000
     15      22.5535      0.00000
     16      24.6537      0.00000
     17      25.3824      0.00000
     18      31.3680      0.00000
     19      33.7287      0.00000
     20      36.2002      0.00000
     21      37.9211      0.00000
     22      41.1190      0.00000
     23      43.7911      0.00000
     24      44.4629      0.00000
     25      48.6787      0.00000
     26      53.3748      0.00000
     27      54.4380      0.00000
     28      57.8339      0.00000
     29      58.8439      0.00000
     30      59.0200      0.00000
     31      60.2408      0.00000
     32      61.2580      0.00000
     33      61.3056      0.00000
     34      63.4528      0.00000
     35      63.5316      0.00000
     36      64.9937      0.00000
     37      66.3377      0.00000
     38      66.6520      0.00000
     39      67.5202      0.00000
     40      68.0348      0.00000

 k-point     7 :       0.0909    0.0909    0.0000
  band No.  band energies     occupation 
      1      -0.6911      2.00000
      2       2.9265      2.00000
      3       5.0335      2.00000
      4       5.2166      2.00000
      5       5.8818      2.00000
      6       6.0129      2.00000
      7       6.4351      2.00000
      8       6.4979      2.00000
      9       6.7876      2.00000
     10       6.9164      2.00014
     11       8.4141     -0.00000
     12      11.0633     -0.00000
     13      15.8874      0.00000
     14      27.8401      0.00000
     15      29.2382      0.00000
     16      33.0985      0.00000
     17      33.5662      0.00000
     18      34.7665      0.00000
     19      35.2337      0.00000
     20      37.5710      0.00000
     21      39.0681      0.00000
     22      42.3984      0.00000
     23      42.8156      0.00000
     24      43.5758      0.00000
     25      44.4512      0.00000
     26      44.5231      0.00000
     27      44.7171      0.00000
     28      50.7653      0.00000
     29      53.1921      0.00000
     30      53.5940      0.00000
     31      53.6548      0.00000
     32      57.5544      0.00000
     33      59.1794      0.00000
     34      60.8718      0.00000
     35      61.2313      0.00000
     36      62.0300      0.00000
     37      63.0886      0.00000
     38      67.6683      0.00000
     39      67.8345      0.00000
     40      69.5338      0.00000

 k-point     8 :       0.1818    0.0909    0.0000
  band No.  band energies     occupation 
      1       0.4859      2.00000
      2       3.4655      2.00000
      3       4.3060      2.00000
      4       4.6616      2.00000
      5       5.6180      2.00000
      6       6.0736      2.00000
      7       6.4665      2.00000
      8       6.6638      2.00000
      9       7.1671      2.02916
     10       7.5273      0.99130
     11       8.4389     -0.00000
     12      13.0221      0.00000
     13      16.0633      0.00000
     14      24.1961      0.00000
     15      26.8083      0.00000
     16      30.1663      0.00000
     17      32.5048      0.00000
     18      32.7051      0.00000
     19      35.9264      0.00000
     20      37.2247      0.00000
     21      37.6099      0.00000
     22      42.2924      0.00000
     23      42.4278      0.00000
     24      43.0834      0.00000
     25      46.2317      0.00000
     26      47.1904      0.00000
     27      48.9188      0.00000
     28      53.6650      0.00000
     29      55.4307      0.00000
     30      56.3965      0.00000
     31      56.6525      0.00000
     32      58.7320      0.00000
     33      59.3774      0.00000
     34      59.8841      0.00000
     35      60.8206      0.00000
     36      61.0522      0.00000
     37      63.5717      0.00000
     38      67.6326      0.00000
     39      68.0916      0.00000
     40      69.2369      0.00000

 k-point     9 :       0.2727    0.0909    0.0000
  band No.  band energies     occupation 
      1       1.8521      2.00000
      2       3.4157      2.00000
      3       3.6124      2.00000
      4       4.7148      2.00000
      5       5.6889      2.00000
      6       5.7498      2.00000
      7       6.2851      2.00000
      8       7.2331      2.05826
      9       7.9791     -0.00623
     10       8.4519     -0.00000
     11       8.4958     -0.00000
     12      15.2323      0.00000
     13      16.2921      0.00000
     14      20.5763      0.00000
     15      25.0565      0.00000
     16      26.8563      0.00000
     17      29.5309      0.00000
     18      31.2426      0.00000
     19      35.3206      0.00000
     20      36.3759      0.00000
     21      38.4881      0.00000
     22      42.1297      0.00000
     23      42.1437      0.00000
     24      44.5621      0.00000
     25      48.3030      0.00000
     26      51.0107      0.00000
     27      52.9008      0.00000
     28      54.0681      0.00000
     29      54.3415      0.00000
     30      57.4583      0.00000
     31      58.7664      0.00000
     32      59.7241      0.00000
     33      60.4883      0.00000
     34      60.6433      0.00000
     35      62.1429      0.00000
     36      63.7684      0.00000
     37      65.6967      0.00000
     38      67.1061      0.00000
     39      67.5177      0.00000
     40      69.3565      0.00000

 k-point    10 :       0.3636    0.0909    0.0000
  band No.  band energies     occupation 
      1       2.7119      2.00000
      2       3.1096      2.00000
      3       3.1894      2.00000
      4       5.1417      2.00000
      5       5.5897      2.00000
      6       5.9280      2.00000
      7       6.0389      2.00000
      8       8.1391     -0.00013
      9       8.4522     -0.00000
     10       8.5554     -0.00000
     11       9.7464     -0.00000
     12      15.0849      0.00000
     13      17.5396      0.00000
     14      19.3988      0.00000
     15      23.7086      0.00000
     16      23.9022      0.00000
     17      26.3628      0.00000
     18      30.3118      0.00000
     19      34.3423      0.00000
     20      35.8059      0.00000
     21      39.2194      0.00000
     22      42.5514      0.00000
     23      43.6350      0.00000
     24      44.6140      0.00000
     25      50.6093      0.00000
     26      51.1184      0.00000
     27      53.5535      0.00000
     28      54.9707      0.00000
     29      56.6595      0.00000
     30      58.8229      0.00000
     31      58.9717      0.00000
     32      60.5562      0.00000
     33      61.4194      0.00000
     34      63.4764      0.00000
     35      64.1484      0.00000
     36      65.2618      0.00000
     37      65.4267      0.00000
     38      67.4132      0.00000
     39      68.5334      0.00000
     40      68.6793      0.00000

 k-point    11 :       0.4545    0.0909    0.0000
  band No.  band energies     occupation 
      1       2.8421      2.00000
      2       3.0357      2.00000
      3       3.0479      2.00000
      4       5.5004      2.00000
      5       5.5807      2.00000
      6       5.7478      2.00000
      7       6.1731      2.00000
      8       8.4492     -0.00000
      9       8.6459     -0.00000
     10       8.6598     -0.00000
     11      11.0048     -0.00000
     12      13.2616      0.00000
     13      19.0996      0.00000
     14      20.0821      0.00000
     15      22.1266      0.00000
     16      22.9745      0.00000
     17      24.8380      0.00000
     18      29.9827      0.00000
     19      33.9347      0.00000
[...]
     17      27.3468      0.00000
     18      28.7423      0.00000
     19      33.7264      0.00000
     20      34.4004      0.00000
     21      38.0716      0.00000
     22      38.8563      0.00000
     23      43.5933      0.00000
     24      44.7916      0.00000
     25      50.6464      0.00000
     26      52.4318      0.00000
     27      54.1881      0.00000
     28      54.9404      0.00000
     29      58.4049      0.00000
     30      59.7368      0.00000
     31      60.5935      0.00000
     32      61.0806      0.00000
     33      63.5409      0.00000
     34      63.7150      0.00000
     35      63.8442      0.00000
     36      64.2619      0.00000
     37      66.0067      0.00000
     38      67.1509      0.00000
     39      68.4540      0.00000
     40      68.9847      0.00000

 k-point    91 :       0.4545    0.0909    0.4545
  band No.  band energies     occupation 
      1       2.4992      2.00000
      2       2.6628      2.00000
      3       3.9945      2.00000
      4       4.1255      2.00000
      5       6.3408      2.00000
      6       6.7935      2.00000
      7       7.4754      1.41582
      8       7.7903     -0.06848
      9       8.5448     -0.00000
     10       8.5555     -0.00000
     11      10.9087     -0.00000
     12      11.4383     -0.00000
     13      17.6286      0.00000
     14      17.6579      0.00000
     15      25.8300      0.00000
     16      26.6486      0.00000
     17      28.2243      0.00000
     18      28.7689      0.00000
     19      33.5483      0.00000
     20      33.6761      0.00000
     21      37.4053      0.00000
     22      37.7133      0.00000
     23      43.7341      0.00000
     24      44.9577      0.00000
     25      50.8645      0.00000
     26      52.7254      0.00000
     27      57.3591      0.00000
     28      58.0451      0.00000
     29      58.2826      0.00000
     30      58.8756      0.00000
     31      59.9210      0.00000
     32      60.7504      0.00000
     33      64.3553      0.00000
     34      64.4003      0.00000
     35      64.9402      0.00000
     36      65.8056      0.00000
     37      66.5911      0.00000
     38      66.7378      0.00000
     39      69.0112      0.00000
     40      69.1991      0.00000

 k-point    92 :       0.1818    0.1818    0.4545
  band No.  band energies     occupation 
      1       2.6018      2.00000
      2       2.8873      2.00000
      3       4.5564      2.00000
      4       4.6287      2.00000
      5       5.1161      2.00000
      6       5.1899      2.00000
      7       6.6984      2.00000
      8       6.9666      2.00055
      9       8.3409     -0.00000
     10       8.4395     -0.00000
     11       8.9729     -0.00000
     12       9.5800     -0.00000
     13      23.7790      0.00000
     14      24.1927      0.00000
     15      24.4674      0.00000
     16      25.5734      0.00000
     17      26.1771      0.00000
     18      27.7435      0.00000
     19      37.7835      0.00000
     20      38.8430      0.00000
     21      39.3967      0.00000
     22      40.4910      0.00000
     23      42.4786      0.00000
     24      42.5680      0.00000
     25      48.7900      0.00000
     26      49.2587      0.00000
     27      53.3530      0.00000
     28      53.6484      0.00000
     29      55.7546      0.00000
     30      57.2355      0.00000
     31      58.4234      0.00000
     32      58.9112      0.00000
     33      60.5705      0.00000
     34      60.6022      0.00000
     35      62.7457      0.00000
     36      62.7590      0.00000
     37      65.7702      0.00000
     38      67.1216      0.00000
     39      67.9034      0.00000
     40      68.1046      0.00000

 k-point    93 :       0.2727    0.1818    0.4545
  band No.  band energies     occupation 
      1       2.9424      2.00000
      2       3.0600      2.00000
      3       4.3757      2.00000
      4       4.6038      2.00000
      5       5.3920      2.00000
      6       5.5701      2.00000
      7       6.6570      2.00000
      8       6.9166      2.00014
      9       8.4507     -0.00000
     10       8.7000     -0.00000
     11      10.4848     -0.00000
     12      11.0622     -0.00000
     13      20.5887      0.00000
     14      21.2029      0.00000
     15      23.3854      0.00000
     16      24.1572      0.00000
     17      27.0098      0.00000
     18      28.8609      0.00000
     19      35.7400      0.00000
     20      37.2568      0.00000
     21      38.5609      0.00000
     22      39.9913      0.00000
     23      42.8162      0.00000
     24      43.3253      0.00000
     25      50.0323      0.00000
     26      50.5697      0.00000
     27      54.5627      0.00000
     28      56.2653      0.00000
     29      58.2647      0.00000
     30      59.9294      0.00000
     31      60.5142      0.00000
     32      60.8398      0.00000
     33      61.8304      0.00000
     34      61.9567      0.00000
     35      62.8191      0.00000
     36      63.0187      0.00000
     37      66.1581      0.00000
     38      67.6527      0.00000
     39      68.0346      0.00000
     40      68.5578      0.00000

 k-point    94 :       0.3636    0.1818    0.4545
  band No.  band energies     occupation 
      1       2.9661      2.00000
      2       3.1318      2.00000
      3       4.2524      2.00000
      4       4.4794      2.00000
      5       5.5060      2.00000
      6       5.8695      2.00000
      7       7.0165      2.00185
      8       7.1530      2.02402
      9       8.4080     -0.00000
     10       8.5846     -0.00000
     11      12.2100     -0.00000
     12      12.6718     -0.00000
     13      18.0232      0.00000
     14      18.4153      0.00000
     15      22.7420      0.00000
     16      23.5273      0.00000
     17      28.6115      0.00000
     18      29.7922      0.00000
     19      34.2636      0.00000
     20      35.3655      0.00000
     21      37.4372      0.00000
     22      38.9631      0.00000
     23      43.6932      0.00000
     24      44.0620      0.00000
     25      53.1939      0.00000
     26      53.8037      0.00000
     27      54.8592      0.00000
     28      56.5699      0.00000
     29      57.8371      0.00000
     30      58.3933      0.00000
     31      60.1558      0.00000
     32      61.3081      0.00000
     33      63.0831      0.00000
     34      63.3495      0.00000
     35      64.8789      0.00000
     36      65.4130      0.00000
     37      66.7183      0.00000
     38      66.8356      0.00000
     39      67.6445      0.00000
     40      68.7277      0.00000

 k-point    95 :       0.2727    0.2727    0.4545
  band No.  band energies     occupation 
      1       3.3795      2.00000
      2       3.4351      2.00000
      3       4.4447      2.00000
      4       4.6825      2.00000
      5       5.0788      2.00000
      6       5.3136      2.00000
      7       6.6059      2.00000
      8       6.8255      2.00001
      9       8.4221     -0.00000
     10       8.6115     -0.00000
     11      12.6628     -0.00000
     12      13.2191      0.00000
     13      19.0084      0.00000
     14      19.4679      0.00000
     15      20.9816      0.00000
     16      21.4005      0.00000
     17      28.7897      0.00000
     18      30.5044      0.00000
     19      34.3107      0.00000
     20      35.8199      0.00000
     21      37.2907      0.00000
     22      38.4924      0.00000
     23      45.5764      0.00000
     24      45.9926      0.00000
     25      50.2567      0.00000
     26      50.3548      0.00000
     27      57.2986      0.00000
     28      57.9766      0.00000
     29      58.0498      0.00000
     30      59.4716      0.00000
     31      61.1007      0.00000
     32      61.1623      0.00000
     33      61.4380      0.00000
     34      61.6368      0.00000
     35      64.8381      0.00000
     36      64.9517      0.00000
     37      65.9984      0.00000
     38      66.3528      0.00000
     39      67.1351      0.00000
     40      68.2771      0.00000

 k-point    96 :       0.3636    0.2727    0.4545
  band No.  band energies     occupation 
      1       3.5864      2.00000
      2       3.7274      2.00000
      3       4.3457      2.00000
      4       4.4246      2.00000
      5       5.1239      2.00000
      6       5.2445      2.00000
      7       6.6852      2.00000
      8       6.8539      2.00002
      9       8.3883     -0.00000
     10       8.4593     -0.00000
     11      14.5050      0.00000
     12      14.6390      0.00000
     13      17.3441      0.00000
     14      17.7165      0.00000
     15      20.3366      0.00000
     16      20.7897      0.00000
     17      30.4367      0.00000
     18      31.3158      0.00000
     19      33.5150      0.00000
     20      33.7812      0.00000
     21      37.0704      0.00000
     22      37.9465      0.00000
     23      46.8510      0.00000
     24      47.5228      0.00000
     25      51.5289      0.00000
     26      51.9182      0.00000
     27      54.6324      0.00000
     28      54.9798      0.00000
     29      58.9065      0.00000
     30      60.3971      0.00000
     31      61.2193      0.00000
     32      61.7533      0.00000
     33      62.6805      0.00000
     34      62.7778      0.00000
     35      62.9453      0.00000
     36      64.4323      0.00000
     37      66.2029      0.00000
     38      68.0984      0.00000
     39      68.8501      0.00000
     40      69.1040      0.00000


--------------------------------------------------------------------------------------------------------


 soft charge-density along one line, spin component           1
         0         1         2         3         4         5         6         7         8         9
x     7.7874    0.0000    0.0989   -0.1713   -0.0588   -0.1018    0.0187   -0.0000    0.0015   -0.0026
x     0.0000    0.0000
y     7.7874    0.0000    0.0989    0.1713   -0.0588    0.1018    0.0187    0.0000    0.0015    0.0026
y     0.0000    0.0000
z     7.7874    0.0000    0.0000   -0.0000    0.3501    0.0000    0.0000    0.0000   -0.1538    0.0000
z     0.0000   -0.0000    0.0217   -0.0000    0.0000    0.0000    0.0000    0.0000
 total charge-density along one line
x    16.0000    0.0000    1.4768   -2.5578    0.2972    0.5147    0.0267    0.0000    0.0011   -0.0018
x     0.0001    0.0002   -0.0003   -0.0000    0.0000   -0.0001   -0.0000   -0.0000    0.0001   -0.0000
x    -0.0000    0.0000
y    16.0000    0.0000    1.4768    2.5578    0.2972   -0.5147    0.0267   -0.0000    0.0011    0.0018
y     0.0001   -0.0002   -0.0003    0.0000    0.0000    0.0001   -0.0000    0.0000    0.0001    0.0000
y    -0.0000   -0.0000
z    16.0000    0.0000   -0.0000   -0.0000    5.7988    0.0000    0.0000   -0.0000    1.1844    0.0000
z    -0.0000   -0.0000    0.0202    0.0000   -0.0000   -0.0000    0.0019    0.0000    0.0000    0.0000
z    -0.0004    0.0000    0.0000   -0.0000    0.0002    0.0000    0.0000   -0.0000   -0.0001    0.0000
z    -0.0000    0.0000    0.0001    0.0000
 
 pseudopotential strength for first ion, spin component:           1
 -4.064  -0.000  -0.000   0.000  -0.000  -4.638  -0.000  -0.000
 -0.000  -4.060  -0.000  -0.000  -0.000  -0.000  -4.634  -0.000
 -0.000  -0.000  -4.069  -0.000  -0.000  -0.000  -0.000  -4.643
  0.000  -0.000  -0.000  -4.060  -0.000   0.000  -0.000  -0.000
 -0.000  -0.000  -0.000  -0.000  -4.064  -0.000  -0.000  -0.000
 -4.638  -0.000  -0.000   0.000  -0.000  -5.169  -0.000  -0.000
 -0.000  -4.634  -0.000  -0.000  -0.000  -0.000  -5.165  -0.000
 -0.000  -0.000  -4.643  -0.000  -0.000  -0.000  -0.000  -5.174
  0.000  -0.000  -0.000  -4.634  -0.000   0.000  -0.000  -0.000
 -0.000  -0.000  -0.000  -0.000  -4.638  -0.000  -0.000  -0.000
  0.000  -0.000   0.001   0.000  -0.000   0.000  -0.000   0.001
  0.000  -0.000   0.002   0.000  -0.000   0.000  -0.000   0.002
 -0.000   0.000   0.000  -0.000  -0.001  -0.000   0.000   0.000
 -0.000  -0.000   0.000  -0.000   0.000  -0.000  -0.000   0.000
 -0.001  -0.000   0.000   0.000  -0.000  -0.001  -0.000   0.000
 -0.000   0.000   0.000  -0.000  -0.001  -0.000   0.000   0.000
 -0.000  -0.000   0.000  -0.000   0.000  -0.000  -0.000   0.000
 -0.001  -0.000   0.000   0.000  -0.000  -0.001  -0.000   0.000
 total augmentation occupancy for first ion, spin component:           1
  1.707   0.000   0.000   0.000   0.000  -1.124   0.000  -0.000   0.000  -0.000   0.000   0.000   0.000  -0.000   0.037  -0.000
 -0.000   2.048   0.000  -0.000   0.000   0.000  -1.293  -0.000   0.000   0.000   0.000  -0.000   0.000   0.000   0.000   0.000
  0.000   0.000   1.404   0.000  -0.000  -0.000  -0.000  -0.902   0.000   0.000   0.004  -0.007  -0.000   0.000   0.000   0.000
  0.000  -0.000   0.000   2.048  -0.000   0.000   0.000   0.000  -1.293  -0.000   0.000   0.000   0.000   0.000  -0.000   0.000
  0.000   0.000  -0.000   0.000   1.707  -0.000   0.000   0.000   0.000  -1.124   0.000  -0.000   0.037  -0.000  -0.000  -0.002
 -1.124   0.000  -0.000   0.000  -0.000   1.910   0.000   0.000   0.000   0.000   0.000   0.000  -0.000   0.000  -0.054   0.000
  0.000  -1.293  -0.000   0.000   0.000   0.000   1.884   0.000  -0.000   0.000  -0.000   0.000   0.000   0.000  -0.000  -0.000
 -0.000  -0.000  -0.902   0.000   0.000   0.000   0.000   1.756  -0.000  -0.000  -0.053   0.005   0.000   0.000  -0.000  -0.000
  0.000   0.000   0.000  -1.293   0.000   0.000  -0.000   0.000   1.884   0.000   0.000  -0.000   0.000   0.000  -0.000   0.000
 -0.000   0.000   0.000   0.000  -1.124   0.000   0.000  -0.000   0.000   1.910  -0.000   0.000  -0.054   0.000   0.000   0.003
  0.000   0.000   0.004   0.000   0.000   0.000  -0.000  -0.053   0.000  -0.000   2.839  -0.333  -0.000   0.000  -0.000   0.000
  0.000   0.000  -0.007  -0.000  -0.000  -0.000   0.000   0.005   0.000   0.000  -0.333   0.044  -0.000   0.000  -0.000   0.000
  0.000   0.000   0.000   0.000   0.037  -0.000  -0.000   0.000   0.000  -0.054  -0.000  -0.000   0.379   0.000  -0.000  -0.031
  0.000   0.000   0.000   0.000  -0.000   0.000   0.000   0.000   0.000   0.000   0.000   0.000  -0.000   0.368   0.000  -0.000
  0.037   0.000   0.000  -0.000  -0.000  -0.054   0.000  -0.000   0.000   0.000  -0.000   0.000  -0.000   0.000   0.379   0.000
 -0.000   0.000   0.000   0.000  -0.002   0.000  -0.000  -0.000   0.000   0.003  -0.000   0.000  -0.031   0.000   0.000   0.003
  0.000   0.000   0.000  -0.000  -0.000  -0.000  -0.000   0.000   0.000  -0.000   0.000   0.000   0.000  -0.032   0.000   0.000
 -0.002  -0.000  -0.000  -0.000   0.000   0.003   0.000  -0.000   0.000  -0.000  -0.000   0.000   0.000  -0.000  -0.031  -0.000


------------------------ aborting loop because EDIFF is reached ----------------------------------------


    CHARGE:  cpu time    0.0173: real time    0.0173
    FORLOC:  cpu time    0.0002: real time    0.0002
    FORNL :  cpu time    0.0924: real time    0.0924
    STRESS:  cpu time    0.1406: real time    0.1406
    FORCOR:  cpu time    0.0030: real time    0.0030
    FORHAR:  cpu time    0.0006: real time    0.0006
    MIXING:  cpu time    0.0002: real time    0.0002

  FORCE on cell =-STRESS in cart. coord.  units (eV):
  Direction    XX          YY          ZZ          XY          YZ          ZX
  --------------------------------------------------------------------------------------
  Alpha Z   143.50348   143.50348   143.50348
  Ewald    -408.77667  -408.77667  -433.08299     0.00000     0.00000    -0.00000
  Hartree    57.82897    57.82897    49.00603    -0.00000    -0.00000    -0.00000
  E(xc)     -79.14259   -79.14262   -78.97799     0.00023     0.00000    -0.00000
  Local     114.24832   114.24854   145.99953    -0.00087     0.00000     0.00000
  n-local   -51.61686   -51.11758   -53.00120    -3.98563     1.52661     1.06162
  augment    75.56764    75.56709    75.65912     0.00109     0.00000     0.00000
  Kinetic   154.82154   148.74818   149.74778     1.00434    -1.06475     0.07980
  Fock        0.00000     0.00000     0.00000     0.00000     0.00000     0.00000
  -------------------------------------------------------------------------------------
  Total       3.64660     3.64660    -1.14625    -0.00000    -0.00000     0.00000
  in kB     303.27500   303.27500   -95.32974    -0.00000    -0.00000     0.00000
  external pressure =      170.41 kB  Pullay stress =        0.00 kB


 VOLUME and BASIS-vectors are now :
 -----------------------------------------------------------------------------
  energy-cutoff  :      280.00
  volume of cell :       19.26
      direct lattice vectors                 reciprocal lattice vectors
     2.353300000  0.000000000  0.000000000     0.424935197  0.245336451  0.000000000
    -1.176650000  2.038017583  0.000000000     0.000000000  0.490672901  0.000000000
     0.000000000  0.000000000  4.016770000     0.000000000  0.000000000  0.248956251

  length of vectors
     2.353300000  2.353300000  4.016770000     0.490672901  0.490672901  0.248956251


 FORCES acting on ions
    electron-ion (+dipol)            ewald-force                    non-local-force                 convergence-correction
 -----------------------------------------------------------------------------------------------
   0.491E-07 -.106E-05 0.953E-14   0.669E-12 -.384E-12 -.238E-13   -.352E-17 -.506E-18 -.201E-19   -.987E-08 0.562E-08 0.920E-14
   -.592E-05 0.102E-04 0.722E-13   -.663E-12 0.383E-12 0.239E-13   0.762E-17 0.724E-18 0.968E-20   0.101E-07 -.574E-08 -.804E-14
 -----------------------------------------------------------------------------------------------
   -.587E-05 0.910E-05 0.817E-13   0.655E-14 -.941E-15 0.155E-16   0.410E-17 0.218E-18 -.105E-19   0.207E-09 -.121E-09 0.117E-14
 
 
 POSITION                                       TOTAL-FORCE (eV/Angst)
 -----------------------------------------------------------------------------------
      0.00000      0.00000      0.00000        -0.000000      0.000000     -0.000000
      0.00000      1.35868      2.00838         0.000000     -0.000000      0.000000
 -----------------------------------------------------------------------------------
    total drift:                               -0.000006      0.000009      0.000000


--------------------------------------------------------------------------------------------------------



  FREE ENERGIE OF THE ION-ELECTRON SYSTEM (eV)
  ---------------------------------------------------
  free  energy   TOTEN  =       -16.14280094 eV

  energy  without entropy=      -16.14352418  energy(sigma->0) =      -16.14304202
 


--------------------------------------------------------------------------------------------------------


    POTLOK:  cpu time    0.0051: real time    0.0051


--------------------------------------------------------------------------------------------------------


 writing wavefunctions
     LOOP+:  cpu time    9.1291: real time    9.1481
    4ORBIT:  cpu time    0.0000: real time    0.0000

 total amount of memory used by VASP MPI-rank0    49302. kBytes
=======================================================================

   base      :      30000. kBytes
   nonl-proj :       3006. kBytes
   grid      :        721. kBytes
   one-center:         31. kBytes
   wavefun   :      15544. kBytes
 
  
  
 General timing and accounting informations for this job:
 ========================================================
  
                  Total CPU time used (sec):        9.299
                            User time (sec):        9.243
                          System time (sec):        0.056
                         Elapsed time (sec):        9.307
  
                   Maximum memory used (kb):       53536.
                   Average memory used (kb):          N/A
  
                          Minor page faults:         7147
                          Major page faults:            0
                 Voluntary context switches:           26
