 vasp.6.2.0 18Jan21 (build Mar 17 2021 09:06:54) complex                        
  
 POSCAR found type information on POSCAR Fe
 POSCAR found :  1 types and       2 ions
 LDA part: xc-table for Pade appr. of Perdew
 POSCAR, INCAR and KPOINTS ok, starting setup
 FFT: planning ...
 WAVECAR not read
 WARNING: chargedensity file is incomplete
 entering main loop
       N       E                     dE             d eps       ncg     rms          rms(c)
DAV:   1     0.607972661782E+02    0.60797E+02   -0.25957E+03  9344   0.330E+02
DAV:   2    -0.147411193977E+02   -0.75538E+02   -0.64018E+02  7936   0.970E+01
DAV:   3    -0.191471350555E+02   -0.44060E+01   -0.42131E+01  9544   0.243E+01
DAV:   4    -0.191650988440E+02   -0.17964E-01   -0.17955E-01  9016   0.164E+00
DAV:   5    -0.191651148581E+02   -0.16014E-04   -0.16015E-04  9232   0.460E-02    0.180E+01
DAV:   6    -0.163361956362E+02    0.28289E+01   -0.15839E+00 11168   0.240E+01    0.179E+00
DAV:   7    -0.161825083359E+02    0.15369E+00   -0.91459E-02  9976   0.457E+00    0.115E+00
DAV:   8    -0.161532530810E+02    0.29255E-01   -0.26318E-03  9936   0.330E-01    0.528E-01
DAV:   9    -0.161427966376E+02    0.10456E-01   -0.94078E-04 10776   0.174E-01    0.595E-02
DAV:  10    -0.161428111360E+02   -0.14498E-04   -0.31420E-05  8688   0.223E-02    0.211E-02
DAV:  11    -0.161428014941E+02    0.96419E-05   -0.16022E-07  8152   0.502E-03    0.156E-03
DAV:  12    -0.161428009405E+02    0.55356E-06   -0.66622E-08  5848   0.151E-03
   1 F= -.16142801E+02 E0= -.16143042E+02  d E =0.723242E-03
 writing wavefunctions
