    4    4    1    1
  0.1226649E+02  0.3660947E-09  0.3660947E-09  0.3660947E-09  0.5000000E-15
  1.000000000000000E-004
  CAR 
 unknown system                          
     32     56     40
 
  0.0000000E+00  0.0000000E+00  0.0000000E+00  0.7513148E-03
    1       -2.875491   1.000000
    2        1.109038   1.000000
    3        1.109038   1.000000
    4        1.109038   1.000000
    5        1.715063   1.000000
    6        1.715063   1.000000
    7        1.715063   1.000000
    8        3.692131   1.000000
    9        3.692131   1.000000
   10        3.692131   1.000000
   11        4.881256   0.733417
   12        4.881256   0.733417
   13        5.670259  -0.000001
   14        5.670259  -0.000001
   15        5.670259  -0.000001
   16        5.899635  -0.000000
   17        5.899635  -0.000000
   18        5.899635  -0.000000
   19        5.899635  -0.000000
   20        5.899635  -0.000000
   21        5.899635  -0.000000
   22        7.795777  -0.000000
   23        7.795777  -0.000000
   24        7.795777  -0.000000
   25       14.806415   0.000000
   26       14.806415   0.000000
   27       14.806415   0.000000
   28       19.321338   0.000000
   29       19.321338   0.000000
   30       19.321338   0.000000
   31       19.321338   0.000000
   32       19.321338   0.000000
   33       19.321338   0.000000
   34       24.128411   0.000000
   35       24.128411   0.000000
   36       24.128411   0.000000
   37       26.740713   0.000000
   38       27.704797   0.000000
   39       27.704797   0.000000
   40       27.704797   0.000000
 
  0.9090909E-01  0.0000000E+00  0.0000000E+00  0.4507889E-02
    1       -2.773570   1.000000
    2        1.119461   1.000000
    3        1.167767   1.000000
    4        1.167767   1.000000
    5        1.751036   1.000000
    6        1.754355   1.000000
    7        1.754355   1.000000
    8        3.647147   1.000000
    9        3.724966   1.000000
   10        3.724966   1.000000
   11        4.839273   0.869354
   12        4.896698   0.674639
   13        5.560536  -0.000051
   14        5.560536  -0.000051
   15        5.616416  -0.000009
   16        5.616416  -0.000009
   17        5.653768  -0.000003
   18        5.837623  -0.000000
   19        5.837623  -0.000000
   20        5.899773  -0.000000
   21        5.899773  -0.000000
   22        7.337308  -0.000000
   23        8.213597  -0.000000
   24        8.213597  -0.000000
   25       14.820905   0.000000
   26       14.820905   0.000000
   27       15.430724   0.000000
   28       18.805302   0.000000
   29       18.805302   0.000000
   30       19.016722   0.000000
   31       19.016722   0.000000
   32       19.487588   0.000000
   33       19.487588   0.000000
   34       24.151875   0.000000
   35       24.745612   0.000000
   36       24.745612   0.000000
   37       26.595223   0.000000
   38       27.741969   0.000000
   39       28.247439   0.000000
   40       28.247439   0.000000
 
  0.1818182E+00  0.0000000E+00  0.0000000E+00  0.4507889E-02
    1       -2.471655   1.000000
    2        1.127561   1.000000
    3        1.334492   1.000000
    4        1.334492   1.000000
    5        1.856867   1.000000
    6        1.872552   1.000000
    7        1.872552   1.000000
    8        3.517590   1.000000
    9        3.823245   1.000000
   10        3.823245   1.000000
   11        4.720896   1.032151
   12        4.924774   0.560037
   13        4.924774   0.560037
   14        4.940902   0.491961
   15        5.460983  -0.000699
   16        5.460983  -0.000699
   17        5.605357  -0.000013
   18        5.660701  -0.000002
   19        5.660701  -0.000002
   20        5.900171  -0.000000
   21        5.900171  -0.000000
   22        6.324342  -0.000000
   23        9.085354  -0.000000
   24        9.085354  -0.000000
   25       14.866033   0.000000
   26       14.866033   0.000000
   27       16.948153   0.000000
   28       17.679091   0.000000
   29       17.679091   0.000000
   30       18.308282   0.000000
   31       18.308282   0.000000
   32       19.972669   0.000000
   33       19.972669   0.000000
   34       24.218417   0.000000
   35       26.175115   0.000000
   36       26.175115   0.000000
   37       26.235582   0.000000
   38       27.863848   0.000000
   39       28.808584   0.000000
   40       28.808586   0.000000
 
  0.2727273E+00  0.0000000E+00  0.0000000E+00  0.4507889E-02
    1       -1.982898   1.000000
    2        1.053837   1.000000
    3        1.578315   1.000000
    4        1.578315   1.000000
    5        2.026283   1.000000
    6        2.070625   1.000000
    7        2.070625   1.000000
    8        3.317342   1.000000
    9        3.984247   1.000000
   10        3.984247   1.000000
   11        4.274479   1.000014
   12        4.274479   1.000014
   13        4.544203   1.008688
   14        5.012348   0.211575
   15        5.229876  -0.029630
   16        5.229876  -0.029630
   17        5.270633  -0.020404
   18        5.400177  -0.002637
   19        5.400177  -0.002637
   20        5.529585  -0.000121
   21        5.900661  -0.000000
   22        5.900661  -0.000000
   23       10.125901  -0.000000
   24       10.125901  -0.000000
   25       14.947090   0.000000
   26       14.947090   0.000000
   27       16.375663   0.000000
   28       16.375663   0.000000
   29       17.520484   0.000000
   30       17.520484   0.000000
   31       18.884252   0.000000
   32       20.741550   0.000000
   33       20.741550   0.000000
   34       24.333733   0.000000
   35       25.800060   0.000000
   36       27.278256   0.000000
   37       27.278256   0.000000
   38       27.877410   0.000000
   39       27.988804   0.000000
   40       27.988853   0.000000
 
  0.3636364E+00  0.0000000E+00  0.0000000E+00  0.4507889E-02
    1       -1.334459   1.000000
    2        0.761401   1.000000
    3        1.838628   1.000000
    4        1.838628   1.000000
    5        2.248733   1.000000
    6        2.349779   1.000000
    7        2.349779   1.000000
    8        3.066742   1.000000
    9        3.677605   1.000000
   10        3.677605   1.000000
   11        4.203015   1.000001
   12        4.203015   1.000001
   13        4.344413   1.000109
   14        4.509150   1.004793
   15        4.978460   0.336590
   16        4.978460   0.336590
   17        5.093423   0.017438
   18        5.093423   0.017438
   19        5.104916   0.002770
   20        5.433238  -0.001316
   21        5.901520  -0.000000
   22        5.901520  -0.000000
   23       11.261384   0.000000
   24       11.261384   0.000000
   25       15.044032   0.000000
   26       15.044032   0.000000
   27       15.066455   0.000000
   28       15.066455   0.000000
   29       16.856327   0.000000
   30       16.856327   0.000000
   31       20.982295   0.000000
   32       21.750526   0.000000
   33       21.750526   0.000000
   34       24.503317   0.000000
   35       25.381544   0.000000
   36       25.757657   0.000000
   37       25.757657   0.000000
   38       26.481711   0.000000
   39       28.590802   0.000000
   40       30.041363   0.000000
 
  0.4545455E+00  0.0000000E+00  0.0000000E+00  0.4507889E-02
    1       -0.579671   1.000000
    2        0.176279   1.000000
    3        2.017965   1.000000
    4        2.017965   1.000000
    5        2.509357   1.000000
    6        2.710986   1.000000
    7        2.710986   1.000000
    8        2.789386   1.000000
    9        3.154268   1.000000
   10        3.154268   1.000000
   11        4.181976   1.000001
   12        4.185223   1.000001
   13        4.470707   1.002283
   14        4.470707   1.002283
   15        4.774051   0.996113
   16        4.774051   0.996113
   17        4.803291   0.952163
   18        4.803291   0.952163
   19        5.211559  -0.033042
   20        5.323929  -0.010121
   21        5.901662  -0.000000
   22        5.901662  -0.000000
   23       12.469449   0.000000
   24       12.469449   0.000000
   25       13.734936   0.000000
   26       13.734936   0.000000
   27       15.182061   0.000000
   28       15.182061   0.000000
   29       16.449232   0.000000
   30       16.449232   0.000000
   31       22.949203   0.000000
   32       22.949203   0.000000
   33       23.047417   0.000000
   34       24.299062   0.000000
   35       24.299062   0.000000
   36       24.722339   0.000000
   37       24.904195   0.000000
   38       25.017944   0.000000
   39       29.424638   0.000000
   40       30.780289   0.000000
 
  0.9090909E-01  0.9090909E-01  0.0000000E+00  0.9015778E-02
    1       -2.672387   1.000000
    2        1.179353   1.000000
    3        1.179353   1.000000
    4        1.225011   1.000000
    5        1.789485   1.000000
    6        1.789485   1.000000
    7        1.792029   1.000000
    8        3.620659   1.000000
    9        3.741047   1.000000
   10        3.753903   1.000000
   11        4.827316   0.900488
   12        4.886128   0.715295
   13        5.340642  -0.007785
   14        5.445208  -0.001007
   15        5.445208  -0.001007
   16        5.565707  -0.000043
   17        5.627113  -0.000006
   18        5.627113  -0.000006
   19        5.837135  -0.000000
   20        5.837135  -0.000000
   21        5.860810  -0.000000
   22        7.769112  -0.000000
   23        7.769112  -0.000000
   24        8.552407  -0.000000
   25       14.831936   0.000000
   26       15.456328   0.000000
   27       15.456328   0.000000
   28       17.712514   0.000000
   29       18.959336   0.000000
   30       18.959336   0.000000
   31       19.175092   0.000000
   32       19.175092   0.000000
   33       19.645757   0.000000
   34       24.781414   0.000000
   35       24.781414   0.000000
   36       24.898232   0.000000
   37       26.343057   0.000000
   38       28.287654   0.000000
   39       28.287654   0.000000
   40       28.877606   0.000000
 
  0.1818182E+00  0.9090909E-01  0.0000000E+00  0.1803156E-01
    1       -2.372720   1.000000
    2        1.190871   1.000000
    3        1.349687   1.000000
    4        1.387789   1.000000
    5        1.892804   1.000000
    6        1.904939   1.000000
    7        1.905097   1.000000
    8        3.504294   1.000000
    9        3.829722   1.000000
   10        3.838576   1.000000
   11        4.726208   1.030555
   12        4.812075   0.934952
   13        4.813683   0.931593
   14        4.928298   0.545221
   15        5.165788  -0.034024
   16        5.418343  -0.001814
   17        5.466084  -0.000619
   18        5.582642  -0.000026
   19        5.660305  -0.000002
   20        5.836936  -0.000000
   21        5.839470  -0.000000
   22        6.842511  -0.000000
   23        8.607132  -0.000000
   24        9.337528  -0.000000
   25       14.846607   0.000000
   26       15.537849   0.000000
   27       16.450936   0.000000
   28       16.987420   0.000000
   29       17.819828   0.000000
   30       18.452212   0.000000
   31       19.406323   0.000000
   32       19.528771   0.000000
   33       19.641336   0.000000
   34       24.889652   0.000000
   35       25.728517   0.000000
   36       25.754719   0.000000
   37       26.226478   0.000000
   38       27.407780   0.000000
   39       28.422952   0.000000
   40       29.247144   0.000000
 
  0.2727273E+00  0.9090909E-01  0.0000000E+00  0.1803156E-01
    1       -1.887821   1.000000
    2        1.122112   1.000000
    3        1.599944   1.000000
    4        1.627442   1.000000
    5        2.058089   1.000000
    6        2.091691   1.000000
    7        2.098670   1.000000
    8        3.312534   1.000000
    9        3.968622   1.000000
   10        3.987714   1.000000
   11        4.174197   1.000000
   12        4.219583   1.000002
   13        4.570108   1.012781
   14        4.715290   1.033459
   15        5.010422   0.218099
   16        5.198422  -0.034728
   17        5.238013  -0.027872
   18        5.399460  -0.002675
   19        5.464413  -0.000644
   20        5.834296  -0.000000
   21        5.836515  -0.000000
   22        6.017030  -0.000000
   23        9.565425  -0.000000
   24       10.328231  -0.000000
   25       14.670533   0.000000
   26       15.469905   0.000000
   27       15.678001   0.000000
   28       16.511411   0.000000
   29       17.658856   0.000000
   30       18.844553   0.000000
   31       18.901299   0.000000
   32       20.103105   0.000000
   33       20.407868   0.000000
   34       24.936327   0.000000
   35       25.078233   0.000000
   36       25.985534   0.000000
   37       27.332371   0.000000
   38       28.047739   0.000000
   39       28.212046   0.000000
   40       28.690619   0.000000
 
  0.3636364E+00  0.9090909E-01  0.0000000E+00  0.1803156E-01
    1       -1.244737   1.000000
    2        0.834221   1.000000
    3        1.870094   1.000000
    4        1.887950   1.000000
    5        2.274920   1.000000
    6        2.348288   1.000000
    7        2.371080   1.000000
    8        3.070148   1.000000
    9        3.595079   1.000000
   10        3.655018   1.000000
   11        4.084166   1.000000
   12        4.204759   1.000001
   13        4.244560   1.000005
   14        4.457287   1.001725
   15        4.959137   0.415279
   16        4.988142   0.298870
   17        5.092529   0.018703
   18        5.119382  -0.011724
   19        5.206203  -0.033826
   20        5.583911  -0.000025
   21        5.833387  -0.000000
   22        5.835913  -0.000000
   23       10.579023   0.000000
   24       11.434952   0.000000
   25       13.767910   0.000000
   26       15.181814   0.000000
   27       15.358088   0.000000
   28       15.840768   0.000000
   29       17.043325   0.000000
   30       18.036681   0.000000
   31       20.755147   0.000000
   32       20.991375   0.000000
   33       21.635162   0.000000
   34       24.033906   0.000000
   35       24.629778   0.000000
   36       25.369267   0.000000
   37       27.213919   0.000000
   38       27.485848   0.000000
   39       29.174857   0.000000
   40       29.310561   0.000000
 
  0.4545455E+00  0.9090909E-01  0.0000000E+00  0.1803156E-01
    1       -0.496349   1.000000
    2        0.253530   1.000000
    3        2.061753   1.000000
    4        2.069302   1.000000
    5        2.528734   1.000000
    6        2.677395   1.000000
    7        2.722618   1.000000
    8        2.801037   1.000000
    9        3.092823   1.000000
   10        3.152083   1.000000
   11        4.024452   1.000000
   12        4.044536   1.000000
   13        4.471376   1.002314
   14        4.583138   1.015239
   15        4.773982   0.996193
   16        4.796562   0.964061
   17        4.807758   0.943650
   18        4.867774   0.781249
   19        5.247643  -0.025691
   20        5.392603  -0.003064
   21        5.833760  -0.000000
   22        5.835020  -0.000000
   23       11.622827   0.000000
   24       12.624542   0.000000
   25       12.689364   0.000000
   26       13.878561   0.000000
   27       15.562852   0.000000
   28       15.814026   0.000000
   29       16.912280   0.000000
   30       17.337245   0.000000
   31       21.998124   0.000000
   32       22.097761   0.000000
   33       23.038124   0.000000
   34       23.340029   0.000000
   35       23.567609   0.000000
   36       25.609939   0.000000
   37       25.797022   0.000000
   38       26.400792   0.000000
   39       29.982483   0.000000
   40       31.241103   0.000000
 
  0.1818182E+00  0.1818182E+00  0.0000000E+00  0.9015778E-02
    1       -2.080013   1.000000
    2        1.371821   1.000000
    3        1.371821   1.000000
    4        1.539562   1.000000
    5        2.000713   1.000000
    6        2.000713   1.000000
    7        2.001354   1.000000
    8        3.433816   1.000000
    9        3.882739   1.000000
   10        3.883264   1.000000
   11        4.495489   1.003721
   12        4.522115   1.006028
   13        4.522115   1.006028
   14        4.690174   1.035401
   15        4.947206   0.465321
   16        5.293795  -0.015452
   17        5.440038  -0.001131
   18        5.440038  -0.001131
   19        5.659071  -0.000002
   20        5.659071  -0.000002
   21        5.745810  -0.000000
   22        7.631845  -0.000000
   23        7.631845  -0.000000
   24        9.988951  -0.000000
   25       14.503626   0.000000
   26       15.409703   0.000000
   27       17.092119   0.000000
   28       17.092119   0.000000
   29       18.226938   0.000000
   30       18.226938   0.000000
   31       18.894538   0.000000
   32       18.894538   0.000000
   33       20.573576   0.000000
   34       24.746326   0.000000
   35       25.434818   0.000000
   36       25.909406   0.000000
   37       26.379527   0.000000
   38       26.379527   0.000000
   39       29.775865   0.000000
   40       29.844796   0.000000
 
  0.2727273E+00  0.1818182E+00  0.0000000E+00  0.1803156E-01
    1       -1.606953   1.000000
    2        1.318266   1.000000
    3        1.641083   1.000000
    4        1.766118   1.000000
    5        2.153331   1.000000
    6        2.155589   1.000000
    7        2.180843   1.000000
    8        3.282864   1.000000
    9        3.922905   1.000000
   10        3.939949   1.000000
   11        4.015993   1.000000
   12        4.053384   1.000000
   13        4.145207   1.000000
   14        4.585195   1.015650
   15        5.052406   0.095336
   16        5.104089   0.003728
   17        5.225559  -0.030514
   18        5.336366  -0.008341
   19        5.398102  -0.002748
   20        5.657365  -0.000002
   21        5.690563  -0.000001
   22        6.708816  -0.000000
   23        8.471360  -0.000000
   24       10.880615   0.000000
   25       13.396058   0.000000
   26       15.323117   0.000000
   27       16.904442   0.000000
   28       17.171212   0.000000
   29       18.191317   0.000000
   30       18.811928   0.000000
   31       18.859630   0.000000
   32       19.817258   0.000000
   33       20.626105   0.000000
   34       23.684369   0.000000
   35       24.513334   0.000000
   36       26.249209   0.000000
   37       26.647862   0.000000
   38       28.229801   0.000000
   39       29.599302   0.000000
   40       30.119902   0.000000
 
  0.3636364E+00  0.1818182E+00  0.0000000E+00  0.1803156E-01
    1       -0.980605   1.000000
    2        1.043866   1.000000
    3        1.941140   1.000000
    4        2.026387   1.000000
    5        2.348103   1.000000
    6        2.352820   1.000000
    7        2.432962   1.000000
    8        3.073036   1.000000
    9        3.391452   1.000000
   10        3.584280   1.000000
   11        3.841277   1.000000
   12        3.947216   1.000000
   13        4.219458   1.000002
   14        4.529154   1.006797
   15        4.896796   0.674256
   16        4.984426   0.313182
   17        5.091593   0.020047
   18        5.135793  -0.023381
   19        5.212765  -0.032849
   20        5.655331  -0.000003
   21        5.666132  -0.000002
   22        6.060704  -0.000000
   23        9.340897  -0.000000
   24       11.921754   0.000000
   25       12.246143   0.000000
   26       15.511204   0.000000
   27       15.578504   0.000000
   28       16.838123   0.000000
   29       18.125078   0.000000
   30       19.664392   0.000000
   31       19.966700   0.000000
   32       19.997324   0.000000
   33       21.694860   0.000000
   34       22.623764   0.000000
   35       23.229769   0.000000
   36       27.035468   0.000000
   37       27.998935   0.000000
   38       28.504449   0.000000
   39       28.940373   0.000000
   40       30.308333   0.000000
 
  0.4545455E+00  0.1818182E+00  0.0000000E+00  0.1803156E-01
    1       -0.252736   1.000000
    2        0.477173   1.000000
    3        2.174778   1.000000
    4        2.215889   1.000000
    5        2.585095   1.000000
    6        2.585098   1.000000
    7        2.755354   1.000000
    8        2.832291   1.000000
    9        2.938163   1.000000
   10        3.142996   1.000000
   11        3.759729   1.000000
   12        3.848683   1.000000
   13        4.478172   1.002655
   14        4.639156   1.027686
   15        4.764306   1.006532
   16        4.775739   0.994105
   17        4.798346   0.961013
   18        4.872202   0.765934
   19        5.413240  -0.002019
   20        5.654515  -0.000003
   21        5.656546  -0.000002
   22        5.670683  -0.000001
   23       10.242144  -0.000000
   24       11.199919   0.000000
   25       13.066747   0.000000
   26       14.291779   0.000000
   27       15.834046   0.000000
   28       16.289209   0.000000
   29       18.577050   0.000000
   30       19.239768   0.000000
   31       20.588439   0.000000
   32       20.972417   0.000000
   33       21.587039   0.000000
   34       22.053299   0.000000
   35       23.960596   0.000000
   36       26.272933   0.000000
   37       27.557245   0.000000
   38       28.207767   0.000000
   39       30.135529   0.000000
   40       31.322678   0.000000
 
  0.2727273E+00  0.2727273E+00  0.0000000E+00  0.9015778E-02
    1       -1.154379   1.000000
    2        1.614028   1.000000
    3        1.614028   1.000000
    4        1.970335   1.000000
    5        2.258642   1.000000
    6        2.311200   1.000000
    7        2.311200   1.000000
    8        3.199556   1.000000
    9        3.634078   1.000000
   10        3.634078   1.000000
   11        3.787122   1.000000
   12        3.911388   1.000000
   13        4.105208   1.000000
   14        4.523176   1.006140
   15        4.954393   0.435087
   16        5.139660  -0.025465
   17        5.139660  -0.025465
   18        5.201618  -0.034394
   19        5.396225  -0.002853
   20        5.396225  -0.002853
   21        5.558696  -0.000053
   22        7.425877  -0.000000
   23        7.425877  -0.000000
   24       11.681410   0.000000
   25       12.051927   0.000000
   26       15.474515   0.000000
   27       17.516078   0.000000
   28       17.516078   0.000000
   29       18.200182   0.000000
   30       18.200182   0.000000
   31       19.772906   0.000000
   32       19.772906   0.000000
   33       22.000654   0.000000
   34       22.464865   0.000000
   35       23.149115   0.000000
   36       25.734626   0.000000
   37       28.536343   0.000000
   38       28.536343   0.000000
   39       30.633959   0.000000
   40       31.196795   0.000000
 
  0.3636364E+00  0.2727273E+00  0.0000000E+00  0.1803156E-01
    1       -0.558125   1.000000
    2        1.361210   1.000000
    3        1.954754   1.000000
    4        2.213181   1.000000
    5        2.369067   1.000000
    6        2.479864   1.000000
    7        2.529449   1.000000
    8        3.056338   1.000000
    9        3.188366   1.000000
   10        3.459932   1.000000
   11        3.471767   1.000000
   12        3.843092   1.000000
   13        4.271251   1.000012
   14        4.473710   1.002427
   15        4.785393   0.981414
   16        4.914363   0.603385
   17        4.963683   0.396445
   18        5.093820   0.016882
   19        5.397169  -0.002800
   20        5.431645  -0.001363
   21        5.472760  -0.000527
   22        6.631013  -0.000000
   23        8.172223  -0.000000
   24       10.867885   0.000000
   25       12.651044   0.000000
   26       15.748023   0.000000
   27       16.194885   0.000000
   28       17.400294   0.000000
   29       18.299925   0.000000
   30       18.969626   0.000000
   31       20.149835   0.000000
   32       21.311207   0.000000
   33       21.913177   0.000000
   34       21.986607   0.000000
   35       22.088289   0.000000
   36       26.757251   0.000000
   37       28.972471   0.000000
   38       29.228865   0.000000
   39       30.641216   0.000000
   40       30.690944   0.000000
 
  0.4545455E+00  0.2727273E+00  0.0000000E+00  0.1803156E-01
    1        0.131022   1.000000
    2        0.821186   1.000000
    3        2.250788   1.000000
    4        2.397056   1.000000
    5        2.488127   1.000000
    6        2.672907   1.000000
    7        2.802721   1.000000
    8        2.808477   1.000000
    9        2.872406   1.000000
   10        3.119920   1.000000
   11        3.522305   1.000000
   12        3.690393   1.000000
   13        4.504961   1.004440
   14        4.549238   1.009399
   15        4.682695   1.034998
   16        4.732268   1.028278
   17        4.738501   1.025385
   18        4.786884   0.979267
   19        5.404829  -0.002401
   20        5.426422  -0.001527
   21        5.720211  -0.000000
   22        6.093333  -0.000000
   23        8.968841  -0.000000
   24        9.851006  -0.000000
   25       13.743241   0.000000
   26       14.931268   0.000000
   27       16.150404   0.000000
   28       16.699732   0.000000
   29       19.212708   0.000000
   30       19.828461   0.000000
   31       20.222977   0.000000
   32       20.728172   0.000000
   33       20.808218   0.000000
   34       21.433077   0.000000
   35       24.371843   0.000000
   36       26.818707   0.000000
   37       28.776811   0.000000
   38       29.524194   0.000000
   39       30.150562   0.000000
   40       31.014849   0.000000
 
  0.3636364E+00  0.3636364E+00  0.0000000E+00  0.9015778E-02
    1       -0.008155   1.000000
    2        1.729271   1.000000
    3        1.729271   1.000000
    4        2.295978   1.000000
    5        2.512953   1.000000
    6        2.650445   1.000000
    7        2.650445   1.000000
    8        3.001306   1.000000
    9        3.164166   1.000000
   10        3.164166   1.000000
   11        3.284114   1.000000
   12        3.736579   1.000000
   13        4.385813   1.000325
   14        4.391324   1.000374
   15        4.645048   1.028976
   16        4.758981   1.011415
   17        4.758981   1.011415
   18        5.105353   0.002268
   19        5.105353   0.002268
   20        5.309831  -0.012439
   21        5.735923  -0.000000
   22        7.248873  -0.000000
   23        7.248873  -0.000000
   24        9.694782  -0.000000
   25       13.557940   0.000000
   26       16.098626   0.000000
   27       16.986629   0.000000
   28       16.986629   0.000000
   29       18.026535   0.000000
   30       18.026535   0.000000
   31       20.087086   0.000000
   32       20.726691   0.000000
   33       22.452932   0.000000
   34       22.452932   0.000000
   35       23.812426   0.000000
   36       26.146083   0.000000
   37       29.414163   0.000000
   38       30.654333   0.000000
   39       31.099362   0.000000
   40       31.099362   0.000000
 
  0.4545455E+00  0.3636364E+00  0.0000000E+00  0.1803156E-01
    1        0.617363   1.000000
    2        1.236690   1.000000
    3        2.055943   1.000000
    4        2.246429   1.000000
    5        2.718578   1.000000
    6        2.781710   1.000000
    7        2.854127   1.000000
    8        2.905202   1.000000
    9        2.921420   1.000000
   10        3.073525   1.000000
   11        3.334838   1.000000
   12        3.561617   1.000000
   13        4.412781   1.000632
   14        4.551581   1.009744
   15        4.561314   1.011271
   16        4.572258   1.013169
   17        4.593437   1.017352
   18        4.819788   0.918243
   19        5.135962  -0.023477
   20        5.199395  -0.034632
   21        6.108144  -0.000000
   22        6.584963  -0.000000
   23        7.932350  -0.000000
   24        8.729436  -0.000000
   25       14.599922   0.000000
   26       15.748319   0.000000
   27       16.584758   0.000000
   28       17.224919   0.000000
   29       17.914981   0.000000
   30       18.785173   0.000000
   31       18.953407   0.000000
   32       19.683860   0.000000
   33       23.073753   0.000000
   34       23.766571   0.000000
   35       24.889642   0.000000
   36       27.378793   0.000000
   37       27.573804   0.000000
   38       29.861773   0.000000
   39       30.695273   0.000000
   40       31.279774   0.000000
 
  0.4545455E+00  0.4545455E+00  0.0000000E+00  0.9015778E-02
    1        1.148195   1.000000
    2        1.651412   1.000000
    3        1.651412   1.000000
    4        1.995260   1.000000
    5        2.895995   1.000000
    6        2.895995   1.000000
    7        2.915086   1.000000
    8        2.972137   1.000000
    9        2.997813   1.000000
   10        3.171408   1.000000
   11        3.171408   1.000000
   12        3.403340   1.000000
   13        4.350401   1.000128
   14        4.431346   1.000974
   15        4.431346   1.000974
   16        4.433920   1.001033
   17        4.698772   1.035369
   18        4.891036   0.696634
   19        4.891036   0.696634
   20        5.015928   0.199656
   21        6.569774  -0.000000
   22        7.151927  -0.000000
   23        7.151927  -0.000000
   24        7.844845  -0.000000
   25       15.596480   0.000000
   26       16.706440   0.000000
   27       16.706440   0.000000
   28       17.160878   0.000000
   29       17.779271   0.000000
   30       17.892132   0.000000
   31       17.892132   0.000000
   32       18.710051   0.000000
   33       25.544114   0.000000
   34       25.544114   0.000000
   35       25.924056   0.000000
   36       26.839045   0.000000
   37       27.920300   0.000000
   38       28.245177   0.000000
   39       28.880969   0.000000
   40       28.880969   0.000000
 
  0.9090909E-01  0.9090909E-01  0.9090909E-01  0.6010518E-02
    1       -2.572026   1.000000
    2        1.237503   1.000000
    3        1.237503   1.000000
    4        1.237503   1.000000
    5        1.826369   1.000000
    6        1.826369   1.000000
    7        1.826369   1.000000
    8        3.596112   1.000000
    9        3.767360   1.000000
   10        3.767360   1.000000
   11        4.847993   0.844419
   12        4.847993   0.844419
   13        5.242700  -0.026820
   14        5.242700  -0.026820
   15        5.242700  -0.026820
   16        5.516682  -0.000172
   17        5.516682  -0.000172
   18        5.516682  -0.000172
   19        5.836318  -0.000000
   20        5.836318  -0.000000
   21        5.836318  -0.000000