 vasp.6.2.0 18Jan21 (build Mar 17 2021 09:06:54) complex                        
  
 executed on             LinuxIFC date 2021.09.09  09:04:43
 serial version


--------------------------------------------------------------------------------------------------------


 INCAR:
   ENCUT = 300.000000
   SIGMA = 0.200000
   EDIFF = 1.00e-06
   GGA = PE
   PREC = normal
   IBRION = 1
   ICHARG = 1
   ISIF = 2
   ISMEAR = 1
   KPAR = 1
   NBANDS = 40
   NSW = 0
   NCORE = 1
   LCHARG = .TRUE.

 POTCAR:    PAW_PBE Fe 06Sep2000                  
 POTCAR:    PAW_PBE Fe 06Sep2000                  
   SHA256 =  cd5a22d9368cc8b5cc476bea79732366149640da08ac9009b0e1b7fc627eea28 Fe/POTCAR             
   COPYR  = (c) Copyright 06Sep2000 Georg Kresse                                                    
   COPYR  = This file is part of the software VASP. Any use, copying, and all other rights are regul
   COPYR  = If you do not have a valid VASP license, you may not use, copy or distribute this file. 
   VRHFIN =Fe:  d7 s1                                                                               
   LEXCH  = PE                                                                                      
   EATOM  =   594.3153 eV,   43.6809 Ry                                                             
                                                                                                    
   TITEL  = PAW_PBE Fe 06Sep2000                                                                    
   LULTRA =        F    use ultrasoft PP ?                                                          
   IUNSCR =        1    unscreen: 0-lin 1-nonlin 2-no                                               
   RPACOR =    2.000    partial core radius                                                         
   POMASS =   55.847; ZVAL   =    8.000    mass and valenz                                          
   RCORE  =    2.300    outmost cutoff radius                                                       
   RWIGS  =    2.460; RWIGS  =    1.302    wigner-seitz radius (au A)                               
   ENMAX  =  267.882; ENMIN  =  200.911 eV                                                          
   RCLOC  =    1.701    cutoff for local pot                                                        
   LCOR   =        T    correct aug charges                                                         
   LPAW   =        T    paw PP                                                                      
   EAUG   =  511.368                                                                                
   DEXC   =    0.000                                                                                
   RMAX   =    2.356    core radius for proj-oper                                                   
   RAUG   =    1.300    factor for augmentation sphere                                              
   RDEP   =    2.442    radius for radial grids                                                     
   RDEPT  =    1.890    core radius for aug-charge                                                  
                                                                                                    
   Atomic configuration                                                                             
    9 entries                                                                                       
     n  l   j            E        occ.                                                              
     1  0  0.50     -6993.8440   2.0000                                                             
     2  0  0.50      -814.6047   2.0000                                                             
     2  1  1.50      -693.3689   6.0000                                                             
     3  0  0.50       -89.4732   2.0000                                                             
     3  1  1.50       -55.6373   6.0000                                                             
     3  2  2.50        -3.8151   7.0000                                                             
     4  0  0.50        -4.2551   1.0000                                                             
     4  1  1.50        -3.4015   0.0000                                                             
     4  3  2.50        -1.3606   0.0000                                                             
   Description                                                                                      
     l       E           TYP  RCUT    TYP  RCUT                                                     
     2     -3.8151135     23  2.300                                                                 
     2     -5.1756961     23  2.300                                                                 
     0     -4.2550963     23  2.300                                                                 
     0      7.2035603     23  2.300                                                                 
     1     -2.7211652     23  2.300                                                                 
     1     18.4316424     23  2.300                                                                 
  local pseudopotential read in
  partial core-charges read in
  partial kinetic energy density read in
  atomic valenz-charges read in
  non local Contribution for L=           2  read in
    real space projection operators read in
  non local Contribution for L=           2  read in
    real space projection operators read in
  non local Contribution for L=           0  read in
    real space projection operators read in
  non local Contribution for L=           0  read in
    real space projection operators read in
  non local Contribution for L=           1  read in
    real space projection operators read in
  non local Contribution for L=           1  read in
    real space projection operators read in
    PAW grid and wavefunctions read in
 
   number of l-projection  operators is LMAX  =           6
   number of lm-projection operators is LMMAX =          18
 
  PAW_PBE Fe 06Sep2000                  :
 energy of atom  1       EATOM= -594.3153
 kinetic energy error for atom=    0.0269 (will be added to EATOM!!)
 
 
 POSCAR: Fe
  positions in cartesian coordinates
  No initial velocities read in
 exchange correlation table for  LEXCH =        8
   RHO(1)=    0.500       N(1)  =     2000
   RHO(2)=  100.500       N(2)  =     4000
 


--------------------------------------------------------------------------------------------------------


 ion  position               nearest neighbor table
   1  0.000  0.000  0.000-   2 2.59   3 2.59   4 2.59   3 2.59   4 2.59   2 2.59   4 2.59   4 2.59
                             2 2.59   3 2.59   3 2.59   2 2.59
   2  0.500  0.500  0.000-   1 2.59   3 2.59   4 2.59   3 2.59   4 2.59   1 2.59   3 2.59   3 2.59
                             1 2.59   4 2.59   4 2.59   1 2.59
   3  0.500  0.000  0.500-   1 2.59   2 2.59   4 2.59   1 2.59   2 2.59   2 2.59   4 2.59   2 2.59
                             1 2.59   4 2.59   1 2.59   4 2.59
   4  0.000  0.500  0.500-   1 2.59   2 2.59   3 2.59   1 2.59   2 2.59   1 2.59   3 2.59   1 2.59
                             2 2.59   3 2.59   2 2.59   3 2.59
 
  LATTYP: Found a simple cubic cell.
 ALAT       =     3.6609469715
  
  Lattice vectors:
  
 A1 = (   3.6609469715,   0.0000000000,   0.0000000000)
 A2 = (   0.0000000000,   3.6609469715,   0.0000000000)
 A3 = (   0.0000000000,   0.0000000000,   3.6609469715)


Analysis of symmetry for initial positions (statically):
=====================================================================
 Subroutine PRICEL returns following result:
 
  LATTYP: Found a face centered cubic cell.
 ALAT       =     3.6609469715
  
  Lattice vectors:
  
 A1 = (   1.8304734857,  -1.8304734857,   0.0000000000)
 A2 = (   1.8304734857,   0.0000000000,   1.8304734857)
 A3 = (   0.0000000000,  -1.8304734857,   1.8304734857)
 
   4 primitive cells build up your supercell.
 

 Routine SETGRP: Setting up the symmetry group for a 
 simple cubic supercell.


 Subroutine GETGRP returns: Found 48 space group operations
 (whereof 48 operations were pure point group operations)
 out of a pool of 48 trial point group operations.


The static configuration has the point symmetry O_h .


Analysis of symmetry for dynamics (positions and initial velocities):
=====================================================================
 Subroutine PRICEL returns following result:
 
  LATTYP: Found a face centered cubic cell.
 ALAT       =     3.6609469715
  
  Lattice vectors:
  
 A1 = (   1.8304734857,  -1.8304734857,   0.0000000000)
 A2 = (   1.8304734857,   0.0000000000,   1.8304734857)
 A3 = (   0.0000000000,  -1.8304734857,   1.8304734857)
 
   4 primitive cells build up your supercell.
 

 Routine SETGRP: Setting up the symmetry group for a 
 simple cubic supercell.


 Subroutine GETGRP returns: Found 48 space group operations
 (whereof 48 operations were pure point group operations)
 out of a pool of 48 trial point group operations.


The dynamic configuration has the point symmetry O_h .


 Subroutine INISYM returns: Found 48 space group operations
 (whereof 48 operations are pure point group operations),
 and found     4 'primitive' translations


----------------------------------------------------------------------------------------

                                     Primitive cell                                     

  volume of cell :      12.2665

  direct lattice vectors                    reciprocal lattice vectors
     1.830473486 -1.830473486  0.000000000     0.273153369 -0.273153369 -0.273153369
     1.830473486  0.000000000  1.830473486     0.273153369  0.273153369  0.273153369
     0.000000000 -1.830473486  1.830473486    -0.273153369 -0.273153369  0.273153369

  length of vectors
     2.588680429  2.588680429  2.588680429     0.473115514  0.473115514  0.473115514

  position of ions in fractional coordinates (direct lattice)
     0.000000000  0.000000000  0.000000000

  ion indices of the primitive-cell ions
   primitive index   ion index
                 1           1

----------------------------------------------------------------------------------------

 
 
 KPOINTS: KPOINTS created by Atomic Simulation Env

Automatic generation of k-mesh.
 Grid dimensions read from file:
 generate k-points for:   11   11   11

 Generating k-lattice:

  Cartesian coordinates                     Fractional coordinates (reciprocal lattice)
     0.024832124  0.000000000  0.000000000     0.090909091  0.000000000  0.000000000
     0.000000000  0.024832124  0.000000000     0.000000000  0.090909091  0.000000000
     0.000000000  0.000000000  0.024832124     0.000000000  0.000000000  0.090909091

  Length of vectors
     0.024832124  0.024832124  0.024832124

  Shift w.r.t. Gamma in fractional coordinates (k-lattice)
     0.000000000  0.000000000  0.000000000

 
 Subroutine IBZKPT returns following result:
 ===========================================
 
 Found     56 irreducible k-points:
 
 Following reciprocal coordinates:
            Coordinates               Weight
  0.000000  0.000000  0.000000      1.000000
  0.090909  0.000000  0.000000      6.000000
  0.181818  0.000000  0.000000      6.000000
  0.272727  0.000000  0.000000      6.000000
  0.363636  0.000000  0.000000      6.000000
  0.454545  0.000000  0.000000      6.000000
  0.090909  0.090909  0.000000     12.000000
  0.181818  0.090909  0.000000     24.000000
  0.272727  0.090909  0.000000     24.000000
  0.363636  0.090909  0.000000     24.000000
  0.454545  0.090909  0.000000     24.000000
  0.181818  0.181818  0.000000     12.000000
  0.272727  0.181818  0.000000     24.000000
  0.363636  0.181818  0.000000     24.000000
  0.454545  0.181818  0.000000     24.000000
  0.272727  0.272727  0.000000     12.000000
  0.363636  0.272727  0.000000     24.000000
  0.454545  0.272727  0.000000     24.000000
  0.363636  0.363636  0.000000     12.000000
  0.454545  0.363636  0.000000     24.000000
  0.454545  0.454545  0.000000     12.000000
  0.090909  0.090909  0.090909      8.000000
  0.181818  0.090909  0.090909     24.000000
  0.272727  0.090909  0.090909     24.000000
  0.363636  0.090909  0.090909     24.000000
  0.454545  0.090909  0.090909     24.000000
  0.181818  0.181818  0.090909     24.000000
  0.272727  0.181818  0.090909     48.000000
  0.363636  0.181818  0.090909     48.000000
  0.454545  0.181818  0.090909     48.000000
  0.272727  0.272727  0.090909     24.000000
  0.363636  0.272727  0.090909     48.000000
  0.454545  0.272727  0.090909     48.000000
  0.363636  0.363636  0.090909     24.000000
  0.454545  0.363636  0.090909     48.000000
  0.454545  0.454545  0.090909     24.000000
  0.181818  0.181818  0.181818      8.000000
  0.272727  0.181818  0.181818     24.000000
  0.363636  0.181818  0.181818     24.000000
  0.454545  0.181818  0.181818     24.000000
  0.272727  0.272727  0.181818     24.000000
  0.363636  0.272727  0.181818     48.000000
  0.454545  0.272727  0.181818     48.000000
  0.363636  0.363636  0.181818     24.000000
  0.454545  0.363636  0.181818     48.000000
  0.454545  0.454545  0.181818     24.000000
  0.272727  0.272727  0.272727      8.000000
  0.363636  0.272727  0.272727     24.000000
  0.454545  0.272727  0.272727     24.000000
  0.363636  0.363636  0.272727     24.000000
  0.454545  0.363636  0.272727     48.000000
  0.454545  0.454545  0.272727     24.000000
  0.363636  0.363636  0.363636      8.000000
  0.454545  0.363636  0.363636     24.000000
  0.454545  0.454545  0.363636     24.000000
  0.454545  0.454545  0.454545      8.000000
 
 Following cartesian coordinates:
            Coordinates               Weight
  0.000000  0.000000  0.000000      1.000000
  0.024832  0.000000  0.000000      6.000000
  0.049664  0.000000  0.000000      6.000000
  0.074496  0.000000  0.000000      6.000000
  0.099328  0.000000  0.000000      6.000000
  0.124161  0.000000  0.000000      6.000000
  0.024832  0.024832  0.000000     12.000000
  0.049664  0.024832  0.000000     24.000000
  0.074496  0.024832  0.000000     24.000000
  0.099328  0.024832  0.000000     24.000000
  0.124161  0.024832  0.000000     24.000000
  0.049664  0.049664  0.000000     12.000000
  0.074496  0.049664  0.000000     24.000000
  0.099328  0.049664  0.000000     24.000000
  0.124161  0.049664  0.000000     24.000000
  0.074496  0.074496  0.000000     12.000000
  0.099328  0.074496  0.000000     24.000000
  0.124161  0.074496  0.000000     24.000000
  0.099328  0.099328  0.000000     12.000000
  0.124161  0.099328  0.000000     24.000000
  0.124161  0.124161  0.000000     12.000000
  0.024832  0.024832  0.024832      8.000000
  0.049664  0.024832  0.024832     24.000000
  0.074496  0.024832  0.024832     24.000000
  0.099328  0.024832  0.024832     24.000000
  0.124161  0.024832  0.024832     24.000000
  0.049664  0.049664  0.024832     24.000000
  0.074496  0.049664  0.024832     48.000000
  0.099328  0.049664  0.024832     48.000000
  0.124161  0.049664  0.024832     48.000000
  0.074496  0.074496  0.024832     24.000000
  0.099328  0.074496  0.024832     48.000000
  0.124161  0.074496  0.024832     48.000000
  0.099328  0.099328  0.024832     24.000000
  0.124161  0.099328  0.024832     48.000000
  0.124161  0.124161  0.024832     24.000000
  0.049664  0.049664  0.049664      8.000000
  0.074496  0.049664  0.049664     24.000000
  0.099328  0.049664  0.049664     24.000000
  0.124161  0.049664  0.049664     24.000000
  0.074496  0.074496  0.049664     24.000000
  0.099328  0.074496  0.049664     48.000000
  0.124161  0.074496  0.049664     48.000000
  0.099328  0.099328  0.049664     24.000000
  0.124161  0.099328  0.049664     48.000000
  0.124161  0.124161  0.049664     24.000000
  0.074496  0.074496  0.074496      8.000000
  0.099328  0.074496  0.074496     24.000000
  0.124161  0.074496  0.074496     24.000000
  0.099328  0.099328  0.074496     24.000000
  0.124161  0.099328  0.074496     48.000000
  0.124161  0.124161  0.074496     24.000000
  0.099328  0.099328  0.099328      8.000000
  0.124161  0.099328  0.099328     24.000000
  0.124161  0.124161  0.099328     24.000000
  0.124161  0.124161  0.124161      8.000000
 


--------------------------------------------------------------------------------------------------------




 Dimension of arrays:
   k-points           NKPTS =     56   k-points in BZ     NKDIM =     56   number of bands    NBANDS=     40
   number of dos      NEDOS =    301   number of ions     NIONS =      4
   non local maximal  LDIM  =      6   non local SUM 2l+1 LMDIM =     18
   total plane-waves  NPLWV =   4096
   max r-space proj   IRMAX =      1   max aug-charges    IRDMAX=   3173
   dimension x,y,z NGX =    16 NGY =   16 NGZ =   16
   dimension x,y,z NGXF=    32 NGYF=   32 NGZF=   32
   support grid    NGXF=    32 NGYF=   32 NGZF=   32
   ions per type =               4
   NGX,Y,Z   is equivalent  to a cutoff of   7.27,  7.27,  7.27 a.u.
   NGXF,Y,Z  is equivalent  to a cutoff of  14.53, 14.53, 14.53 a.u.

 SYSTEM =  unknown system                          
 POSCAR =  Fe                                      

 Startparameter for this run:
   NWRITE =      2    write-flag & timer
   PREC   = normal    normal or accurate (medium, high low for compatibility)
   ISTART =      0    job   : 0-new  1-cont  2-samecut
   ICHARG =      1    charge: 1-file 2-atom 10-const
   ISPIN  =      1    spin polarized calculation?
   LNONCOLLINEAR =      F non collinear calculations
   LSORBIT =      F    spin-orbit coupling
   INIWAV =      1    electr: 0-lowe 1-rand  2-diag
   LASPH  =      F    aspherical Exc in radial PAW
   METAGGA=      F    non-selfconsistent MetaGGA calc.

 Electronic Relaxation 1
   ENCUT  =  300.0 eV  22.05 Ry    4.70 a.u.   5.17  5.17  5.17*2*pi/ulx,y,z
   ENINI  =  300.0     initial cutoff
   ENAUG  =  511.4 eV  augmentation charge cutoff
   NELM   =     60;   NELMIN=  2; NELMDL= -5     # of ELM steps 
   EDIFF  = 0.1E-05   stopping-criterion for ELM
   LREAL  =      F    real-space projection
   NLSPLINE    = F    spline interpolate recip. space projectors
   LCOMPAT=      F    compatible to vasp.4.4
   GGA_COMPAT  = T    GGA compatible to vasp.4.4-vasp.4.6
   LMAXPAW     = -100 max onsite density
   LMAXMIX     =    2 max onsite mixed and CHGCAR
   VOSKOWN=      0    Vosko Wilk Nusair interpolation
   ROPT   =    0.00000
 Ionic relaxation
   EDIFFG = 0.1E-04   stopping-criterion for IOM
   NSW    =      0    number of steps for IOM
   NBLOCK =      1;   KBLOCK =      1    inner block; outer block 
   IBRION =     -1    ionic relax: 0-MD 1-quasi-New 2-CG
   NFREE  =      0    steps in history (QN), initial steepest desc. (CG)
   ISIF   =      2    stress and relaxation
   IWAVPR =      0    prediction:  0-non 1-charg 2-wave 3-comb
   ISYM   =      2    0-nonsym 1-usesym 2-fastsym
   LCORR  =      T    Harris-Foulkes like correction to forces

   POTIM  = 0.5000    time-step for ionic-motion
   TEIN   =    0.0    initial temperature
   TEBEG  =    0.0;   TEEND  =   0.0 temperature during run
   SMASS  =  -3.00    Nose mass-parameter (am)
   estimated Nose-frequenzy (Omega)   =  0.10E-29 period in steps = 0.13E+47 mass=  -0.306E-27a.u.
   SCALEE = 1.0000    scale energy and forces
   NPACO  =    256;   APACO  = 16.0  distance and # of slots for P.C.
   PSTRESS=    0.0 pullay stress

  Mass of Ions in am
   POMASS =  55.85
  Ionic Valenz
   ZVAL   =   8.00
  Atomic Wigner-Seitz radii
   RWIGS  =  -1.00
  virtual crystal weights 
   VCA    =   1.00
   NELECT =      32.0000    total number of electrons
   NUPDOWN=      -1.0000    fix difference up-down

 DOS related values:
   EMIN   =  10.00;   EMAX   =-10.00  energy-range for DOS
   EFERMI =   0.00
   ISMEAR =     1;   SIGMA  =   0.20  broadening in eV -4-tet -1-fermi 0-gaus

 Electronic relaxation 2 (details)
   IALGO  =     38    algorithm
   LDIAG  =      T    sub-space diagonalisation (order eigenvalues)
   LSUBROT=      F    optimize rotation matrix (better conditioning)
   TURBO    =      0    0=normal 1=particle mesh
   IRESTART =      0    0=no restart 2=restart with 2 vectors
   NREBOOT  =      0    no. of reboots
   NMIN     =      0    reboot dimension
   EREF     =   0.00    reference energy to select bands
   IMIX   =      4    mixing-type and parameters
     AMIX     =   0.40;   BMIX     =  1.00
     AMIX_MAG =   1.60;   BMIX_MAG =  1.00
     AMIN     =   0.10
     WC   =   100.;   INIMIX=   1;  MIXPRE=   1;  MAXMIX= -45

 Intra band minimization:
   WEIMIN = 0.0000     energy-eigenvalue tresh-hold
   EBREAK =  0.62E-08  absolut break condition
   DEPER  =   0.30     relativ break condition  

   TIME   =   0.40     timestep for ELM

  volume/ion in A,a.u.               =      12.27        82.78
  Fermi-wavevector in a.u.,A,eV,Ry     =   1.419705  2.682853 27.423382  2.015562
  Thomas-Fermi vector in A             =   2.540697
 
 Write flags
   LWAVE        =      T    write WAVECAR
   LDOWNSAMPLE  =      F    k-point downsampling of WAVECAR
   LCHARG       =      T    write CHGCAR
   LVTOT        =      F    write LOCPOT, total local potential
   LVHAR        =      F    write LOCPOT, Hartree potential only
   LELF         =      F    write electronic localiz. function (ELF)
   LORBIT       =      0    0 simple, 1 ext, 2 COOP (PROOUT), +10 PAW based schemes


 Dipole corrections
   LMONO  =      F    monopole corrections only (constant potential shift)
   LDIPOL =      F    correct potential (dipole corrections)
   IDIPOL =      0    1-x, 2-y, 3-z, 4-all directions 
   EPSILON=  1.0000000 bulk dielectric constant

 Exchange correlation treatment:
   GGA     =    PE    GGA type
   LEXCH   =     8    internal setting for exchange type
   VOSKOWN=      0    Vosko Wilk Nusair interpolation
   LHFCALC =     F    Hartree Fock is set to
   LHFONE  =     F    Hartree Fock one center treatment
   AEXX    =    0.0000 exact exchange contribution

 Linear response parameters
   LEPSILON=     F    determine dielectric tensor
   LRPA    =     F    only Hartree local field effects (RPA)
   LNABLA  =     F    use nabla operator in PAW spheres
   LVEL    =     F    velocity operator in full k-point grid
   LINTERFAST=   F  fast interpolation
   KINTER  =     0    interpolate to denser k-point grid
   CSHIFT  =0.1000    complex shift for real part using Kramers Kronig
   OMEGAMAX=  -1.0    maximum frequency
   DEG_THRESHOLD= 0.2000000E-02 threshold for treating states as degnerate
   RTIME   =   -0.100 relaxation time in fs
  (WPLASMAI=    0.000 imaginary part of plasma frequency in eV, 0.658/RTIME)
   DFIELD  = 0.0000000 0.0000000 0.0000000 field for delta impulse in time
 
 Orbital magnetization related:
   ORBITALMAG=     F  switch on orbital magnetization
   LCHIMAG   =     F  perturbation theory with respect to B field
   DQ        =  0.001000  dq finite difference perturbation B field
   LLRAUG    =     F  two centre corrections for induced B field



--------------------------------------------------------------------------------------------------------


 Static calculation
 charge density and potential will be updated during run
 non-spin polarized calculation
 Variant of blocked Davidson
 Davidson routine will perform the subspace rotation
 perform sub-space diagonalisation
    after iterative eigenvector-optimisation
 modified Broyden-mixing scheme, WC =      100.0
 initial mixing is a Kerker type mixing with AMIX =  0.4000 and BMIX =      1.0000
 Hartree-type preconditioning will be used
 using additional bands           24
 reciprocal scheme for non local part
 use partial core corrections
 calculate Harris-corrections to forces 
   (improved forces if not selfconsistent)
 use gradient corrections 
 use of overlap-Matrix (Vanderbilt PP)
 Methfessel and Paxton  Order N= 1 SIGMA  =   0.20


--------------------------------------------------------------------------------------------------------


  energy-cutoff  :      300.00
  volume of cell :       49.07
      direct lattice vectors                 reciprocal lattice vectors
     3.660946971  0.000000000  0.000000000     0.273153369  0.000000000  0.000000000
     0.000000000  3.660946971  0.000000000     0.000000000  0.273153369  0.000000000
     0.000000000  0.000000000  3.660946971     0.000000000  0.000000000  0.273153369

  length of vectors
     3.660946971  3.660946971  3.660946971     0.273153369  0.273153369  0.273153369


 
 k-points in units of 2pi/SCALE and weight: KPOINTS created by Atomic Simulation Env
   0.00000000  0.00000000  0.00000000       0.001
   0.02483212  0.00000000  0.00000000       0.005
   0.04966425  0.00000000  0.00000000       0.005
   0.07449637  0.00000000  0.00000000       0.005
   0.09932850  0.00000000  0.00000000       0.005
   0.12416062  0.00000000  0.00000000       0.005
   0.02483212  0.02483212  0.00000000       0.009
   0.04966425  0.02483212  0.00000000       0.018
   0.07449637  0.02483212  0.00000000       0.018
   0.09932850  0.02483212  0.00000000       0.018
   0.12416062  0.02483212  0.00000000       0.018
   0.04966425  0.04966425  0.00000000       0.009
   0.07449637  0.04966425  0.00000000       0.018
   0.09932850  0.04966425  0.00000000       0.018
   0.12416062  0.04966425  0.00000000       0.018
   0.07449637  0.07449637  0.00000000       0.009
   0.09932850  0.07449637  0.00000000       0.018
   0.12416062  0.07449637  0.00000000       0.018
   0.09932850  0.09932850  0.00000000       0.009
   0.12416062  0.09932850  0.00000000       0.018
   0.12416062  0.12416062  0.00000000       0.009
   0.02483212  0.02483212  0.02483212       0.006
   0.04966425  0.02483212  0.02483212       0.018
   0.07449637  0.02483212  0.02483212       0.018
   0.09932850  0.02483212  0.02483212       0.018
   0.12416062  0.02483212  0.02483212       0.018
   0.04966425  0.04966425  0.02483212       0.018
   0.07449637  0.04966425  0.02483212       0.036
   0.09932850  0.04966425  0.02483212       0.036
   0.12416062  0.04966425  0.02483212       0.036
   0.07449637  0.07449637  0.02483212       0.018
   0.09932850  0.07449637  0.02483212       0.036
   0.12416062  0.07449637  0.02483212       0.036
   0.09932850  0.09932850  0.02483212       0.018
   0.12416062  0.09932850  0.02483212       0.036
   0.12416062  0.12416062  0.02483212       0.018
   0.04966425  0.04966425  0.04966425       0.006
   0.07449637  0.04966425  0.04966425       0.018
   0.09932850  0.04966425  0.04966425       0.018
   0.12416062  0.04966425  0.04966425       0.018
   0.07449637  0.07449637  0.04966425       0.018
   0.09932850  0.07449637  0.04966425       0.036
   0.12416062  0.07449637  0.04966425       0.036
   0.09932850  0.09932850  0.04966425       0.018
   0.12416062  0.09932850  0.04966425       0.036
   0.12416062  0.12416062  0.04966425       0.018
   0.07449637  0.07449637  0.07449637       0.006
   0.09932850  0.07449637  0.07449637       0.018
   0.12416062  0.07449637  0.07449637       0.018
   0.09932850  0.09932850  0.07449637       0.018
   0.12416062  0.09932850  0.07449637       0.036
   0.12416062  0.12416062  0.07449637       0.018
   0.09932850  0.09932850  0.09932850       0.006
   0.12416062  0.09932850  0.09932850       0.018
   0.12416062  0.12416062  0.09932850       0.018
   0.12416062  0.12416062  0.12416062       0.006
 
 k-points in reciprocal lattice and weights: KPOINTS created by Atomic Simulation Env
   0.00000000  0.00000000  0.00000000       0.001
   0.09090909  0.00000000  0.00000000       0.005
   0.18181818  0.00000000  0.00000000       0.005
   0.27272727  0.00000000  0.00000000       0.005
   0.36363636  0.00000000  0.00000000       0.005
   0.45454545  0.00000000  0.00000000       0.005
   0.09090909  0.09090909  0.00000000       0.009
   0.18181818  0.09090909  0.00000000       0.018
   0.27272727  0.09090909  0.00000000       0.018
   0.36363636  0.09090909  0.00000000       0.018
   0.45454545  0.09090909  0.00000000       0.018
   0.18181818  0.18181818  0.00000000       0.009
   0.27272727  0.18181818  0.00000000       0.018
   0.36363636  0.18181818  0.00000000       0.018
   0.45454545  0.18181818  0.00000000       0.018
   0.27272727  0.27272727  0.00000000       0.009
   0.36363636  0.27272727  0.00000000       0.018
   0.45454545  0.27272727  0.00000000       0.018
   0.36363636  0.36363636  0.00000000       0.009
   0.45454545  0.36363636  0.00000000       0.018
   0.45454545  0.45454545  0.00000000       0.009
   0.09090909  0.09090909  0.09090909       0.006
   0.18181818  0.09090909  0.09090909       0.018
   0.27272727  0.09090909  0.09090909       0.018
   0.36363636  0.09090909  0.09090909       0.018
   0.45454545  0.09090909  0.09090909       0.018
   0.18181818  0.18181818  0.09090909       0.018
   0.27272727  0.18181818  0.09090909       0.036
   0.36363636  0.18181818  0.09090909       0.036
   0.45454545  0.18181818  0.09090909       0.036
   0.27272727  0.27272727  0.09090909       0.018
   0.36363636  0.27272727  0.09090909       0.036
   0.45454545  0.27272727  0.09090909       0.036
   0.36363636  0.36363636  0.09090909       0.018
   0.45454545  0.36363636  0.09090909       0.036
   0.45454545  0.45454545  0.09090909       0.018
   0.18181818  0.18181818  0.18181818       0.006
   0.27272727  0.18181818  0.18181818       0.018
   0.36363636  0.18181818  0.18181818       0.018
   0.45454545  0.18181818  0.18181818       0.018
   0.27272727  0.27272727  0.18181818       0.018
   0.36363636  0.27272727  0.18181818       0.036
   0.45454545  0.27272727  0.18181818       0.036
   0.36363636  0.36363636  0.18181818       0.018
   0.45454545  0.36363636  0.18181818       0.036
   0.45454545  0.45454545  0.18181818       0.018
   0.27272727  0.27272727  0.27272727       0.006
   0.36363636  0.27272727  0.27272727       0.018
   0.45454545  0.27272727  0.27272727       0.018
   0.36363636  0.36363636  0.27272727       0.018
   0.45454545  0.36363636  0.27272727       0.036
   0.45454545  0.45454545  0.27272727       0.018
   0.36363636  0.36363636  0.36363636       0.006
   0.45454545  0.36363636  0.36363636       0.018
   0.45454545  0.45454545  0.36363636       0.018
   0.45454545  0.45454545  0.45454545       0.006
 
 position of ions in fractional coordinates (direct lattice) 
   0.00000000  0.00000000  0.00000000
   0.50000000  0.50000000  0.00000000
   0.50000000  0.00000000  0.50000000
   0.00000000  0.50000000  0.50000000
 
 position of ions in cartesian coordinates  (Angst):
   0.00000000  0.00000000  0.00000000
   1.83047349  1.83047349  0.00000000
   1.83047349  0.00000000  1.83047349
   0.00000000  1.83047349  1.83047349
 


--------------------------------------------------------------------------------------------------------


 k-point   1 :   0.0000 0.0000 0.0000  plane waves:     587
 k-point   2 :   0.0909 0.0000 0.0000  plane waves:     583
 k-point   3 :   0.1818 0.0000 0.0000  plane waves:     582
 k-point   4 :   0.2727 0.0000 0.0000  plane waves:     582
 k-point   5 :   0.3636 0.0000 0.0000  plane waves:     578
 k-point   6 :   0.4545 0.0000 0.0000  plane waves:     586
 k-point   7 :   0.0909 0.0909 0.0000  plane waves:     579
 k-point   8 :   0.1818 0.0909 0.0000  plane waves:     573
 k-point   9 :   0.2727 0.0909 0.0000  plane waves:     581
 k-point  10 :   0.3636 0.0909 0.0000  plane waves:     582
 k-point  11 :   0.4545 0.0909 0.0000  plane waves:     584
 k-point  12 :   0.1818 0.1818 0.0000  plane waves:     573
 k-point  13 :   0.2727 0.1818 0.0000  plane waves:     577
 k-point  14 :   0.3636 0.1818 0.0000  plane waves:     577
 k-point  15 :   0.4545 0.1818 0.0000  plane waves:     585
 k-point  16 :   0.2727 0.2727 0.0000  plane waves:     577
 k-point  17 :   0.3636 0.2727 0.0000  plane waves:     574
 k-point  18 :   0.4545 0.2727 0.0000  plane waves:     574
 k-point  19 :   0.3636 0.3636 0.0000  plane waves:     572
 k-point  20 :   0.4545 0.3636 0.0000  plane waves:     574
 k-point  21 :   0.4545 0.4545 0.0000  plane waves:     566
 k-point  22 :   0.0909 0.0909 0.0909  plane waves:     579
 k-point  23 :   0.1818 0.0909 0.0909  plane waves:     573
 k-point  24 :   0.2727 0.0909 0.0909  plane waves:     575
 k-point  25 :   0.3636 0.0909 0.0909  plane waves:     581
 k-point  26 :   0.4545 0.0909 0.0909  plane waves:     580
 k-point  27 :   0.1818 0.1818 0.0909  plane waves:     576
 k-point  28 :   0.2727 0.1818 0.0909  plane waves:     574
 k-point  29 :   0.3636 0.1818 0.0909  plane waves:     578
 k-point  30 :   0.4545 0.1818 0.0909  plane waves:     578
 k-point  31 :   0.2727 0.2727 0.0909  plane waves:     577
 k-point  32 :   0.3636 0.2727 0.0909  plane waves:     579
 k-point  33 :   0.4545 0.2727 0.0909  plane waves:     580
 k-point  34 :   0.3636 0.3636 0.0909  plane waves:     580
 k-point  35 :   0.4545 0.3636 0.0909  plane waves:     578
 k-point  36 :   0.4545 0.4545 0.0909  plane waves:     580
 k-point  37 :   0.1818 0.1818 0.1818  plane waves:     573
 k-point  38 :   0.2727 0.1818 0.1818  plane waves:     577
 k-point  39 :   0.3636 0.1818 0.1818  plane waves:     580
 k-point  40 :   0.4545 0.1818 0.1818  plane waves:     575
 k-point  41 :   0.2727 0.2727 0.1818  plane waves:     583
 k-point  42 :   0.3636 0.2727 0.1818  plane waves:     583
 k-point  43 :   0.4545 0.2727 0.1818  plane waves:     580
 k-point  44 :   0.3636 0.3636 0.1818  plane waves:     582
 k-point  45 :   0.4545 0.3636 0.1818  plane waves:     581
 k-point  46 :   0.4545 0.4545 0.1818  plane waves:     583
 k-point  47 :   0.2727 0.2727 0.2727  plane waves:     585
 k-point  48 :   0.3636 0.2727 0.2727  plane waves:     576
 k-point  49 :   0.4545 0.2727 0.2727  plane waves:     584
 k-point  50 :   0.3636 0.3636 0.2727  plane waves:     581
 k-point  51 :   0.4545 0.3636 0.2727  plane waves:     582
 k-point  52 :   0.4545 0.4545 0.2727  plane waves:     583
 k-point  53 :   0.3636 0.3636 0.3636  plane waves:     585
 k-point  54 :   0.4545 0.3636 0.3636  plane waves:     587
 k-point  55 :   0.4545 0.4545 0.3636  plane waves:     588
 k-point  56 :   0.4545 0.4545 0.4545  plane waves:     588

 maximum number of plane-waves:       588
 maximum index in each direction: 
   IXMAX=    5   IYMAX=    5   IZMAX=    5
   IXMIN=   -5   IYMIN=   -5   IZMIN=   -5


 total amount of memory used by VASP MPI-rank0    60301. kBytes
=======================================================================

   base      :      30000. kBytes
   nonl-proj :       4779. kBytes
   grid      :       1806. kBytes
   one-center:         62. kBytes
   wavefun   :      23654. kBytes
 
     INWAV:  cpu time    0.0000: real time    0.0000
 Broyden mixing: mesh for mixing (old mesh)
   NGX = 11   NGY = 11   NGZ = 11
  (NGX  = 32   NGY  = 32   NGZ  = 32)
  gives a total of   1331 points

 initial charge density was supplied:
 charge density of overlapping atoms calculated
 number of electron      32.0000000 magnetization 
 keeping initial charge density in first step


--------------------------------------------------------------------------------------------------------


 Maximum index for augmentation-charges         2897 (set IRDMAX)


--------------------------------------------------------------------------------------------------------


 First call to EWALD:  gamma=   0.484
 Maximum number of real-space cells 3x 3x 3
 Maximum number of reciprocal cells 3x 3x 3

    FEWALD:  cpu time    0.0009: real time    0.0009


--------------------------------------- Iteration      1(   1)  ---------------------------------------


    POTLOK:  cpu time    0.0074: real time    0.0074
    SETDIJ:  cpu time    0.0041: real time    0.0041
     EDDAV:  cpu time    0.9043: real time    0.9225
       DOS:  cpu time    0.0041: real time    0.0041
    --------------------------------------------
      LOOP:  cpu time    0.9199: real time    0.9382

 eigenvalue-minimisations  :  4776
 total energy-change (2. order) : 0.1591136E+03  (-0.8617975E+03)
 number of electron      32.0000000 magnetization 
 augmentation part       32.0000000 magnetization 

 Free energy of the ion-electron system (eV)
  ---------------------------------------------------
  alpha Z        PSCENC =       225.37424722
  Ewald energy   TEWEN  =     -2308.33525498
  -Hartree energ DENC   =      -470.12201489
  -exchange      EXHF   =         0.00000000
  -V(xc)+E(xc)   XCENC  =        14.77452441
  PAW double counting   =      2219.38341365    -2250.19294531
  entropy T*S    EENTRO =        -0.00106402
  eigenvalues    EBANDS =       351.07920474
  atomic energy  EATOM  =      2377.15350596
  Solvation  Ediel_sol  =         0.00000000
  ---------------------------------------------------
  free energy    TOTEN  =       159.11361679 eV

  energy without entropy =      159.11468081  energy(sigma->0) =      159.11397147


--------------------------------------------------------------------------------------------------------




--------------------------------------- Iteration      1(   2)  ---------------------------------------


     EDDAV:  cpu time    0.8595: real time    0.8595
       DOS:  cpu time    0.0051: real time    0.0051
    --------------------------------------------
      LOOP:  cpu time    0.8645: real time    0.8646

 eigenvalue-minimisations  :  4560
 total energy-change (2. order) :-0.1851546E+03  (-0.1639002E+03)
 number of electron      32.0000000 magnetization 
 augmentation part       32.0000000 magnetization 

 Free energy of the ion-electron system (eV)
  ---------------------------------------------------
  alpha Z        PSCENC =       225.37424722
  Ewald energy   TEWEN  =     -2308.33525498
  -Hartree energ DENC   =      -470.12201489
  -exchange      EXHF   =         0.00000000
  -V(xc)+E(xc)   XCENC  =        14.77452441
  PAW double counting   =      2219.38341365    -2250.19294531
  entropy T*S    EENTRO =        -0.00047227
  eigenvalues    EBANDS =       165.92399977
  atomic energy  EATOM  =      2377.15350596
  Solvation  Ediel_sol  =         0.00000000
  ---------------------------------------------------
  free energy    TOTEN  =       -26.04099643 eV

  energy without entropy =      -26.04052416  energy(sigma->0) =      -26.04083901


--------------------------------------------------------------------------------------------------------




--------------------------------------- Iteration      1(   3)  ---------------------------------------


     EDDAV:  cpu time    0.9387: real time    0.9387
       DOS:  cpu time    0.0054: real time    0.0054
    --------------------------------------------
      LOOP:  cpu time    0.9441: real time    0.9441

 eigenvalue-minimisations  :  5192
 total energy-change (2. order) :-0.1180191E+02  (-0.1049765E+02)
 number of electron      32.0000000 magnetization 
 augmentation part       32.0000000 magnetization 

 Free energy of the ion-electron system (eV)
  ---------------------------------------------------
  alpha Z        PSCENC =       225.37424722
  Ewald energy   TEWEN  =     -2308.33525498
  -Hartree energ DENC   =      -470.12201489
  -exchange      EXHF   =         0.00000000
  -V(xc)+E(xc)   XCENC  =        14.77452441
  PAW double counting   =      2219.38341365    -2250.19294531
  entropy T*S    EENTRO =         0.00705924
  eigenvalues    EBANDS =       154.11455995
  atomic energy  EATOM  =      2377.15350596
  Solvation  Ediel_sol  =         0.00000000
  ---------------------------------------------------
  free energy    TOTEN  =       -37.84290474 eV

  energy without entropy =      -37.84996398  energy(sigma->0) =      -37.84525782


--------------------------------------------------------------------------------------------------------




--------------------------------------- Iteration      1(   4)  ---------------------------------------


     EDDAV:  cpu time    0.8917: real time    0.8917
       DOS:  cpu time    0.0052: real time    0.0052
    --------------------------------------------
      LOOP:  cpu time    0.8969: real time    0.8969

 eigenvalue-minimisations  :  4888
 total energy-change (2. order) :-0.1564459E+00  (-0.1561004E+00)
 number of electron      32.0000000 magnetization 
 augmentation part       32.0000000 magnetization 

 Free energy of the ion-electron system (eV)
  ---------------------------------------------------
  alpha Z        PSCENC =       225.37424722
  Ewald energy   TEWEN  =     -2308.33525498
  -Hartree energ DENC   =      -470.12201489
  -exchange      EXHF   =         0.00000000
  -V(xc)+E(xc)   XCENC  =        14.77452441
  PAW double counting   =      2219.38341365    -2250.19294531
  entropy T*S    EENTRO =         0.00715025
  eigenvalues    EBANDS =       153.95802302
  atomic energy  EATOM  =      2377.15350596
  Solvation  Ediel_sol  =         0.00000000
  ---------------------------------------------------
  free energy    TOTEN  =       -37.99935066 eV

  energy without entropy =      -38.00650091  energy(sigma->0) =      -38.00173408


--------------------------------------------------------------------------------------------------------




--------------------------------------- Iteration      1(   5)  ---------------------------------------


     EDDAV:  cpu time    0.9097: real time    0.9098
       DOS:  cpu time    0.0055: real time    0.0055
    CHARGE:  cpu time    0.0480: real time    0.0480
    MIXING:  cpu time    0.0003: real time    0.0003
    --------------------------------------------
      LOOP:  cpu time    0.9634: real time    0.9635

 eigenvalue-minimisations  :  5032
 total energy-change (2. order) :-0.1488952E-02  (-0.1488922E-02)
 number of electron      31.9999385 magnetization 
 augmentation part       13.9404871 magnetization 

 Broyden mixing:
  rms(total) = 0.21070E+01    rms(broyden)= 0.21068E+01
  rms(prec ) = 0.46453E+01
  weight for this iteration     100.00

 Free energy of the ion-electron system (eV)
  ---------------------------------------------------
  alpha Z        PSCENC =       225.37424722
  Ewald energy   TEWEN  =     -2308.33525498
  -Hartree energ DENC   =      -470.12201489
  -exchange      EXHF   =         0.00000000
  -V(xc)+E(xc)   XCENC  =        14.77452441
  PAW double counting   =      2219.38341365    -2250.19294531
  entropy T*S    EENTRO =         0.00715081
  eigenvalues    EBANDS =       153.95653351
  atomic energy  EATOM  =      2377.15350596
  Solvation  Ediel_sol  =         0.00000000
  ---------------------------------------------------
  free energy    TOTEN  =       -38.00083961 eV

  energy without entropy =      -38.00799042  energy(sigma->0) =      -38.00322321


--------------------------------------------------------------------------------------------------------




--------------------------------------- Iteration      1(   6)  ---------------------------------------


    POTLOK:  cpu time    0.0070: real time    0.0070
    SETDIJ:  cpu time    0.0039: real time    0.0039
     EDDAV:  cpu time    0.9174: real time    0.9174
       DOS:  cpu time    0.0056: real time    0.0056
    CHARGE:  cpu time    0.0473: real time    0.0473
    MIXING:  cpu time    0.0004: real time    0.0004
    --------------------------------------------
      LOOP:  cpu time    0.9815: real time    0.9816

 eigenvalue-minimisations  :  5080
 total energy-change (2. order) : 0.5691179E+01  (-0.1890972E+01)
 number of electron      31.9999278 magnetization 
 augmentation part       17.6071199 magnetization 

 Broyden mixing:
  rms(total) = 0.81917E+00    rms(broyden)= 0.81885E+00
  rms(prec ) = 0.15357E+01
  weight for this iteration     100.00

 eigenvalues of (default mixing * dielectric matrix)
  average eigenvalue GAMMA=   0.7637
  0.7637

 Free energy of the ion-electron system (eV)
  ---------------------------------------------------
  alpha Z        PSCENC =       225.37424722
  Ewald energy   TEWEN  =     -2308.33525498
  -Hartree energ DENC   =      -390.78165306
  -exchange      EXHF   =         0.00000000
  -V(xc)+E(xc)   XCENC  =        10.93005036
  PAW double counting   =      2325.43025813    -2344.52012335
  entropy T*S    EENTRO =         0.00178573
  eigenvalues    EBANDS =        72.43752312
  atomic energy  EATOM  =      2377.15350596
  Solvation  Ediel_sol  =         0.00000000
  ---------------------------------------------------
  free energy    TOTEN  =       -32.30966087 eV

  energy without entropy =      -32.31144660  energy(sigma->0) =      -32.31025611


--------------------------------------------------------------------------------------------------------




--------------------------------------- Iteration      1(   7)  ---------------------------------------


    POTLOK:  cpu time    0.0069: real time    0.0069
    SETDIJ:  cpu time    0.0040: real time    0.0040
     EDDAV:  cpu time    0.9614: real time    0.9615
       DOS:  cpu time    0.0054: real time    0.0054
    CHARGE:  cpu time    0.0480: real time    0.0480
    MIXING:  cpu time    0.0004: real time    0.0004
    --------------------------------------------
      LOOP:  cpu time    1.0261: real time    1.0261

 eigenvalue-minimisations  :  5400
 total energy-change (2. order) : 0.9380623E+00  (-0.2524197E+00)
 number of electron      31.9999313 magnetization 
 augmentation part       16.4244873 magnetization 

 Broyden mixing:
  rms(total) = 0.13658E+00    rms(broyden)= 0.13648E+00
  rms(prec ) = 0.34121E+00
  weight for this iteration     100.00

 eigenvalues of (default mixing * dielectric matrix)
  average eigenvalue GAMMA=   0.8730
  1.0761  0.6699

 Free energy of the ion-electron system (eV)
  ---------------------------------------------------
  alpha Z        PSCENC =       225.37424722
  Ewald energy   TEWEN  =     -2308.33525498
  -Hartree energ DENC   =      -409.01283403
  -exchange      EXHF   =         0.00000000
  -V(xc)+E(xc)   XCENC  =        11.90163047
  PAW double counting   =      2453.79960548    -2480.99219662
  entropy T*S    EENTRO =         0.00548761
  eigenvalues    EBANDS =        98.73421035
  atomic energy  EATOM  =      2377.15350596
  Solvation  Ediel_sol  =         0.00000000
  ---------------------------------------------------
  free energy    TOTEN  =       -31.37159854 eV

  energy without entropy =      -31.37708615  energy(sigma->0) =      -31.37342775


--------------------------------------------------------------------------------------------------------




--------------------------------------- Iteration      1(   8)  ---------------------------------------


    POTLOK:  cpu time    0.0070: real time    0.0070
    SETDIJ:  cpu time    0.0041: real time    0.0041
     EDDAV:  cpu time    1.0409: real time    1.0409
       DOS:  cpu time    0.0055: real time    0.0055
    CHARGE:  cpu time    0.0482: real time    0.0482
    MIXING:  cpu time    0.0004: real time    0.0004
    --------------------------------------------
      LOOP:  cpu time    1.1060: real time    1.1060

 eigenvalue-minimisations  :  5992
 total energy-change (2. order) : 0.4378365E-01  (-0.1867572E-02)
 number of electron      31.9999312 magnetization 
 augmentation part       16.5042260 magnetization 

 Broyden mixing:
  rms(total) = 0.66330E-01    rms(broyden)= 0.66326E-01
  rms(prec ) = 0.15897E+00
  weight for this iteration     100.00

 eigenvalues of (default mixing * dielectric matrix)
  average eigenvalue GAMMA=   1.4125
  0.6937  1.0552  2.4884

 Free energy of the ion-electron system (eV)
  ---------------------------------------------------
  alpha Z        PSCENC =       225.37424722
  Ewald energy   TEWEN  =     -2308.33525498
  -Hartree energ DENC   =      -404.81237264
  -exchange      EXHF   =         0.00000000
  -V(xc)+E(xc)   XCENC  =        11.73955814
  PAW double counting   =      2519.72646770    -2549.06833988
  entropy T*S    EENTRO =         0.00474802
  eigenvalues    EBANDS =        96.88962557
  atomic energy  EATOM  =      2377.15350596
  Solvation  Ediel_sol  =         0.00000000
  ---------------------------------------------------
  free energy    TOTEN  =       -31.32781489 eV

  energy without entropy =      -31.33256291  energy(sigma->0) =      -31.32939756


--------------------------------------------------------------------------------------------------------




--------------------------------------- Iteration      1(   9)  ---------------------------------------


    POTLOK:  cpu time    0.0070: real time    0.0070
    SETDIJ:  cpu time    0.0040: real time    0.0040
     EDDAV:  cpu time    1.0687: real time    1.0687
       DOS:  cpu time    0.0056: real time    0.0056
    CHARGE:  cpu time    0.0479: real time    0.0479
    MIXING:  cpu time    0.0004: real time    0.0004
    --------------------------------------------
      LOOP:  cpu time    1.1337: real time    1.1337

 eigenvalue-minimisations  :  6176
 total energy-change (2. order) : 0.1902825E-01  (-0.2746139E-03)
 number of electron      31.9999310 magnetization 
 augmentation part       16.5544677 magnetization 

 Broyden mixing:
  rms(total) = 0.11767E-01    rms(broyden)= 0.11765E-01
  rms(prec ) = 0.16055E-01
  weight for this iteration     100.00

 eigenvalues of (default mixing * dielectric matrix)
  average eigenvalue GAMMA=   1.3149
  2.4121  0.6936  1.2111  0.9428

 Free energy of the ion-electron system (eV)
  ---------------------------------------------------
  alpha Z        PSCENC =       225.37424722
  Ewald energy   TEWEN  =     -2308.33525498
  -Hartree energ DENC   =      -400.17798566
  -exchange      EXHF   =         0.00000000
  -V(xc)+E(xc)   XCENC  =        11.58271918
  PAW double counting   =      2617.16078755    -2649.83962071
  entropy T*S    EENTRO =         0.00413951
  eigenvalues    EBANDS =        95.76867529
  atomic energy  EATOM  =      2377.15350596
  Solvation  Ediel_sol  =         0.00000000
  ---------------------------------------------------
  free energy    TOTEN  =       -31.30878664 eV

  energy without entropy =      -31.31292615  energy(sigma->0) =      -31.31016648


--------------------------------------------------------------------------------------------------------




--------------------------------------- Iteration      1(  10)  ---------------------------------------


    POTLOK:  cpu time    0.0069: real time    0.0069
    SETDIJ:  cpu time    0.0040: real time    0.0040
     EDDAV:  cpu time    0.8934: real time    0.8935
       DOS:  cpu time    0.0057: real time    0.0057
    CHARGE:  cpu time    0.0489: real time    0.0489
    MIXING:  cpu time    0.0004: real time    0.0004
    --------------------------------------------
      LOOP:  cpu time    0.9592: real time    0.9593

 eigenvalue-minimisations  :  4864
 total energy-change (2. order) :-0.7807759E-04  (-0.1014661E-03)
 number of electron      31.9999310 magnetization 
 augmentation part       16.5475719 magnetization 

 Broyden mixing:
  rms(total) = 0.65939E-02    rms(broyden)= 0.65939E-02
  rms(prec ) = 0.68460E-02
  weight for this iteration     100.00

 eigenvalues of (default mixing * dielectric matrix)
  average eigenvalue GAMMA=   1.6938
  2.8817  2.8817  1.0871  0.9221  0.6960

 Free energy of the ion-electron system (eV)
  ---------------------------------------------------
  alpha Z        PSCENC =       225.37424722
  Ewald energy   TEWEN  =     -2308.33525498
  -Hartree energ DENC   =      -400.44441763
  -exchange      EXHF   =         0.00000000
  -V(xc)+E(xc)   XCENC  =        11.59387741
  PAW double counting   =      2614.58101731    -2647.10981126
  entropy T*S    EENTRO =         0.00418507
  eigenvalues    EBANDS =        95.87378618
  atomic energy  EATOM  =      2377.15350596
  Solvation  Ediel_sol  =         0.00000000
  ---------------------------------------------------
  free energy    TOTEN  =       -31.30886472 eV

  energy without entropy =      -31.31304979  energy(sigma->0) =      -31.31025974


--------------------------------------------------------------------------------------------------------




--------------------------------------- Iteration      1(  11)  ---------------------------------------


    POTLOK:  cpu time    0.0071: real time    0.0071
    SETDIJ:  cpu time    0.0041: real time    0.0041
     EDDAV:  cpu time    0.9413: real time    0.9414
       DOS:  cpu time    0.0058: real time    0.0057
    CHARGE:  cpu time    0.0479: real time    0.0479
    MIXING:  cpu time    0.0004: real time    0.0004
    --------------------------------------------
      LOOP:  cpu time    1.0066: real time    1.0066

 eigenvalue-minimisations  :  5128
 total energy-change (2. order) :-0.1537203E-04  (-0.3051529E-05)
 number of electron      31.9999310 magnetization 
 augmentation part       16.5516546 magnetization 

 Broyden mixing:
  rms(total) = 0.25883E-02    rms(broyden)= 0.25879E-02
  rms(prec ) = 0.31209E-02
  weight for this iteration     100.00

 eigenvalues of (default mixing * dielectric matrix)
  average eigenvalue GAMMA=   1.4788
  2.5697  2.5697  0.6970  1.1493  1.0235  0.8637

 Free energy of the ion-electron system (eV)
  ---------------------------------------------------
  alpha Z        PSCENC =       225.37424722
  Ewald energy   TEWEN  =     -2308.33525498
  -Hartree energ DENC   =      -400.60625414
  -exchange      EXHF   =         0.00000000
  -V(xc)+E(xc)   XCENC  =        11.59910205
  PAW double counting   =      2612.78379547    -2645.06633281
  entropy T*S    EENTRO =         0.00415164
  eigenvalues    EBANDS =        95.78415949
  atomic energy  EATOM  =      2377.15350596
  Solvation  Ediel_sol  =         0.00000000
  ---------------------------------------------------
  free energy    TOTEN  =       -31.30888009 eV

  energy without entropy =      -31.31303173  energy(sigma->0) =      -31.31026397


--------------------------------------------------------------------------------------------------------




--------------------------------------- Iteration      1(  12)  ---------------------------------------


    POTLOK:  cpu time    0.0070: real time    0.0070
    SETDIJ:  cpu time    0.0041: real time    0.0041
     EDDAV:  cpu time    0.9402: real time    0.9402
       DOS:  cpu time    0.0056: real time    0.0056
    CHARGE:  cpu time    0.0476: real time    0.0476
    MIXING:  cpu time    0.0005: real time    0.0005
    --------------------------------------------
      LOOP:  cpu time    1.0049: real time    1.0050

 eigenvalue-minimisations  :  5208
 total energy-change (2. order) : 0.9649370E-05  (-0.1455718E-05)
 number of electron      31.9999310 magnetization 
 augmentation part       16.5498453 magnetization 

 Broyden mixing:
  rms(total) = 0.37039E-03    rms(broyden)= 0.37031E-03
  rms(prec ) = 0.40675E-03
  weight for this iteration     100.00

 eigenvalues of (default mixing * dielectric matrix)
  average eigenvalue GAMMA=   1.4485
  2.5471  2.5039  1.4803  0.6968  0.9664  0.9664  0.9789

 Free energy of the ion-electron system (eV)
  ---------------------------------------------------
  alpha Z        PSCENC =       225.37424722
  Ewald energy   TEWEN  =     -2308.33525498
  -Hartree energ DENC   =      -400.50924688
  -exchange      EXHF   =         0.00000000
  -V(xc)+E(xc)   XCENC  =        11.59653439
  PAW double counting   =      2615.73369848    -2648.15017198
  entropy T*S    EENTRO =         0.00416313
  eigenvalues    EBANDS =        95.82365422
  atomic energy  EATOM  =      2377.15350596
  Solvation  Ediel_sol  =         0.00000000
  ---------------------------------------------------
  free energy    TOTEN  =       -31.30887044 eV

  energy without entropy =      -31.31303357  energy(sigma->0) =      -31.31025815


--------------------------------------------------------------------------------------------------------




--------------------------------------- Iteration      1(  13)  ---------------------------------------


    POTLOK:  cpu time    0.0071: real time    0.0071
    SETDIJ:  cpu time    0.0041: real time    0.0041
     EDDAV:  cpu time    0.6461: real time    0.6472
       DOS:  cpu time    0.0056: real time    0.0056
    CHARGE:  cpu time    0.0478: real time    0.0478
    MIXING:  cpu time    0.0005: real time    0.0005
    --------------------------------------------
      LOOP:  cpu time    0.7112: real time    0.7122

 eigenvalue-minimisations  :  2856
 total energy-change (2. order) :-0.1721748E-05  (-0.2135259E-07)
 number of electron      31.9999310 magnetization 
 augmentation part       16.5497455 magnetization 

 Broyden mixing:
  rms(total) = 0.73542E-04    rms(broyden)= 0.73360E-04
  rms(prec ) = 0.93003E-04
  weight for this iteration     100.00

 eigenvalues of (default mixing * dielectric matrix)
  average eigenvalue GAMMA=   1.5953
  3.0534  2.4908  2.4908  0.6969  1.1078  1.0844  0.9703  0.8684

 Free energy of the ion-electron system (eV)
  ---------------------------------------------------
  alpha Z        PSCENC =       225.37424722
  Ewald energy   TEWEN  =     -2308.33525498
  -Hartree energ DENC   =      -400.49698138
  -exchange      EXHF   =         0.00000000
  -V(xc)+E(xc)   XCENC  =        11.59611188
  PAW double counting   =      2616.07369171    -2648.50409541
  entropy T*S    EENTRO =         0.00416353
  eigenvalues    EBANDS =        95.82573932
  atomic energy  EATOM  =      2377.15350596
  Solvation  Ediel_sol  =         0.00000000
  ---------------------------------------------------
  free energy    TOTEN  =       -31.30887216 eV

  energy without entropy =      -31.31303569  energy(sigma->0) =      -31.31026000


--------------------------------------------------------------------------------------------------------




--------------------------------------- Iteration      1(  14)  ---------------------------------------


    POTLOK:  cpu time    0.0070: real time    0.0070
    SETDIJ:  cpu time    0.0041: real time    0.0041
     EDDAV:  cpu time    0.6027: real time    0.6027
       DOS:  cpu time    0.0056: real time    0.0056
    --------------------------------------------
      LOOP:  cpu time    0.6193: real time    0.6193

 eigenvalue-minimisations  :  2600
 total energy-change (2. order) :-0.1755734E-06  (-0.4047630E-08)
 number of electron      31.9999310 magnetization 
 augmentation part       16.5497455 magnetization 

 Free energy of the ion-electron system (eV)
  ---------------------------------------------------
  alpha Z        PSCENC =       225.37424722
  Ewald energy   TEWEN  =     -2308.33525498
  -Hartree energ DENC   =      -400.49666443
  -exchange      EXHF   =         0.00000000
  -V(xc)+E(xc)   XCENC  =        11.59606867
  PAW double counting   =      2616.16439987    -2648.59439636
  entropy T*S    EENTRO =         0.00416323
  eigenvalues    EBANDS =        95.82505849
  atomic energy  EATOM  =      2377.15350596
  Solvation  Ediel_sol  =         0.00000000
  ---------------------------------------------------
  free energy    TOTEN  =       -31.30887234 eV

  energy without entropy =      -31.31303557  energy(sigma->0) =      -31.31026008


--------------------------------------------------------------------------------------------------------




 average (electrostatic) potential at core
  the test charge radii are     1.0103
  (the norm of the test charge is              1.0000)
       1 -44.3805       2 -44.3805       3 -44.3805       4 -44.3805
 
 
 
 E-fermi :   4.9390     XC(G=0): -12.7431     alpha+bet :-12.6364

 Fermi energy:         4.9390022625

 k-point     1 :       0.0000    0.0000    0.0000
  band No.  band energies     occupation 
      1      -2.8755      2.00000
      2       1.1090      2.00000
      3       1.1090      2.00000
      4       1.1090      2.00000
      5       1.7151      2.00000
      6       1.7151      2.00000
      7       1.7151      2.00000
      8       3.6921      2.00000
      9       3.6921      2.00000
     10       3.6921      2.00000
     11       4.8813      1.46683
     12       4.8813      1.46683
     13       5.6703     -0.00000
     14       5.6703     -0.00000
     15       5.6703     -0.00000
     16       5.8996     -0.00000
     17       5.8996     -0.00000
     18       5.8996     -0.00000
     19       5.8996     -0.00000
     20       5.8996     -0.00000
     21       5.8996     -0.00000
     22       7.7958     -0.00000
     23       7.7958     -0.00000
     24       7.7958     -0.00000
     25      14.8064      0.00000
     26      14.8064      0.00000
     27      14.8064      0.00000
     28      19.3213      0.00000
     29      19.3213      0.00000
     30      19.3213      0.00000
     31      19.3213      0.00000
     32      19.3213      0.00000
     33      19.3213      0.00000
     34      24.1284      0.00000
     35      24.1284      0.00000
     36      24.1284      0.00000
     37      26.7407      0.00000
     38      27.7048      0.00000
     39      27.7048      0.00000
     40      27.7048      0.00000

 k-point     2 :       0.0909    0.0000    0.0000
  band No.  band energies     occupation 
      1      -2.7736      2.00000
      2       1.1195      2.00000
      3       1.1678      2.00000
      4       1.1678      2.00000
      5       1.7510      2.00000
      6       1.7544      2.00000
      7       1.7544      2.00000
      8       3.6471      2.00000
      9       3.7250      2.00000
     10       3.7250      2.00000
     11       4.8393      1.73871
     12       4.8967      1.34928
     13       5.5605     -0.00010
     14       5.5605     -0.00010
     15       5.6164     -0.00002
     16       5.6164     -0.00002
     17       5.6538     -0.00001
     18       5.8376     -0.00000
     19       5.8376     -0.00000
     20       5.8998     -0.00000
     21       5.8998     -0.00000
     22       7.3373     -0.00000
     23       8.2136     -0.00000
     24       8.2136     -0.00000
     25      14.8209      0.00000
     26      14.8209      0.00000
     27      15.4307      0.00000
     28      18.8053      0.00000
     29      18.8053      0.00000
     30      19.0167      0.00000
     31      19.0167      0.00000
     32      19.4876      0.00000
     33      19.4876      0.00000
     34      24.1519      0.00000
     35      24.7456      0.00000
     36      24.7456      0.00000
     37      26.5952      0.00000
     38      27.7420      0.00000
     39      28.2474      0.00000
     40      28.2474      0.00000

 k-point     3 :       0.1818    0.0000    0.0000
  band No.  band energies     occupation 
      1      -2.4717      2.00000
      2       1.1276      2.00000
      3       1.3345      2.00000
      4       1.3345      2.00000
      5       1.8569      2.00000
      6       1.8726      2.00000
      7       1.8726      2.00000
      8       3.5176      2.00000
      9       3.8232      2.00000
     10       3.8232      2.00000
     11       4.7209      2.06430
     12       4.9248      1.12007
     13       4.9248      1.12007
     14       4.9409      0.98392
     15       5.4610     -0.00140
     16       5.4610     -0.00140
     17       5.6054     -0.00003
     18       5.6607     -0.00000
     19       5.6607     -0.00000
     20       5.9002     -0.00000
     21       5.9002     -0.00000
     22       6.3243     -0.00000
     23       9.0854     -0.00000
     24       9.0854     -0.00000
     25      14.8660      0.00000
     26      14.8660      0.00000
     27      16.9482      0.00000
     28      17.6791      0.00000
     29      17.6791      0.00000
     30      18.3083      0.00000
     31      18.3083      0.00000
     32      19.9727      0.00000
     33      19.9727      0.00000
     34      24.2184      0.00000
     35      26.1751      0.00000
     36      26.1751      0.00000
     37      26.2356      0.00000
     38      27.8638      0.00000
     39      28.8086      0.00000
     40      28.8086      0.00000

 k-point     4 :       0.2727    0.0000    0.0000
  band No.  band energies     occupation 
      1      -1.9829      2.00000
      2       1.0538      2.00000
      3       1.5783      2.00000
      4       1.5783      2.00000
      5       2.0263      2.00000
      6       2.0706      2.00000
      7       2.0706      2.00000
      8       3.3173      2.00000
      9       3.9842      2.00000
     10       3.9842      2.00000
     11       4.2745      2.00003
     12       4.2745      2.00003
     13       4.5442      2.01738
     14       5.0123      0.42315
     15       5.2299     -0.05926
     16       5.2299     -0.05926
     17       5.2706     -0.04081
     18       5.4002     -0.00527
     19       5.4002     -0.00527
     20       5.5296     -0.00024
     21       5.9007     -0.00000
     22       5.9007     -0.00000
     23      10.1259     -0.00000
     24      10.1259     -0.00000
     25      14.9471      0.00000
     26      14.9471      0.00000
     27      16.3757      0.00000
     28      16.3757      0.00000
     29      17.5205      0.00000
     30      17.5205      0.00000
     31      18.8843      0.00000
     32      20.7415      0.00000
     33      20.7415      0.00000
     34      24.3337      0.00000
     35      25.8001      0.00000
     36      27.2783      0.00000
     37      27.2783      0.00000
     38      27.8774      0.00000
     39      27.9888      0.00000
     40      27.9889      0.00000

 k-point     5 :       0.3636    0.0000    0.0000
  band No.  band energies     occupation 
      1      -1.3345      2.00000
      2       0.7614      2.00000
      3       1.8386      2.00000
      4       1.8386      2.00000
      5       2.2487      2.00000
      6       2.3498      2.00000
      7       2.3498      2.00000
      8       3.0667      2.00000
      9       3.6776      2.00000
     10       3.6776      2.00000
     11       4.2030      2.00000
     12       4.2030      2.00000
     13       4.3444      2.00022
     14       4.5092      2.00959
     15       4.9785      0.67318
     16       4.9785      0.67318
     17       5.0934      0.03488
     18       5.0934      0.03488
     19       5.1049      0.00554
     20       5.4332     -0.00263
     21       5.9015     -0.00000
     22       5.9015     -0.00000
     23      11.2614      0.00000
     24      11.2614      0.00000
     25      15.0440      0.00000
     26      15.0440      0.00000
     27      15.0665      0.00000
     28      15.0665      0.00000
     29      16.8563      0.00000
     30      16.8563      0.00000
     31      20.9823      0.00000
     32      21.7505      0.00000
     33      21.7505      0.00000
     34      24.5033      0.00000
     35      25.3815      0.00000
     36      25.7577      0.00000
     37      25.7577      0.00000
     38      26.4817      0.00000
     39      28.5908      0.00000
     40      30.0414      0.00000

 k-point     6 :       0.4545    0.0000    0.0000
  band No.  band energies     occupation 
      1      -0.5797      2.00000
      2       0.1763      2.00000
      3       2.0180      2.00000
      4       2.0180      2.00000
      5       2.5094      2.00000
      6       2.7110      2.00000
      7       2.7110      2.00000
      8       2.7894      2.00000
      9       3.1543      2.00000
     10       3.1543      2.00000
     11       4.1820      2.00000
     12       4.1852      2.00000
     13       4.4707      2.00457
     14       4.4707      2.00457
     15       4.7741      1.99223
     16       4.7741      1.99223
     17       4.8033      1.90433
     18       4.8033      1.90433
     19       5.2116     -0.06608
     20       5.3239     -0.02024
     21       5.9017     -0.00000
     22       5.9017     -0.00000
     23      12.4694      0.00000
     24      12.4694      0.00000
     25      13.7349      0.00000
     26      13.7349      0.00000
     27      15.1821      0.00000
     28      15.1821      0.00000
     29      16.4492      0.00000
     30      16.4492      0.00000
     31      22.9492      0.00000
     32      22.9492      0.00000
     33      23.0474      0.00000
     34      24.2991      0.00000
     35      24.2991      0.00000
     36      24.7223      0.00000
     37      24.9042      0.00000
     38      25.0179      0.00000
     39      29.4246      0.00000
     40      30.7803      0.00000

 k-point     7 :       0.0909    0.0909    0.0000
  band No.  band energies     occupation 
      1      -2.6724      2.00000
      2       1.1794      2.00000
      3       1.1794      2.00000
      4       1.2250      2.00000
      5       1.7895      2.00000
      6       1.7895      2.00000
      7       1.7920      2.00000
      8       3.6207      2.00000
      9       3.7410      2.00000
     10       3.7539      2.00000
     11       4.8273      1.80098
     12       4.8861      1.43059
     13       5.3406     -0.01557
     14       5.4452     -0.00201
     15       5.4452     -0.00201
     16       5.5657     -0.00009
     17       5.6271     -0.00001
     18       5.6271     -0.00001
     19       5.8371     -0.00000
     20       5.8371     -0.00000
     21       5.8608     -0.00000
     22       7.7691     -0.00000
     23       7.7691     -0.00000
     24       8.5524     -0.00000
     25      14.8319      0.00000
     26      15.4563      0.00000
     27      15.4563      0.00000
     28      17.7125      0.00000
     29      18.9593      0.00000
     30      18.9593      0.00000
     31      19.1751      0.00000
     32      19.1751      0.00000
     33      19.6458      0.00000
     34      24.7814      0.00000
     35      24.7814      0.00000
     36      24.8982      0.00000
     37      26.3431      0.00000
     38      28.2877      0.00000
     39      28.2877      0.00000
     40      28.8776      0.00000

 k-point     8 :       0.1818    0.0909    0.0000
  band No.  band energies     occupation 
      1      -2.3727      2.00000
      2       1.1909      2.00000
      3       1.3497      2.00000
      4       1.3878      2.00000
      5       1.8928      2.00000
      6       1.9049      2.00000
      7       1.9051      2.00000
      8       3.5043      2.00000
      9       3.8297      2.00000
     10       3.8386      2.00000
     11       4.7262      2.06111
     12       4.8121      1.86990
     13       4.8137      1.86319
     14       4.9283      1.09044
     15       5.1658     -0.06805
     16       5.4183     -0.00363
     17       5.4661     -0.00124
     18       5.5826     -0.00005
     19       5.6603     -0.00000
     20       5.8369     -0.00000
     21       5.8395     -0.00000
     22       6.8425     -0.00000
     23       8.6071     -0.00000
     24       9.3375     -0.00000
     25      14.8466      0.00000
     26      15.5378      0.00000
     27      16.4509      0.00000
     28      16.9874      0.00000
     29      17.8198      0.00000
     30      18.4522      0.00000
     31      19.4063      0.00000
     32      19.5288      0.00000
     33      19.6413      0.00000
     34      24.8897      0.00000
     35      25.7285      0.00000
     36      25.7547      0.00000
     37      26.2265      0.00000
     38      27.4078      0.00000
     39      28.4230      0.00000
     40      29.2471      0.00000

 k-point     9 :       0.2727    0.0909    0.0000
  band No.  band energies     occupation 
      1      -1.8878      2.00000
      2       1.1221      2.00000
      3       1.5999      2.00000
      4       1.6274      2.00000
      5       2.0581      2.00000
      6       2.0917      2.00000
      7       2.0987      2.00000
      8       3.3125      2.00000
      9       3.9686      2.00000
     10       3.9877      2.00000
     11       4.1742      2.00000
     12       4.2196      2.00000
     13       4.5701      2.02556
     14       4.7153      2.06692
     15       5.0104      0.43620
     16       5.1984     -0.06946
     17       5.2380     -0.05574
     18       5.3995     -0.00535
     19       5.4644     -0.00129
     20       5.8343     -0.00000
     21       5.8365     -0.00000
     22       6.0170     -0.00000
     23       9.5654     -0.00000
     24      10.3282     -0.00000
     25      14.6705      0.00000
     26      15.4699      0.00000
     27      15.6780      0.00000
     28      16.5114      0.00000
     29      17.6589      0.00000
     30      18.8446      0.00000
     31      18.9013      0.00000
     32      20.1031      0.00000
     33      20.4079      0.00000
     34      24.9363      0.00000
     35      25.0782      0.00000
     36      25.9855      0.00000
     37      27.3324      0.00000
     38      28.0477      0.00000
     39      28.2120      0.00000
     40      28.6906      0.00000

 k-point    10 :       0.3636    0.0909    0.0000
  band No.  band energies     occupation 
      1      -1.2447      2.00000
      2       0.8342      2.00000
      3       1.8701      2.00000
      4       1.8880      2.00000
      5       2.2749      2.00000
      6       2.3483      2.00000
      7       2.3711      2.00000
      8       3.0701      2.00000
      9       3.5951      2.00000
     10       3.6550      2.00000
     11       4.0842      2.00000
     12       4.2048      2.00000
     13       4.2446      2.00001
     14       4.4573      2.00345
     15       4.9591      0.83056
     16       4.9881      0.59774
     17       5.0925      0.03741
     18       5.1194     -0.02345
     19       5.2062     -0.06765
     20       5.5839     -0.00005
     21       5.8334     -0.00000
     22       5.8359     -0.00000
     23      10.5790      0.00000
     24      11.4350      0.00000
     25      13.7679      0.00000
     26      15.1818      0.00000
     27      15.3581      0.00000
     28      15.8408      0.00000
     29      17.0433      0.00000
     30      18.0367      0.00000
     31      20.7551      0.00000
     32      20.9914      0.00000
     33      21.6352      0.00000
     34      24.0339      0.00000
     35      24.6298      0.00000
     36      25.3693      0.00000
     37      27.2139      0.00000
     38      27.4858      0.00000
     39      29.1749      0.00000
     40      29.3106      0.00000

 k-point    11 :       0.4545    0.0909    0.0000
  band No.  band energies     occupation 
      1      -0.4963      2.00000
      2       0.2535      2.00000
      3       2.0618      2.00000
      4       2.0693      2.00000
      5       2.5287      2.00000
      6       2.6774      2.00000
      7       2.7226      2.00000
      8       2.8010      2.00000
      9       3.0928      2.00000
     10       3.1521      2.00000
     11       4.0245      2.00000
     12       4.0445      2.00000
     13       4.4714      2.00463
     14       4.5831      2.03048
     15       4.7740      1.99239
     16       4.7966      1.92812
     17       4.8078      1.88730
     18       4.8678      1.56250
     19       5.2476     -0.05138
     20       5.3926     -0.00613
     21       5.8338     -0.00000
     22       5.8350     -0.00000
     23      11.6228      0.00000
     24      12.6245      0.00000
     25      12.6894      0.00000
     26      13.8786      0.00000
     27      15.5629      0.00000
     28      15.8140      0.00000
     29      16.9123      0.00000
     30      17.3372      0.00000
     31      21.9981      0.00000
     32      22.0978      0.00000
     33      23.0381      0.00000
     34      23.3400      0.00000
     35      23.5676      0.00000
     36      25.6099      0.00000
     37      25.7970      0.00000
     38      26.4008      0.00000
     39      29.9825      0.00000
     40      31.2411      0.00000

 k-point    12 :       0.1818    0.1818    0.0000
  band No.  band energies     occupation 
      1      -2.0800      2.00000
      2       1.3718      2.00000
      3       1.3718      2.00000
      4       1.5396      2.00000
      5       2.0007      2.00000
      6       2.0007      2.00000
      7       2.0014      2.00000
      8       3.4338      2.00000
      9       3.8827      2.00000
     10       3.8833      2.00000
     11       4.4955      2.00744
     12       4.5221      2.01206
     13       4.5221      2.01206
     14       4.6902      2.07080
     15       4.9472      0.93064
     16       5.2938     -0.03090
     17       5.4400     -0.00226
     18       5.4400     -0.00226
     19       5.6591     -0.00000
     20       5.6591     -0.00000
     21       5.7458     -0.00000
     22       7.6318     -0.00000
     23       7.6318     -0.00000
     24       9.9890     -0.00000
     25      14.5036      0.00000
     26      15.4097      0.00000
     27      17.0921      0.00000
     28      17.0921      0.00000
     29      18.2269      0.00000
     30      18.2269      0.00000
     31      18.8945      0.00000
     32      18.8945      0.00000
     33      20.5736      0.00000
     34      24.7463      0.00000
     35      25.4348      0.00000
     36      25.9094      0.00000
     37      26.3795      0.00000
     38      26.3795      0.00000
     39      29.7759      0.00000
     40      29.8448      0.00000

 k-point    13 :       0.2727    0.1818    0.0000
  band No.  band energies     occupation 
      1      -1.6070      2.00000
      2       1.3183      2.00000
      3       1.6411      2.00000
      4       1.7661      2.00000
      5       2.1533      2.00000
      6       2.1556      2.00000
      7       2.1808      2.00000
      8       3.2829      2.00000
      9       3.9229      2.00000
     10       3.9399      2.00000
     11       4.0160      2.00000
     12       4.0534      2.00000
     13       4.1452      2.00000
     14       4.5852      2.03130
     15       5.0524      0.19067
     16       5.1041      0.00746
     17       5.2256     -0.06103
     18       5.3364     -0.01668
     19       5.3981     -0.00550
     20       5.6574     -0.00000
     21       5.6906     -0.00000
     22       6.7088     -0.00000
     23       8.4714     -0.00000
     24      10.8806      0.00000
     25      13.3961      0.00000
     26      15.3231      0.00000
     27      16.9044      0.00000
     28      17.1712      0.00000
     29      18.1913      0.00000
     30      18.8119      0.00000
     31      18.8596      0.00000
     32      19.8173      0.00000
     33      20.6261      0.00000
     34      23.6844      0.00000
     35      24.5133      0.00000
     36      26.2492      0.00000
     37      26.6479      0.00000
     38      28.2298      0.00000
     39      29.5993      0.00000
     40      30.1199      0.00000

 k-point    14 :       0.3636    0.1818    0.0000
  band No.  band energies     occupation 
      1      -0.9806      2.00000
      2       1.0439      2.00000
      3       1.9411      2.00000
      4       2.0264      2.00000
      5       2.3481      2.00000
      6       2.3528      2.00000
      7       2.4330      2.00000
      8       3.0730      2.00000
      9       3.3915      2.00000
     10       3.5843      2.00000
     11       3.8413      2.00000
     12       3.9472      2.00000
     13       4.2195      2.00000
     14       4.5292      2.01359
     15       4.8968      1.34851
     16       4.9844      0.62636
     17       5.0916      0.04009
     18       5.1358     -0.04676
     19       5.2128     -0.06570
     20       5.6553     -0.00001
     21       5.6661     -0.00000
     22       6.0607     -0.00000
     23       9.3409     -0.00000
     24      11.9218      0.00000
     25      12.2461      0.00000
     26      15.5112      0.00000
     27      15.5785      0.00000
     28      16.8381      0.00000
     29      18.1251      0.00000
     30      19.6644      0.00000
     31      19.9667      0.00000
     32      19.9973      0.00000
     33      21.6949      0.00000
     34      22.6238      0.00000
     35      23.2298      0.00000
     36      27.0355      0.00000
     37      27.9989      0.00000
     38      28.5044      0.00000
     39      28.9404      0.00000
     40      30.3083      0.00000

 k-point    15 :       0.4545    0.1818    0.0000
  band No.  band energies     occupation 
      1      -0.2527      2.00000
[...]
     40      30.2695      0.00000

 k-point    51 :       0.4545    0.3636    0.2727
  band No.  band energies     occupation 
      1       0.7652      2.00000
      2       1.1464      2.00000
      3       1.5383      2.00000
      4       1.6018      2.00000
      5       3.0918      2.00000
      6       3.1315      2.00000
      7       3.3299      2.00000
      8       3.5192      2.00000
      9       3.6483      2.00000
     10       3.6754      2.00000
     11       3.7396      2.00000
     12       3.7926      2.00000
     13       3.8462      2.00000
     14       3.9451      2.00000
     15       4.0297      2.00000
     16       4.0297      2.00000
     17       5.3473     -0.01396
     18       5.5657     -0.00009
     19       5.6003     -0.00003
     20       5.6027     -0.00003
     21       5.7917     -0.00000
     22       6.3410     -0.00000
     23       7.6476     -0.00000
     24       8.0524     -0.00000
     25      11.8297      0.00000
     26      12.2859      0.00000
     27      13.8566      0.00000
     28      14.7770      0.00000
     29      21.6477      0.00000
     30      22.2756      0.00000
     31      23.8109      0.00000
     32      23.9388      0.00000
     33      24.5207      0.00000
     34      24.7432      0.00000
     35      25.5093      0.00000
     36      27.1162      0.00000
     37      27.5920      0.00000
     38      28.0234      0.00000
     39      28.4644      0.00000
     40      29.2818      0.00000

 k-point    52 :       0.4545    0.4545    0.2727
  band No.  band energies     occupation 
      1       1.0153      2.00000
      2       1.2720      2.00000
      3       1.2720      2.00000
      4       1.4209      2.00000
      5       3.2879      2.00000
      6       3.3877      2.00000
      7       3.3877      2.00000
      8       3.5660      2.00000
      9       3.7858      2.00000
     10       3.8143      2.00000
     11       3.8171      2.00000
     12       3.8171      2.00000
     13       3.8995      2.00000
     14       3.8995      2.00000
     15       3.9020      2.00000
     16       3.9111      2.00000
     17       5.3508     -0.01315
     18       5.4863     -0.00076
     19       5.4863     -0.00076
     20       5.5193     -0.00032
     21       6.1929     -0.00000
     22       6.7853     -0.00000
     23       6.7853     -0.00000
     24       7.3613     -0.00000
     25      12.2325      0.00000
     26      12.9305      0.00000
     27      12.9305      0.00000
     28      13.7667      0.00000
     29      22.3179      0.00000
     30      23.0747      0.00000
     31      23.0747      0.00000
     32      23.8879      0.00000
     33      26.0210      0.00000
     34      26.0210      0.00000
     35      26.6845      0.00000
     36      26.7404      0.00000
     37      27.3568      0.00000
     38      28.3457      0.00000
     39      28.3457      0.00000
     40      28.8052      0.00000

 k-point    53 :       0.3636    0.3636    0.3636
  band No.  band energies     occupation 
      1       0.6081      2.00000
      2       1.4051      2.00000
      3       1.4051      2.00000
      4       1.4051      2.00000
      5       3.2229      2.00000
      6       3.2229      2.00000
      7       3.2229      2.00000
      8       3.7471      2.00000
      9       3.7471      2.00000
     10       3.7874      2.00000
     11       3.8789      2.00000
     12       3.8789      2.00000
     13       3.8789      2.00000
     14       3.9409      2.00000
     15       3.9409      2.00000
     16       3.9409      2.00000
     17       5.4119     -0.00416
     18       5.4119     -0.00416
     19       5.7126     -0.00000
     20       5.7126     -0.00000
     21       5.7126     -0.00000
     22       7.2585     -0.00000
     23       7.2585     -0.00000
     24       7.2585     -0.00000
     25      12.2130      0.00000
     26      12.2130      0.00000
     27      12.2130      0.00000
     28      14.6639      0.00000
     29      23.0548      0.00000
     30      23.0548      0.00000
     31      23.0548      0.00000
     32      25.4918      0.00000
     33      25.4918      0.00000
     34      25.4918      0.00000
     35      25.9624      0.00000
     36      26.6272      0.00000
     37      26.6272      0.00000
     38      26.6272      0.00000
     39      28.8526      0.00000
     40      28.8526      0.00000

 k-point    54 :       0.4545    0.3636    0.3636
  band No.  band energies     occupation 
      1       0.8617      2.00000
      2       1.1274      2.00000
      3       1.3552      2.00000
      4       1.3552      2.00000
      5       3.3215      2.00000
      6       3.3215      2.00000
      7       3.4756      2.00000
      8       3.6551      2.00000
      9       3.7440      2.00000
     10       3.8104      2.00000
     11       3.8577      2.00000
     12       3.8577      2.00000
     13       4.0090      2.00000
     14       4.0185      2.00000
     15       4.0878      2.00000
     16       4.0878      2.00000
     17       5.5845     -0.00005
     18       5.6223     -0.00002
     19       5.6701     -0.00000
     20       5.6701     -0.00000
     21       5.6879     -0.00000
     22       6.2858     -0.00000
     23       7.2757     -0.00000
     24       7.2757     -0.00000
     25      11.7558      0.00000
     26      11.7558      0.00000
     27      12.8400      0.00000
     28      13.6627      0.00000
     29      23.4593      0.00000
     30      23.4593      0.00000
     31      24.6325      0.00000
     32      25.3258      0.00000
     33      25.3258      0.00000
     34      25.5061      0.00000
     35      26.4280      0.00000
     36      27.5527      0.00000
     37      27.5543      0.00000
     38      27.7373      0.00000
     39      27.7373      0.00000
     40      29.0585      0.00000

 k-point    55 :       0.4545    0.4545    0.3636
  band No.  band energies     occupation 
      1       0.9864      2.00000
      2       1.1491      2.00000
      3       1.1491      2.00000
      4       1.2238      2.00000
      5       3.4615      2.00000
      6       3.5146      2.00000
      7       3.5146      2.00000
      8       3.6349      2.00000
      9       3.6954      2.00000
     10       3.7421      2.00000
     11       3.7421      2.00000
     12       3.7576      2.00000
     13       4.3393      2.00019
     14       4.3393      2.00019
     15       4.3521      2.00027
     16       4.3747      2.00049
     17       5.5396     -0.00018
     18       5.6416     -0.00001
     19       5.6416     -0.00001
     20       5.6465     -0.00001
     21       5.8964     -0.00000
     22       6.4542     -0.00000
     23       6.4542     -0.00000
     24       6.8165     -0.00000
     25      11.7288      0.00000
     26      12.1159      0.00000
     27      12.1159      0.00000
     28      12.7695      0.00000
     29      24.1091      0.00000
     30      24.5754      0.00000
     31      24.5754      0.00000
     32      25.2103      0.00000
     33      26.7318      0.00000
     34      26.7318      0.00000
     35      27.0344      0.00000
     36      27.2699      0.00000
     37      27.7002      0.00000
     38      28.1384      0.00000
     39      28.1384      0.00000
     40      29.0147      0.00000

 k-point    56 :       0.4545    0.4545    0.4545
  band No.  band energies     occupation 
      1       1.0052      2.00000
      2       1.0833      2.00000
      3       1.0833      2.00000
      4       1.0833      2.00000
      5       3.5870      2.00000
      6       3.5870      2.00000
      7       3.5870      2.00000
      8       3.6448      2.00000
      9       3.6448      2.00000
     10       3.6662      2.00000
     11       3.6662      2.00000
     12       3.6662      2.00000
     13       4.7998      1.91711
     14       4.7998      1.91711
     15       4.7998      1.91711
     16       4.9380      1.00848
     17       5.6586     -0.00000
     18       5.6586     -0.00000
     19       5.6955     -0.00000
     20       5.6955     -0.00000
     21       5.6955     -0.00000
     22       6.1168     -0.00000
     23       6.1168     -0.00000
     24       6.1168     -0.00000
     25      11.7021      0.00000
     26      11.7021      0.00000
     27      11.7021      0.00000
     28      12.0694      0.00000
     29      25.1558      0.00000
     30      25.1558      0.00000
     31      25.1558      0.00000
     32      25.4743      0.00000
     33      27.9850      0.00000
     34      27.9850      0.00000
     35      27.9850      0.00000
     36      28.0493      0.00000
     37      28.0493      0.00000
     38      28.0493      0.00000
     39      28.7040      0.00000
     40      28.7040      0.00000


--------------------------------------------------------------------------------------------------------


 soft charge-density along one line, spin component           1
         0         1         2         3         4         5         6         7         8         9
x    15.4502    0.0000   -0.0000    0.0000    0.0523    0.0000    0.0000    0.0000   -0.2368   -0.0000
x    -0.0000   -0.0000    0.0446   -0.0000   -0.0000   -0.0000    0.0000    0.0000
y    15.4502    0.0000   -0.0000    0.0000    0.0523    0.0000    0.0000    0.0000   -0.2368   -0.0000
y    -0.0000   -0.0000    0.0446   -0.0000   -0.0000   -0.0000    0.0000    0.0000
z    15.4502    0.0000   -0.0000    0.0000    0.0523    0.0000    0.0000    0.0000   -0.2368   -0.0000
z    -0.0000   -0.0000    0.0446   -0.0000   -0.0000   -0.0000    0.0000    0.0000
 total charge-density along one line
x    31.9999    0.0000    0.0000   -0.0000   10.1223   -0.0000    0.0000   -0.0000    1.4954    0.0000
x    -0.0000    0.0000   -0.0115    0.0000    0.0000    0.0000    0.0185    0.0000   -0.0000   -0.0000
x    -0.0052    0.0000    0.0000   -0.0000    0.0018    0.0000   -0.0000    0.0000   -0.0007   -0.0000
x    -0.0000    0.0000    0.0004    0.0000
y    31.9999    0.0000   -0.0000   -0.0000   10.1223    0.0000   -0.0000   -0.0000    1.4954   -0.0000
y    -0.0000   -0.0000   -0.0115   -0.0000   -0.0000    0.0000    0.0185    0.0000   -0.0000    0.0000
y    -0.0052   -0.0000   -0.0000    0.0000    0.0018   -0.0000    0.0000   -0.0000   -0.0007    0.0000
y     0.0000   -0.0000    0.0004    0.0000
z    31.9999    0.0000    0.0000   -0.0000   10.1223    0.0000    0.0000   -0.0000    1.4954    0.0000
z     0.0000   -0.0000   -0.0115   -0.0000    0.0000    0.0000    0.0185   -0.0000    0.0000    0.0000
z    -0.0052   -0.0000    0.0000   -0.0000    0.0018    0.0000    0.0000   -0.0000   -0.0007    0.0000
z     0.0000   -0.0000    0.0004    0.0000
 
 pseudopotential strength for first ion, spin component:           1
 -5.560   0.000   0.000   0.000  -0.000  -6.093   0.000   0.000
  0.000  -5.560  -0.000  -0.000  -0.000   0.000  -6.093  -0.000
  0.000  -0.000  -5.547  -0.000   0.000   0.000  -0.000  -6.080
  0.000  -0.000  -0.000  -5.560   0.000   0.000  -0.000  -0.000
 -0.000  -0.000   0.000   0.000  -5.547  -0.000  -0.000   0.000
 -6.093   0.000   0.000   0.000  -0.000  -6.584   0.000   0.000
  0.000  -6.093  -0.000  -0.000  -0.000   0.000  -6.584  -0.000
  0.000  -0.000  -6.080  -0.000   0.000   0.000  -0.000  -6.571
  0.000  -0.000  -0.000  -6.093   0.000   0.000  -0.000  -0.000
 -0.000  -0.000   0.000   0.000  -6.080  -0.000  -0.000   0.000
  0.000  -0.000  -0.000  -0.000   0.000   0.000  -0.000  -0.000
  0.000  -0.000  -0.000  -0.000   0.000   0.000  -0.000  -0.000
  0.000  -0.000  -0.000   0.000  -0.000   0.000  -0.000  -0.000
  0.000   0.000  -0.000   0.000  -0.000   0.000   0.000  -0.000
  0.000   0.000  -0.000  -0.000   0.000   0.000   0.000  -0.000
  0.000  -0.000  -0.000   0.000  -0.000   0.000  -0.000  -0.000
  0.000   0.000  -0.000   0.000  -0.000   0.000   0.000  -0.000
  0.000   0.000  -0.000  -0.000   0.000   0.000   0.000  -0.000
 total augmentation occupancy for first ion, spin component:           1
  1.353   0.000   0.000  -0.000   0.000  -0.409   0.000   0.000   0.000  -0.000   0.000   0.000  -0.000   0.000   0.000   0.000
  0.000   1.353   0.000   0.000   0.000  -0.000  -0.409  -0.000  -0.000  -0.000   0.000  -0.000   0.000  -0.000   0.000   0.000
  0.000   0.000   2.236   0.000   0.000   0.000   0.000  -0.928   0.000   0.000  -0.000   0.000   0.000  -0.000  -0.000   0.000
  0.000   0.000   0.000   1.353   0.000  -0.000   0.000  -0.000  -0.409  -0.000   0.000   0.000  -0.000  -0.000  -0.000   0.000
 -0.000  -0.000   0.000   0.000   2.236  -0.000  -0.000  -0.000  -0.000  -0.928   0.000  -0.000   0.000   0.000  -0.000  -0.000
 -0.409   0.000   0.000   0.000   0.000   0.785  -0.000  -0.000  -0.000  -0.000   0.000  -0.000   0.000  -0.000   0.000   0.000
 -0.000  -0.409   0.000  -0.000  -0.000  -0.000   0.785   0.000  -0.000  -0.000  -0.000  -0.000   0.000  -0.000   0.000  -0.000
 -0.000  -0.000  -0.928  -0.000   0.000  -0.000   0.000   0.986  -0.000   0.000   0.000   0.000   0.000  -0.000   0.000  -0.000
  0.000  -0.000   0.000  -0.409  -0.000  -0.000   0.000  -0.000   0.785   0.000   0.000   0.000  -0.000   0.000   0.000   0.000
  0.000  -0.000   0.000  -0.000  -0.928   0.000   0.000   0.000  -0.000   0.986   0.000   0.000   0.000   0.000   0.000   0.000
  0.000   0.000  -0.000   0.000   0.000   0.000  -0.000   0.000   0.000  -0.000   2.146  -0.222   0.000  -0.000  -0.000   0.000
  0.000  -0.000   0.000   0.000  -0.000   0.000   0.000   0.000   0.000   0.000  -0.222   0.026  -0.000  -0.000  -0.000  -0.000
  0.000   0.000   0.000  -0.000   0.000  -0.000   0.000   0.000   0.000  -0.000   0.000  -0.000   0.252  -0.000   0.000  -0.021
 -0.000   0.000   0.000   0.000  -0.000  -0.000   0.000  -0.000  -0.000  -0.000  -0.000   0.000   0.000   0.252   0.000  -0.000
  0.000   0.000   0.000   0.000  -0.000   0.000   0.000  -0.000  -0.000   0.000   0.000   0.000   0.000  -0.000   0.252  -0.000
  0.000  -0.000   0.000  -0.000  -0.000  -0.000   0.000  -0.000  -0.000  -0.000  -0.000  -0.000  -0.021  -0.000  -0.000   0.002
  0.000   0.000   0.000   0.000   0.000   0.000  -0.000   0.000  -0.000  -0.000  -0.000   0.000   0.000  -0.021   0.000  -0.000
  0.000  -0.000   0.000  -0.000  -0.000   0.000  -0.000   0.000   0.000   0.000   0.000   0.000  -0.000  -0.000  -0.021   0.000


------------------------ aborting loop because EDIFF is reached ----------------------------------------


    CHARGE:  cpu time    0.0485: real time    0.0485
    FORLOC:  cpu time    0.0006: real time    0.0006
    FORNL :  cpu time    0.2810: real time    0.2810
    STRESS:  cpu time    0.3059: real time    0.3059
    FORCOR:  cpu time    0.0075: real time    0.0075
    FORHAR:  cpu time    0.0018: real time    0.0018
    MIXING:  cpu time    0.0005: real time    0.0005

  FORCE on cell =-STRESS in cart. coord.  units (eV):
  Direction    XX          YY          ZZ          XY          YZ          ZX
  --------------------------------------------------------------------------------------
  Alpha Z   225.37425   225.37425   225.37425
  Ewald    -769.44542  -769.44542  -769.44542     0.00000    -0.00000    -0.00000
  Hartree   133.50035   133.50035   133.50035    -0.00000    -0.00000    -0.00000
  E(xc)    -153.64924  -153.64924  -153.64924    -0.00000    -0.00000    -0.00000
  Local     225.04575   225.04575   225.04575    -0.00000     0.00000    -0.00000
  n-local  -115.42603  -113.06315  -107.71232     2.87719     0.01639     0.38484
  augment   152.89021   152.89021   152.89021     0.00000     0.00000     0.00000
  Kinetic   302.55585   284.07812   277.26144     1.93094     6.60615     5.20621
  Fock        0.00000     0.00000     0.00000     0.00000     0.00000     0.00000
  -------------------------------------------------------------------------------------
  Total     -10.38614   -10.38614   -10.38614     0.00000    -0.00000     0.00000
  in kB    -339.14431  -339.14431  -339.14431     0.00000    -0.00000     0.00000
  external pressure =     -339.14 kB  Pullay stress =        0.00 kB


 VOLUME and BASIS-vectors are now :
 -----------------------------------------------------------------------------
  energy-cutoff  :      300.00
  volume of cell :       49.07
      direct lattice vectors                 reciprocal lattice vectors
     3.660946971  0.000000000  0.000000000     0.273153369  0.000000000  0.000000000
     0.000000000  3.660946971  0.000000000     0.000000000  0.273153369  0.000000000
     0.000000000  0.000000000  3.660946971     0.000000000  0.000000000  0.273153369

  length of vectors
     3.660946971  3.660946971  3.660946971     0.273153369  0.273153369  0.273153369


 FORCES acting on ions
    electron-ion (+dipol)            ewald-force                    non-local-force                 convergence-correction
 -----------------------------------------------------------------------------------------------
   -.315E-13 0.115E-13 0.621E-14   -.921E-15 -.218E-14 -.913E-14   0.356E-24 0.538E-24 -.309E-25   -.182E-13 0.845E-14 0.155E-13
   0.474E-13 0.901E-13 0.613E-14   0.251E-14 -.240E-14 -.918E-14   -.301E-24 -.673E-24 -.898E-25   -.293E-13 0.796E-14 0.996E-14
   0.484E-13 0.989E-14 0.856E-13   0.338E-14 0.230E-14 0.909E-14   0.170E-24 -.589E-24 -.326E-23   -.315E-13 0.284E-14 0.830E-14
   -.303E-13 0.871E-13 0.862E-13   -.481E-14 0.208E-14 0.904E-14   0.154E-24 -.805E-24 -.176E-24   -.218E-13 0.326E-14 0.115E-13
 -----------------------------------------------------------------------------------------------
   0.339E-13 0.199E-12 0.184E-12   0.156E-15 -.196E-15 -.170E-15   0.378E-24 -.153E-23 -.355E-23   -.101E-12 0.225E-13 0.452E-13
 
 
 POSITION                                       TOTAL-FORCE (eV/Angst)
 -----------------------------------------------------------------------------------
      0.00000      0.00000      0.00000         0.000000     -0.000000     -0.000000
      1.83047      1.83047      0.00000        -0.000000      0.000000     -0.000000
      1.83047      0.00000      1.83047         0.000000     -0.000000      0.000000
      0.00000      1.83047      1.83047        -0.000000      0.000000      0.000000
 -----------------------------------------------------------------------------------
    total drift:                               -0.000000      0.000000      0.000000


--------------------------------------------------------------------------------------------------------



  FREE ENERGIE OF THE ION-ELECTRON SYSTEM (eV)
  ---------------------------------------------------
  free  energy   TOTEN  =       -31.30887234 eV

  energy  without entropy=      -31.31303557  energy(sigma->0) =      -31.31026008
 


--------------------------------------------------------------------------------------------------------


    POTLOK:  cpu time    0.0110: real time    0.0110


--------------------------------------------------------------------------------------------------------


 writing wavefunctions
     LOOP+:  cpu time   13.8504: real time   13.8703
    4ORBIT:  cpu time    0.0000: real time    0.0000

 total amount of memory used by VASP MPI-rank0    60301. kBytes
=======================================================================

   base      :      30000. kBytes
   nonl-proj :       4779. kBytes
   grid      :       1806. kBytes
   one-center:         62. kBytes
   wavefun   :      23654. kBytes
 
  
  
 General timing and accounting informations for this job:
 ========================================================
  
                  Total CPU time used (sec):       14.089
                            User time (sec):       14.045
                          System time (sec):        0.044
                         Elapsed time (sec):       14.098
  
                   Maximum memory used (kb):       66776.
                   Average memory used (kb):          N/A
  
                          Minor page faults:        10344
                          Major page faults:            0
                 Voluntary context switches:           26
