unknown system                          
   1.00000000000000     
     3.445083    0.000000    0.000000
     0.000000    3.445083    0.000000
     0.000000    0.000000    3.445083
   Fe
     4
Direct
  0.000000  0.000000  0.000000
  0.500000  0.500000  0.000000
  0.500000  0.000000  0.500000
  0.000000  0.500000  0.500000
 
   32   32   32
  343.55      328.05      285.79      227.42      165.22      109.24      65.699      37.003      21.948      16.108    
  13.561      11.790      10.670      9.9975      9.5873      9.3419      9.2553      9.3419      9.5873      9.9975    
  10.670      11.790      13.561      16.108      21.948      37.003      65.699      109.24      165.22      227.42    
  285.79      328.05      328.05      313.24      272.88      217.08      157.63      104.16      62.700      35.548    
  21.450      16.023      13.551      11.824      10.731      10.073      9.6692      9.4272      9.3419      9.4272    
  9.6692      10.073      10.731      11.824      13.551      16.023      21.450      35.548      62.700      104.16    
  157.63      217.08      272.88      313.24      285.79      272.88      237.63      188.86      136.90      90.352    
  54.633      31.710      20.187      15.808      13.523      11.922      10.906      10.287      9.9015      9.6692    
  9.5873      9.6692      9.9015      10.287      10.906      11.922      13.523      15.808      20.187      31.710    
  54.633      90.352      136.90      188.86      237.63      272.88      227.42      217.08      188.86      149.80    
  108.31      71.509      43.875      26.811      18.699      15.524      13.492      12.087      11.193      10.638    
  10.287      10.073      9.9975      10.073      10.287      10.638      11.193      12.087      13.492      15.524    
  18.699      26.811      43.875      71.509      108.31      149.80      188.86      217.08      165.22      157.63    
  136.90      108.31      78.230      52.115      33.254      22.329      17.489      15.196      13.506      12.364    
  11.642      11.193      10.906      10.731      10.670      10.731      10.906      11.193      11.642      12.364    
  13.506      15.196      17.489      22.329      33.254      52.115      78.230      108.31      136.90      157.63    
  109.24      104.16      90.352      71.509      52.115      35.929      24.989      19.226      16.660      14.910    
  13.649      12.843      12.364      12.087      11.922      11.824      11.790      11.824      11.922      12.087    
  12.364      12.843      13.649      14.910      16.660      19.226      24.989      35.929      52.115      71.509    
  90.352      104.16      65.699      62.700      54.633      43.875      33.254      24.989      19.963      17.512    
  15.960      14.781      14.035      13.649      13.506      13.492      13.523      13.551      13.561      13.551    
  13.523      13.492      13.506      13.649      14.035      14.781      15.960      17.512      19.963      24.989    
  33.254      43.875      54.633      62.700      37.003      35.548      31.710      26.811      22.329      19.226    
  17.512      16.352      15.455      14.933      14.781      14.910      15.196      15.524      15.808      16.023    
  16.108      16.023      15.808      15.524      15.196      14.910      14.781      14.933      15.455      16.352    
  17.512      19.226      22.329      26.811      31.710      35.548      21.948      21.450      20.187      18.699    
  17.489      16.660      15.960      15.455      15.271      15.455      15.960      16.660      17.489      18.699    
  20.187      21.450      21.948      21.450      20.187      18.699      17.489      16.660      15.960      15.455    
  15.271      15.455      15.960      16.660      17.489      18.699      20.187      21.450      16.108      16.023    
  15.808      15.524      15.196      14.910      14.781      14.933      15.455      16.352      17.512      19.226    
  22.329      26.811      31.710      35.548      37.003      35.548      31.710      26.811      22.329      19.226    
  17.512      16.352      15.455      14.933      14.781      14.910      15.196      15.524      15.808      16.023    
  13.561      13.551      13.523      13.492      13.506      13.649      14.035      14.781      15.960      17.512    
  19.963      24.989      33.254      43.875      54.633      62.700      65.699      62.700      54.633      43.875    
  33.254      24.989      19.963      17.512      15.960      14.781      14.035      13.649      13.506      13.492    
  13.523      13.551      11.790      11.824      11.922      12.087      12.364      12.843      13.649      14.910    
  16.660      19.226      24.989      35.929      52.115      71.509      90.352      104.16      109.24      104.16    
  90.352      71.509      52.115      35.929      24.989      19.226      16.660      14.910      13.649      12.843    
  12.364      12.087      11.922      11.824      10.670      10.731      10.906      11.193      11.642      12.364    
  13.506      15.196      17.489      22.329      33.254      52.115      78.230      108.31      136.90      157.63    
  165.22      157.63      136.90      108.31      78.230      52.115      33.254      22.329      17.489      15.196    
  13.506      12.364      11.642      11.193      10.906      10.731      9.9975      10.073      10.287      10.638    
  11.193      12.087      13.492      15.524      18.699      26.811      43.875      71.509      108.31      149.80    
  188.86      217.08      227.42      217.08      188.86      149.80      108.31      71.509      43.875      26.811    
  18.699      15.524      13.492      12.087      11.193      10.638      10.287      10.073      9.5873      9.6692    
  9.9015      10.287      10.906      11.922      13.523      15.808      20.187      31.710      54.633      90.352    
  136.90      188.86      237.63      272.88      285.79      272.88      237.63      188.86      136.90      90.352    
  54.633      31.710      20.187      15.808      13.523      11.922      10.906      10.287      9.9015      9.6692    
  9.3419      9.4272      9.6692      10.073      10.731      11.824      13.551      16.023      21.450      35.548    
  62.700      104.16      157.63      217.08      272.88      313.24      328.05      313.24      272.88      217.08    
  157.63      104.16      62.700      35.548      21.450      16.023      13.551      11.824      10.731      10.073    
  9.6692      9.4272      9.2553      9.3419      9.5873      9.9975      10.670      11.790      13.561      16.108    
  21.948      37.003      65.699      109.24      165.22      227.42      285.79      328.05      343.55      328.05    
  285.79      227.42      165.22      109.24      65.699      37.003      21.948      16.108      13.561      11.790    
  10.670      9.9975      9.5873      9.3419      9.3419      9.4272      9.6692      10.073      10.731      11.824    
  13.551      16.023      21.450      35.548      62.700      104.16      157.63      217.08      272.88      313.24    
  328.05      313.24      272.88      217.08      157.63      104.16      62.700      35.548      21.450      16.023    
  13.551      11.824      10.731      10.073      9.6692      9.4272      9.5873      9.6692      9.9015      10.287    
  10.906      11.922      13.523      15.808      20.187      31.710      54.633      90.352      136.90      188.86    
  237.63      272.88      285.79      272.88      237.63      188.86      136.90      90.352      54.633      31.710    
  20.187      15.808      13.523      11.922      10.906      10.287      9.9015      9.6692      9.9975      10.073    
  10.287      10.638      11.193      12.087      13.492      15.524      18.699      26.811      43.875      71.509    
  108.31      149.80      188.86      217.08      227.42      217.08      188.86      149.80      108.31      71.509    
  43.875      26.811      18.699      15.524      13.492      12.087      11.193      10.638      10.287      10.073    
  10.670      10.731      10.906      11.193      11.642      12.364      13.506      15.196      17.489      22.329    
  33.254      52.115      78.230      108.31      136.90      157.63      165.22      157.63      136.90      108.31    
  78.230      52.115      33.254      22.329      17.489      15.196      13.506      12.364      11.642      11.193    
  10.906      10.731      11.790      11.824      11.922      12.087      12.364      12.843      13.649      14.910    
  16.660      19.226      24.989      35.929      52.115      71.509      90.352      104.16      109.24      104.16    
  90.352      71.509      52.115      35.929      24.989      19.226      16.660      14.910      13.649      12.843    
  12.364      12.087      11.922      11.824      13.561      13.551      13.523      13.492      13.506      13.649    
  14.035      14.781      15.960      17.512      19.963      24.989      33.254      43.875      54.633      62.700    
  65.699      62.700      54.633      43.875      33.254      24.989      19.963      17.512      15.960      14.781    
  14.035      13.649      13.506      13.492      13.523      13.551      16.108      16.023      15.808      15.524    
  15.196      14.910      14.781      14.933      15.455      16.352      17.512      19.226      22.329      26.811    
  31.710      35.548      37.003      35.548      31.710      26.811      22.329      19.226      17.512      16.352    
  15.455      14.933      14.781      14.910      15.196      15.524      15.808      16.023      21.948      21.450    
  20.187      18.699      17.489      16.660      15.960      15.455      15.271      15.455      15.960      16.660    
  17.489      18.699      20.187      21.450      21.948      21.450      20.187      18.699      17.489      16.660    
  15.960      15.455      15.271      15.455      15.960      16.660      17.489      18.699      20.187      21.450    
  37.003      35.548      31.710      26.811      22.329      19.226      17.512      16.352      15.455      14.933    
  14.781      14.910      15.196      15.524      15.808      16.023      16.108      16.023      15.808      15.524    
  15.196      14.910      14.781      14.933      15.455      16.352      17.512      19.226      22.329      26.811    
  31.710      35.548      65.699      62.700      54.633      43.875      33.254      24.989      19.963      17.512    
  15.960      14.781      14.035      13.649      13.506      13.492      13.523      13.551      13.561      13.551    
  13.523      13.492      13.506      13.649      14.035      14.781      15.960      17.512      19.963      24.989    
  33.254      43.875      54.633      62.700      109.24      104.16      90.352      71.509      52.115      35.929    
  24.989      19.226      16.660      14.910      13.649      12.843      12.364      12.087      11.922      11.824    
  11.790      11.824      11.922      12.087      12.364      12.843      13.649      14.910      16.660      19.226    
  24.989      35.929      52.115      71.509      90.352      104.16      165.22      157.63      136.90      108.31    
  78.230      52.115      33.254      22.329      17.489      15.196      13.506      12.364      11.642      11.193    
  10.906      10.731      10.670      10.731      10.906      11.193      11.642      12.364      13.506      15.196    
  17.489      22.329      33.254      52.115      78.230      108.31      136.90      157.63      227.42      217.08    
  188.86      149.80      108.31      71.509      43.875      26.811      18.699      15.524      13.492      12.087    
  11.193      10.638      10.287      10.073      9.9975      10.073      10.287      10.638      11.193      12.087    
  13.492      15.524      18.699      26.811      43.875      71.509      108.31      149.80      188.86      217.08    
  285.79      272.88      237.63      188.86      136.90      90.352      54.633      31.710      20.187      15.808    
  13.523      11.922      10.906      10.287      9.9015      9.6692      9.5873      9.6692      9.9015      10.287    
  10.906      11.922      13.523      15.808      20.187      31.710      54.633      90.352      136.90      188.86    
  237.63      272.88      328.05      313.24      272.88      217.08      157.63      104.16      62.700      35.548    
  21.450      16.023      13.551      11.824      10.731      10.073      9.6692      9.4272      9.3419      9.4272    
  9.6692      10.073      10.731      11.824      13.551      16.023      21.450      35.548      62.700      104.16    
  157.63      217.08      272.88      313.24      328.05      313.24      272.88      217.08      157.63      104.16    
  62.700      35.548      21.450      16.023      13.551      11.824      10.731      10.073      9.6692      9.4272    
  9.3419      9.4272      9.6692      10.073      10.731      11.824      13.551      16.023      21.450      35.548    
  62.700      104.16      157.63      217.08      272.88      313.24      313.24      299.10      260.54      207.21    
  150.37      99.316      59.854      34.179      20.989      15.943      13.540      11.857      10.791      10.147    
  9.7497      9.5113      9.4272      9.5113      9.7497      10.147      10.791      11.857      13.540      15.943    
  20.989      34.179      59.854      99.316      150.37      207.21      260.54      299.10      272.88      260.54    
  226.86      180.23      130.57      86.157      52.206      30.574      19.820      15.737      13.509      11.950    
  10.961      10.356      9.9781      9.7497      9.6692      9.7497      9.9781      10.356      10.961      11.950    
  13.509      15.737      19.820      30.574      52.206      86.157      130.57      180.23      226.86      260.54    
  217.08      207.21      180.23      142.90      103.28      68.227      42.029      25.988      18.449      15.451    
  13.473      12.109      11.241      10.700      10.356      10.147      10.073      10.147      10.356      10.700    
  11.241      12.109      13.473      15.451      18.449      25.988      42.029      68.227      103.28      142.90    
  180.23      207.21      157.63      150.37      130.57      103.28      74.621      49.822      32.024      21.817    
  17.331      15.120      13.480      12.375      11.677      11.241      10.961      10.791      10.731      10.791    
  10.961      11.241      11.677      12.375      13.480      15.120      17.331      21.817      32.024      49.822    
  74.621      103.28      130.57      150.37      104.16      99.316      86.157      68.227      49.822      34.538    
  24.292      18.950      16.532      14.831      13.613      12.836      12.375      12.109      11.950      11.857    
  11.824      11.857      11.950      12.109      12.375      12.836      13.613      14.831      16.532      18.950    
  24.292      34.538      49.822      68.227      86.157      99.316      62.700      59.854      52.206      42.029    
  32.024      24.292      19.633      17.349      15.839      14.698      13.980      13.613      13.480      13.473    
  13.509      13.540      13.551      13.540      13.509      13.473      13.480      13.613      13.980      14.698    
  15.839      17.349      19.633      24.292      32.024      42.029      52.206      59.854      35.548      34.179    
  30.574      25.988      21.817      18.950      17.349      16.214      15.342      14.839      14.698      14.831    
  15.120      15.451      15.737      15.943      16.023      15.943      15.737      15.451      15.120      14.831    
  14.698      14.839      15.342      16.214      17.349      18.950      21.817      25.988      30.574      34.179    
  21.450      20.989      19.820      18.449      17.331      16.532      15.839      15.342      15.161      15.342    
  15.839      16.532      17.331      18.449      19.820      20.989      21.450      20.989      19.820      18.449    
  17.331      16.532      15.839      15.342      15.161      15.342      15.839      16.532      17.331      18.449    
  19.820      20.989      16.023      15.943      15.737      15.451      15.120      14.831      14.698      14.839    
  15.342      16.214      17.349      18.950      21.817      25.988      30.574      34.179      35.548      34.179    
  30.574      25.988      21.817      18.950      17.349      16.214      15.342      14.839      14.698      14.831    
  15.120      15.451      15.737      15.943      13.551      13.540      13.509      13.473      13.480      13.613    
  13.980      14.698      15.839      17.349      19.633      24.292      32.024      42.029      52.206      59.854    
  62.700      59.854      52.206      42.029      32.024      24.292      19.633      17.349      15.839      14.698    
  13.980      13.613      13.480      13.473      13.509      13.540      11.824      11.857      11.950      12.109    
  12.375      12.836      13.613      14.831      16.532      18.950      24.292      34.538      49.822      68.227    
  86.157      99.316      104.16      99.316      86.157      68.227      49.822      34.538      24.292      18.950    
  16.532      14.831      13.613      12.836      12.375      12.109      11.950      11.857      10.731      10.791    
  10.961      11.241      11.677      12.375      13.480      15.120      17.331      21.817      32.024      49.822    
  74.621      103.28      130.57      150.37      157.63      150.37      130.57      103.28      74.621      49.822    
  32.024      21.817      17.331      15.120      13.480      12.375      11.677      11.241      10.961      10.791    
  10.073      10.147      10.356      10.700      11.241      12.109      13.473      15.451      18.449      25.988    
  42.029      68.227      103.28      142.90      180.23      207.21      217.08      207.21      180.23      142.90    
  103.28      68.227      42.029      25.988      18.449      15.451      13.473      12.109      11.241      10.700    
  10.356      10.147      9.6692      9.7497      9.9781      10.356      10.961      11.950      13.509      15.737    
  19.820      30.574      52.206      86.157      130.57      180.23      226.86      260.54      272.88      260.54    
  226.86      180.23      130.57      86.157      52.206      30.574      19.820      15.737      13.509      11.950    
  10.961      10.356      9.9781      9.7497      9.4272      9.5113      9.7497      10.147      10.791      11.857    
  13.540      15.943      20.989      34.179      59.854      99.316      150.37      207.21      260.54      299.10    
  313.24      299.10      260.54      207.21      150.37      99.316      59.854      34.179      20.989      15.943    
  13.540      11.857      10.791      10.147      9.7497      9.5113      9.3419      9.4272      9.6692      10.073    
  10.731      11.824      13.551      16.023      21.450      35.548      62.700      104.16      157.63      217.08    
  272.88      313.24      328.05      313.24      272.88      217.08      157.63      104.16      62.700      35.548    
  21.450      16.023      13.551      11.824      10.731      10.073      9.6692      9.4272      9.4272      9.5113    
  9.7497      10.147      10.791      11.857      13.540      15.943      20.989      34.179      59.854      99.316    
  150.37      207.21      260.54      299.10      313.24      299.10      260.54      207.21      150.37      99.316    
  59.854      34.179      20.989      15.943      13.540      11.857      10.791      10.147      9.7497      9.5113    
  9.6692      9.7497      9.9781      10.356      10.961      11.950      13.509      15.737      19.820      30.574    
  52.206      86.157      130.57      180.23      226.86      260.54      272.88      260.54      226.86      180.23    
  130.57      86.157      52.206      30.574      19.820      15.737      13.509      11.950      10.961      10.356    
  9.9781      9.7497      10.073      10.147      10.356      10.700      11.241      12.109      13.473      15.451    
  18.449      25.988      42.029      68.227      103.28      142.90      180.23      207.21      217.08      207.21    
  180.23      142.90      103.28      68.227      42.029      25.988      18.449      15.451      13.473      12.109    
  11.241      10.700      10.356      10.147      10.731      10.791      10.961      11.241      11.677      12.375    
  13.480      15.120      17.331      21.817      32.024      49.822      74.621      103.28      130.57      150.37    
  157.63      150.37      130.57      103.28      74.621      49.822      32.024      21.817      17.331      15.120    
  13.480      12.375      11.677      11.241      10.961      10.791      11.824      11.857      11.950      12.109    
  12.375      12.836      13.613      14.831      16.532      18.950      24.292      34.538      49.822      68.227    
  86.157      99.316      104.16      99.316      86.157      68.227      49.822      34.538      24.292      18.950    
  16.532      14.831      13.613      12.836      12.375      12.109      11.950      11.857      13.551      13.540    
  13.509      13.473      13.480      13.613      13.980      14.698      15.839      17.349      19.633      24.292    
  32.024      42.029      52.206      59.854      62.700      59.854      52.206      42.029      32.024      24.292    
  19.633      17.349      15.839      14.698      13.980      13.613      13.480      13.473      13.509      13.540    
  16.023      15.943      15.737      15.451      15.120      14.831      14.698      14.839      15.342      16.214    
  17.349      18.950      21.817      25.988      30.574      34.179      35.548      34.179      30.574      25.988    
  21.817      18.950      17.349      16.214      15.342      14.839      14.698      14.831      15.120      15.451    
  15.737      15.943      21.450      20.989      19.820      18.449      17.331      16.532      15.839      15.342    
  15.161      15.342      15.839      16.532      17.331      18.449      19.820      20.989      21.450      20.989    
  19.820      18.449      17.331      16.532      15.839      15.342      15.161      15.342      15.839      16.532    
  17.331      18.449      19.820      20.989      35.548      34.179      30.574      25.988      21.817      18.950    
  17.349      16.214      15.342      14.839      14.698      14.831      15.120      15.451      15.737      15.943    
  16.023      15.943      15.737      15.451      15.120      14.831      14.698      14.839      15.342      16.214    
  17.349      18.950      21.817      25.988      30.574      34.179      62.700      59.854      52.206      42.029    
  32.024      24.292      19.633      17.349      15.839      14.698      13.980      13.613      13.480      13.473    
  13.509      13.540      13.551      13.540      13.509      13.473      13.480      13.613      13.980      14.698    
  15.839      17.349      19.633      24.292      32.024      42.029      52.206      59.854      104.16      99.316    
  86.157      68.227      49.822      34.538      24.292      18.950      16.532      14.831      13.613      12.836    
  12.375      12.109      11.950      11.857      11.824      11.857      11.950      12.109      12.375      12.836    
  13.613      14.831      16.532      18.950      24.292      34.538      49.822      68.227      86.157      99.316    
  157.63      150.37      130.57      103.28      74.621      49.822      32.024      21.817      17.331      15.120    
  13.480      12.375      11.677      11.241      10.961      10.791      10.731      10.791      10.961      11.241    
  11.677      12.375      13.480      15.120      17.331      21.817      32.024      49.822      74.621      103.28    
  130.57      150.37      217.08      207.21      180.23      142.90      103.28      68.227      42.029      25.988    
  18.449      15.451      13.473      12.109      11.241      10.700      10.356      10.147      10.073      10.147    
  10.356      10.700      11.241      12.109      13.473      15.451      18.449      25.988      42.029      68.227    
  103.28      142.90      180.23      207.21      272.88      260.54      226.86      180.23      130.57      86.157    
  52.206      30.574      19.820      15.737      13.509      11.950      10.961      10.356      9.9781      9.7497    
  9.6692      9.7497      9.9781      10.356      10.961      11.950      13.509      15.737      19.820      30.574    
  52.206      86.157      130.57      180.23      226.86      260.54      313.24      299.10      260.54      207.21    
  150.37      99.316      59.854      34.179      20.989      15.943      13.540      11.857      10.791      10.147    
  9.7497      9.5113      9.4272      9.5113      9.7497      10.147      10.791      11.857      13.540      15.943    
  20.989      34.179      59.854      99.316      150.37      207.21      260.54      299.10      285.79      272.88    
  237.63      188.86      136.90      90.352      54.633      31.710      20.187      15.808      13.523      11.922    
  10.906      10.287      9.9015      9.6692      9.5873      9.6692      9.9015      10.287      10.906      11.922    
  13.523      15.808      20.187      31.710      54.633      90.352      136.90      188.86      237.63      272.88    
  272.88      260.54      226.86      180.23      130.57      86.157      52.206      30.574      19.820      15.737    
  13.509      11.950      10.961      10.356      9.9781      9.7497      9.6692      9.7497      9.9781      10.356    
  10.961      11.950      13.509      15.737      19.820      30.574      52.206      86.157      130.57      180.23    
  226.86      260.54      237.63      226.86      197.42      156.67      113.32      74.787      45.704      27.597    
  18.897      15.541      13.469      12.033      11.119      10.553      10.196      9.9781      9.9015      9.9781    
  10.196      10.553      11.119      12.033      13.469      15.541      18.897      27.597      45.704      74.787    
  113.32      156.67      197.42      226.86      188.86      180.23      156.67      124.08      89.614      59.367    
  37.117      23.851      17.819      15.246      13.422      12.174      11.377      10.876      10.553      10.356    
  10.287      10.356      10.553      10.876      11.377      12.174      13.422      15.246      17.819      23.851    
  37.117      59.367      89.614      124.08      156.67      180.23      136.90      130.57      113.32      89.614    
  64.859      43.682      28.786      20.505      16.917      14.909      13.412      12.410      11.776      11.377    
  11.119      10.961      10.906      10.961      11.119      11.377      11.776      12.410      13.412      14.909    
  16.917      20.505      28.786      43.682      64.859      89.614      113.32      130.57      90.352      86.157    
  74.787      59.367      43.682      30.862      22.486      18.241      16.174      14.616      13.516      12.821    
  12.410      12.174      12.033      11.950      11.922      11.950      12.033      12.174      12.410      12.821    
  13.516      14.616      16.174      18.241      22.486      30.862      43.682      59.367      74.787      86.157    
  54.633      52.206      45.704      37.117      28.786      22.486      18.788      16.901      15.505      14.471    
  13.833      13.516      13.412      13.422      13.469      13.509      13.523      13.509      13.469      13.422    
  13.412      13.516      13.833      14.471      15.505      16.901      18.788      22.486      28.786      37.117    
  45.704      52.206      31.710      30.574      27.597      23.851      20.505      18.241      16.901      15.834    
  15.033      14.583      14.471      14.616      14.909      15.246      15.541      15.737      15.808      15.737    
  15.541      15.246      14.909      14.616      14.471      14.583      15.033      15.834      16.901      18.241    
  20.505      23.851      27.597      30.574      20.187      19.820      18.897      17.819      16.917      16.174    
  15.505      15.033      14.862      15.033      15.505      16.174      16.917      17.819      18.897      19.820    
  20.187      19.820      18.897      17.819      16.917      16.174      15.505      15.033      14.862      15.033    
  15.505      16.174      16.917      17.819      18.897      19.820      15.808      15.737      15.541      15.246    
  14.909      14.616      14.471      14.583      15.033      15.834      16.901      18.241      20.505      23.851    
  27.597      30.574      31.710      30.574      27.597      23.851      20.505      18.241      16.901      15.834    
  15.033      14.583      14.471      14.616      14.909      15.246      15.541      15.737      13.523      13.509    
  13.469      13.422      13.412      13.516      13.833      14.471      15.505      16.901      18.788      22.486    
  28.786      37.117      45.704      52.206      54.633      52.206      45.704      37.117      28.786      22.486    
  18.788      16.901      15.505      14.471      13.833      13.516      13.412      13.422      13.469      13.509    
  11.922      11.950      12.033      12.174      12.410      12.821      13.516      14.616      16.174      18.241    
  22.486      30.862      43.682      59.367      74.787      86.157      90.352      86.157      74.787      59.367    
  43.682      30.862      22.486      18.241      16.174      14.616      13.516      12.821      12.410      12.174    
  12.033      11.950      10.906      10.961      11.119      11.377      11.776      12.410      13.412      14.909    
  16.917      20.505      28.786      43.682      64.859      89.614      113.32      130.57      136.90      130.57    