unknown system                          
   1.00000000000000     
     3.445083    0.000000    0.000000
     0.000000    3.445083    0.000000
     0.000000    0.000000    3.445083
   Fe
     4
Direct
  0.000000  0.000000  0.000000
  0.500000  0.500000  0.000000
  0.500000  0.000000  0.500000
  0.000000  0.500000  0.500000
 
   32   32   32
 0.34355472879E+03 0.32804960394E+03 0.28579245144E+03 0.22741576564E+03 0.16522293184E+03
 0.10924362545E+03 0.65698849900E+02 0.37002894611E+02 0.21947742992E+02 0.16107592291E+02
 0.13561064718E+02 0.11790120963E+02 0.10669840202E+02 0.99975302865E+01 0.95873187855E+01
 0.93418984227E+01 0.92553339016E+01 0.93418984227E+01 0.95873187855E+01 0.99975302865E+01
 0.10669840202E+02 0.11790120963E+02 0.13561064718E+02 0.16107592291E+02 0.21947742992E+02
 0.37002894611E+02 0.65698849900E+02 0.10924362545E+03 0.16522293184E+03 0.22741576564E+03
 0.28579245144E+03 0.32804960394E+03 0.32804960394E+03 0.31324439750E+03 0.27287840701E+03
 0.21708243202E+03 0.15762634106E+03 0.10416118986E+03 0.62700171477E+02 0.35548034920E+02
 0.21450104367E+02 0.16022792026E+02 0.13551215869E+02 0.11824202861E+02 0.10731242498E+02
 0.10072817078E+02 0.96691821583E+01 0.94272200045E+01 0.93418984227E+01 0.94272200045E+01
 0.96691821583E+01 0.10072817078E+02 0.10731242498E+02 0.11824202861E+02 0.13551215869E+02
 0.16022792026E+02 0.21450104367E+02 0.35548034920E+02 0.62700171477E+02 0.10416118986E+03
 0.15762634106E+03 0.21708243202E+03 0.27287840701E+03 0.31324439750E+03 0.28579245144E+03
 0.27287840701E+03 0.23763470629E+03 0.18886128600E+03 0.13689742281E+03 0.90351744188E+02
 0.54633402198E+02 0.31710428091E+02 0.20186540500E+02 0.15808362468E+02 0.13523001571E+02
 0.11921701106E+02 0.10906013511E+02 0.10286677205E+02 0.99014918501E+01 0.96691821583E+01
 0.95873187855E+01 0.96691821583E+01 0.99014918501E+01 0.10286677205E+02 0.10906013511E+02
 0.11921701106E+02 0.13523001571E+02 0.15808362468E+02 0.20186540500E+02 0.31710428091E+02
 0.54633402198E+02 0.90351744188E+02 0.13689742281E+03 0.18886128600E+03 0.23763470629E+03
 0.27287840701E+03 0.22741576564E+03 0.21708243202E+03 0.18886128600E+03 0.14979939315E+03
 0.10830647416E+03 0.71508945863E+02 0.43875043397E+02 0.26810753897E+02 0.18698998785E+02
 0.15523676676E+02 0.13491789288E+02 0.12086977203E+02 0.11192963074E+02 0.10638428731E+02
 0.10286677205E+02 0.10072817078E+02 0.99975302865E+01 0.10072817078E+02 0.10286677205E+02
 0.10638428731E+02 0.11192963074E+02 0.12086977203E+02 0.13491789288E+02 0.15523676676E+02
 0.18698998785E+02 0.26810753897E+02 0.43875043397E+02 0.71508945863E+02 0.10830647416E+03
 0.14979939315E+03 0.18886128600E+03 0.21708243202E+03 0.16522293184E+03 0.15762634106E+03
 0.13689742281E+03 0.10830647416E+03 0.78230193299E+02 0.52114773885E+02 0.33254307582E+02
 0.22329217717E+02 0.17489436710E+02 0.15196050228E+02 0.13505582946E+02 0.12363741031E+02
 0.11642182926E+02 0.11192963074E+02 0.10906013511E+02 0.10731242498E+02 0.10669840202E+02
 0.10731242498E+02 0.10906013511E+02 0.11192963074E+02 0.11642182926E+02 0.12363741031E+02
 0.13505582946E+02 0.15196050228E+02 0.17489436710E+02 0.22329217717E+02 0.33254307582E+02
 0.52114773885E+02 0.78230193299E+02 0.10830647416E+03 0.13689742281E+03 0.15762634106E+03
 0.10924362545E+03 0.10416118986E+03 0.90351744188E+02 0.71508945863E+02 0.52114773885E+02
 0.35928766897E+02 0.24988721675E+02 0.19225944280E+02 0.16660327441E+02 0.14909750943E+02
 0.13649257899E+02 0.12842744078E+02 0.12363741031E+02 0.12086977203E+02 0.11921701106E+02
 0.11824202861E+02 0.11790120963E+02 0.11824202861E+02 0.11921701106E+02 0.12086977203E+02
 0.12363741031E+02 0.12842744078E+02 0.13649257899E+02 0.14909750943E+02 0.16660327441E+02
 0.19225944280E+02 0.24988721675E+02 0.35928766897E+02 0.52114773885E+02 0.71508945863E+02
 0.90351744188E+02 0.10416118986E+03 0.65698849900E+02 0.62700171477E+02 0.54633402198E+02
 0.43875043397E+02 0.33254307582E+02 0.24988721675E+02 0.19962787337E+02 0.17512331718E+02
 0.15960306082E+02 0.14781498662E+02 0.14035056201E+02 0.13649257899E+02 0.13505582946E+02
 0.13491789288E+02 0.13523001571E+02 0.13551215869E+02 0.13561064718E+02 0.13551215869E+02
 0.13523001571E+02 0.13491789288E+02 0.13505582946E+02 0.13649257899E+02 0.14035056201E+02
 0.14781498662E+02 0.15960306082E+02 0.17512331718E+02 0.19962787337E+02 0.24988721675E+02
 0.33254307582E+02 0.43875043397E+02 0.54633402198E+02 0.62700171477E+02 0.37002894611E+02
 0.35548034920E+02 0.31710428091E+02 0.26810753897E+02 0.22329217717E+02 0.19225944280E+02
 0.17512331718E+02 0.16352132065E+02 0.15455215550E+02 0.14933432322E+02 0.14781498662E+02
 0.14909750943E+02 0.15196050228E+02 0.15523676676E+02 0.15808362468E+02 0.16022792026E+02
 0.16107592291E+02 0.16022792026E+02 0.15808362468E+02 0.15523676676E+02 0.15196050228E+02
 0.14909750943E+02 0.14781498662E+02 0.14933432322E+02 0.15455215550E+02 0.16352132065E+02
 0.17512331718E+02 0.19225944280E+02 0.22329217717E+02 0.26810753897E+02 0.31710428091E+02
 0.35548034920E+02 0.21947742992E+02 0.21450104367E+02 0.20186540500E+02 0.18698998785E+02
 0.17489436710E+02 0.16660327441E+02 0.15960306082E+02 0.15455215550E+02 0.15270854614E+02
 0.15455215550E+02 0.15960306082E+02 0.16660327441E+02 0.17489436710E+02 0.18698998785E+02
 0.20186540500E+02 0.21450104367E+02 0.21947742992E+02 0.21450104367E+02 0.20186540500E+02
 0.18698998785E+02 0.17489436710E+02 0.16660327441E+02 0.15960306082E+02 0.15455215550E+02
 0.15270854614E+02 0.15455215550E+02 0.15960306082E+02 0.16660327441E+02 0.17489436710E+02
 0.18698998785E+02 0.20186540500E+02 0.21450104367E+02 0.16107592291E+02 0.16022792026E+02
 0.15808362468E+02 0.15523676676E+02 0.15196050228E+02 0.14909750943E+02 0.14781498662E+02
 0.14933432322E+02 0.15455215550E+02 0.16352132065E+02 0.17512331718E+02 0.19225944280E+02
 0.22329217717E+02 0.26810753897E+02 0.31710428091E+02 0.35548034920E+02 0.37002894611E+02
 0.35548034920E+02 0.31710428091E+02 0.26810753897E+02 0.22329217717E+02 0.19225944280E+02
 0.17512331718E+02 0.16352132065E+02 0.15455215550E+02 0.14933432322E+02 0.14781498662E+02
 0.14909750943E+02 0.15196050228E+02 0.15523676676E+02 0.15808362468E+02 0.16022792026E+02
 0.13561064718E+02 0.13551215869E+02 0.13523001571E+02 0.13491789288E+02 0.13505582946E+02
 0.13649257899E+02 0.14035056201E+02 0.14781498662E+02 0.15960306082E+02 0.17512331718E+02
 0.19962787337E+02 0.24988721675E+02 0.33254307582E+02 0.43875043397E+02 0.54633402198E+02
 0.62700171477E+02 0.65698849900E+02 0.62700171477E+02 0.54633402198E+02 0.43875043397E+02
 0.33254307582E+02 0.24988721675E+02 0.19962787337E+02 0.17512331718E+02 0.15960306082E+02
 0.14781498662E+02 0.14035056201E+02 0.13649257899E+02 0.13505582946E+02 0.13491789288E+02
 0.13523001571E+02 0.13551215869E+02 0.11790120963E+02 0.11824202861E+02 0.11921701106E+02
 0.12086977203E+02 0.12363741031E+02 0.12842744078E+02 0.13649257899E+02 0.14909750943E+02
 0.16660327441E+02 0.19225944280E+02 0.24988721675E+02 0.35928766897E+02 0.52114773885E+02
 0.71508945863E+02 0.90351744188E+02 0.10416118986E+03 0.10924362545E+03 0.10416118986E+03
 0.90351744188E+02 0.71508945863E+02 0.52114773885E+02 0.35928766897E+02 0.24988721675E+02
 0.19225944280E+02 0.16660327441E+02 0.14909750943E+02 0.13649257899E+02 0.12842744078E+02
 0.12363741031E+02 0.12086977203E+02 0.11921701106E+02 0.11824202861E+02 0.10669840202E+02
 0.10731242498E+02 0.10906013511E+02 0.11192963074E+02 0.11642182926E+02 0.12363741031E+02
 0.13505582946E+02 0.15196050228E+02 0.17489436710E+02 0.22329217717E+02 0.33254307582E+02
 0.52114773885E+02 0.78230193299E+02 0.10830647416E+03 0.13689742281E+03 0.15762634106E+03
 0.16522293184E+03 0.15762634106E+03 0.13689742281E+03 0.10830647416E+03 0.78230193299E+02
 0.52114773885E+02 0.33254307582E+02 0.22329217717E+02 0.17489436710E+02 0.15196050228E+02
 0.13505582946E+02 0.12363741031E+02 0.11642182926E+02 0.11192963074E+02 0.10906013511E+02
 0.10731242498E+02 0.99975302865E+01 0.10072817078E+02 0.10286677205E+02 0.10638428731E+02
 0.11192963074E+02 0.12086977203E+02 0.13491789288E+02 0.15523676676E+02 0.18698998785E+02
 0.26810753897E+02 0.43875043397E+02 0.71508945863E+02 0.10830647416E+03 0.14979939315E+03
 0.18886128600E+03 0.21708243202E+03 0.22741576564E+03 0.21708243202E+03 0.18886128600E+03
 0.14979939315E+03 0.10830647416E+03 0.71508945863E+02 0.43875043397E+02 0.26810753897E+02
 0.18698998785E+02 0.15523676676E+02 0.13491789288E+02 0.12086977203E+02 0.11192963074E+02
 0.10638428731E+02 0.10286677205E+02 0.10072817078E+02 0.95873187855E+01 0.96691821583E+01
 0.99014918501E+01 0.10286677205E+02 0.10906013511E+02 0.11921701106E+02 0.13523001571E+02
 0.15808362468E+02 0.20186540500E+02 0.31710428091E+02 0.54633402198E+02 0.90351744188E+02
 0.13689742281E+03 0.18886128600E+03 0.23763470629E+03 0.27287840701E+03 0.28579245144E+03
 0.27287840701E+03 0.23763470629E+03 0.18886128600E+03 0.13689742281E+03 0.90351744188E+02
 0.54633402198E+02 0.31710428091E+02 0.20186540500E+02 0.15808362468E+02 0.13523001571E+02
 0.11921701106E+02 0.10906013511E+02 0.10286677205E+02 0.99014918501E+01 0.96691821583E+01
 0.93418984227E+01 0.94272200045E+01 0.96691821583E+01 0.10072817078E+02 0.10731242498E+02
 0.11824202861E+02 0.13551215869E+02 0.16022792026E+02 0.21450104367E+02 0.35548034920E+02
 0.62700171477E+02 0.10416118986E+03 0.15762634106E+03 0.21708243202E+03 0.27287840701E+03
 0.31324439750E+03 0.32804960394E+03 0.31324439750E+03 0.27287840701E+03 0.21708243202E+03
 0.15762634106E+03 0.10416118986E+03 0.62700171477E+02 0.35548034920E+02 0.21450104367E+02
 0.16022792026E+02 0.13551215869E+02 0.11824202861E+02 0.10731242498E+02 0.10072817078E+02
 0.96691821583E+01 0.94272200045E+01 0.92553339016E+01 0.93418984227E+01 0.95873187855E+01
 0.99975302865E+01 0.10669840202E+02 0.11790120963E+02 0.13561064718E+02 0.16107592291E+02
 0.21947742992E+02 0.37002894611E+02 0.65698849900E+02 0.10924362545E+03 0.16522293184E+03
 0.22741576564E+03 0.28579245144E+03 0.32804960394E+03 0.34355472879E+03 0.32804960394E+03
 0.28579245144E+03 0.22741576564E+03 0.16522293184E+03 0.10924362545E+03 0.65698849900E+02
 0.37002894611E+02 0.21947742992E+02 0.16107592291E+02 0.13561064718E+02 0.11790120963E+02
 0.10669840202E+02 0.99975302865E+01 0.95873187855E+01 0.93418984227E+01 0.93418984227E+01
 0.94272200045E+01 0.96691821583E+01 0.10072817078E+02 0.10731242498E+02 0.11824202861E+02
 0.13551215869E+02 0.16022792026E+02 0.21450104367E+02 0.35548034920E+02 0.62700171477E+02
 0.10416118986E+03 0.15762634106E+03 0.21708243202E+03 0.27287840701E+03 0.31324439750E+03
 0.32804960394E+03 0.31324439750E+03 0.27287840701E+03 0.21708243202E+03 0.15762634106E+03
 0.10416118986E+03 0.62700171477E+02 0.35548034920E+02 0.21450104367E+02 0.16022792026E+02
 0.13551215869E+02 0.11824202861E+02 0.10731242498E+02 0.10072817078E+02 0.96691821583E+01
 0.94272200045E+01 0.95873187855E+01 0.96691821583E+01 0.99014918501E+01 0.10286677205E+02
 0.10906013511E+02 0.11921701106E+02 0.13523001571E+02 0.15808362468E+02 0.20186540500E+02
 0.31710428091E+02 0.54633402198E+02 0.90351744188E+02 0.13689742281E+03 0.18886128600E+03
 0.23763470629E+03 0.27287840701E+03 0.28579245144E+03 0.27287840701E+03 0.23763470629E+03
 0.18886128600E+03 0.13689742281E+03 0.90351744188E+02 0.54633402198E+02 0.31710428091E+02
 0.20186540500E+02 0.15808362468E+02 0.13523001571E+02 0.11921701106E+02 0.10906013511E+02
 0.10286677205E+02 0.99014918501E+01 0.96691821583E+01 0.99975302865E+01 0.10072817078E+02
 0.10286677205E+02 0.10638428731E+02 0.11192963074E+02 0.12086977203E+02 0.13491789288E+02
 0.15523676676E+02 0.18698998785E+02 0.26810753897E+02 0.43875043397E+02 0.71508945863E+02
 0.10830647416E+03 0.14979939315E+03 0.18886128600E+03 0.21708243202E+03 0.22741576564E+03
 0.21708243202E+03 0.18886128600E+03 0.14979939315E+03 0.10830647416E+03 0.71508945863E+02
 0.43875043397E+02 0.26810753897E+02 0.18698998785E+02 0.15523676676E+02 0.13491789288E+02
 0.12086977203E+02 0.11192963074E+02 0.10638428731E+02 0.10286677205E+02 0.10072817078E+02
 0.10669840202E+02 0.10731242498E+02 0.10906013511E+02 0.11192963074E+02 0.11642182926E+02
 0.12363741031E+02 0.13505582946E+02 0.15196050228E+02 0.17489436710E+02 0.22329217717E+02
 0.33254307582E+02 0.52114773885E+02 0.78230193299E+02 0.10830647416E+03 0.13689742281E+03
 0.15762634106E+03 0.16522293184E+03 0.15762634106E+03 0.13689742281E+03 0.10830647416E+03
 0.78230193299E+02 0.52114773885E+02 0.33254307582E+02 0.22329217717E+02 0.17489436710E+02
 0.15196050228E+02 0.13505582946E+02 0.12363741031E+02 0.11642182926E+02 0.11192963074E+02
 0.10906013511E+02 0.10731242498E+02 0.11790120963E+02 0.11824202861E+02 0.11921701106E+02
 0.12086977203E+02 0.12363741031E+02 0.12842744078E+02 0.13649257899E+02 0.14909750943E+02
 0.16660327441E+02 0.19225944280E+02 0.24988721675E+02 0.35928766897E+02 0.52114773885E+02
 0.71508945863E+02 0.90351744188E+02 0.10416118986E+03 0.10924362545E+03 0.10416118986E+03
 0.90351744188E+02 0.71508945863E+02 0.52114773885E+02 0.35928766897E+02 0.24988721675E+02
 0.19225944280E+02 0.16660327441E+02 0.14909750943E+02 0.13649257899E+02 0.12842744078E+02
 0.12363741031E+02 0.12086977203E+02 0.11921701106E+02 0.11824202861E+02 0.13561064718E+02
 0.13551215869E+02 0.13523001571E+02 0.13491789288E+02 0.13505582946E+02 0.13649257899E+02
 0.14035056201E+02 0.14781498662E+02 0.15960306082E+02 0.17512331718E+02 0.19962787337E+02
 0.24988721675E+02 0.33254307582E+02 0.43875043397E+02 0.54633402198E+02 0.62700171477E+02
 0.65698849900E+02 0.62700171477E+02 0.54633402198E+02 0.43875043397E+02 0.33254307582E+02
 0.24988721675E+02 0.19962787337E+02 0.17512331718E+02 0.15960306082E+02 0.14781498662E+02
 0.14035056201E+02 0.13649257899E+02 0.13505582946E+02 0.13491789288E+02 0.13523001571E+02
 0.13551215869E+02 0.16107592291E+02 0.16022792026E+02 0.15808362468E+02 0.15523676676E+02
 0.15196050228E+02 0.14909750943E+02 0.14781498662E+02 0.14933432322E+02 0.15455215550E+02
 0.16352132065E+02 0.17512331718E+02 0.19225944280E+02 0.22329217717E+02 0.26810753897E+02
 0.31710428091E+02 0.35548034920E+02 0.37002894611E+02 0.35548034920E+02 0.31710428091E+02
 0.26810753897E+02 0.22329217717E+02 0.19225944280E+02 0.17512331718E+02 0.16352132065E+02
 0.15455215550E+02 0.14933432322E+02 0.14781498662E+02 0.14909750943E+02 0.15196050228E+02
 0.15523676676E+02 0.15808362468E+02 0.16022792026E+02 0.21947742992E+02 0.21450104367E+02
 0.20186540500E+02 0.18698998785E+02 0.17489436710E+02 0.16660327441E+02 0.15960306082E+02
 0.15455215550E+02 0.15270854614E+02 0.15455215550E+02 0.15960306082E+02 0.16660327441E+02
 0.17489436710E+02 0.18698998785E+02 0.20186540500E+02 0.21450104367E+02 0.21947742992E+02
 0.21450104367E+02 0.20186540500E+02 0.18698998785E+02 0.17489436710E+02 0.16660327441E+02
 0.15960306082E+02 0.15455215550E+02 0.15270854614E+02 0.15455215550E+02 0.15960306082E+02
 0.16660327441E+02 0.17489436710E+02 0.18698998785E+02 0.20186540500E+02 0.21450104367E+02
 0.37002894611E+02 0.35548034920E+02 0.31710428091E+02 0.26810753897E+02 0.22329217717E+02
 0.19225944280E+02 0.17512331718E+02 0.16352132065E+02 0.15455215550E+02 0.14933432322E+02
 0.14781498662E+02 0.14909750943E+02 0.15196050228E+02 0.15523676676E+02 0.15808362468E+02
 0.16022792026E+02 0.16107592291E+02 0.16022792026E+02 0.15808362468E+02 0.15523676676E+02
 0.15196050228E+02 0.14909750943E+02 0.14781498662E+02 0.14933432322E+02 0.15455215550E+02
 0.16352132065E+02 0.17512331718E+02 0.19225944280E+02 0.22329217717E+02 0.26810753897E+02
 0.31710428091E+02 0.35548034920E+02 0.65698849900E+02 0.62700171477E+02 0.54633402198E+02
 0.43875043397E+02 0.33254307582E+02 0.24988721675E+02 0.19962787337E+02 0.17512331718E+02
 0.15960306082E+02 0.14781498662E+02 0.14035056201E+02 0.13649257899E+02 0.13505582946E+02
 0.13491789288E+02 0.13523001571E+02 0.13551215869E+02 0.13561064718E+02 0.13551215869E+02
 0.13523001571E+02 0.13491789288E+02 0.13505582946E+02 0.13649257899E+02 0.14035056201E+02
 0.14781498662E+02 0.15960306082E+02 0.17512331718E+02 0.19962787337E+02 0.24988721675E+02
 0.33254307582E+02 0.43875043397E+02 0.54633402198E+02 0.62700171477E+02 0.10924362545E+03
 0.10416118986E+03 0.90351744188E+02 0.71508945863E+02 0.52114773885E+02 0.35928766897E+02
 0.24988721675E+02 0.19225944280E+02 0.16660327441E+02 0.14909750943E+02 0.13649257899E+02
 0.12842744078E+02 0.12363741031E+02 0.12086977203E+02 0.11921701106E+02 0.11824202861E+02
 0.11790120963E+02 0.11824202861E+02 0.11921701106E+02 0.12086977203E+02 0.12363741031E+02
 0.12842744078E+02 0.13649257899E+02 0.14909750943E+02 0.16660327441E+02 0.19225944280E+02
 0.24988721675E+02 0.35928766897E+02 0.52114773885E+02 0.71508945863E+02 0.90351744188E+02
 0.10416118986E+03 0.16522293184E+03 0.15762634106E+03 0.13689742281E+03 0.10830647416E+03
 0.78230193299E+02 0.52114773885E+02 0.33254307582E+02 0.22329217717E+02 0.17489436710E+02
 0.15196050228E+02 0.13505582946E+02 0.12363741031E+02 0.11642182926E+02 0.11192963074E+02
 0.10906013511E+02 0.10731242498E+02 0.10669840202E+02 0.10731242498E+02 0.10906013511E+02
 0.11192963074E+02 0.11642182926E+02 0.12363741031E+02 0.13505582946E+02 0.15196050228E+02
 0.17489436710E+02 0.22329217717E+02 0.33254307582E+02 0.52114773885E+02 0.78230193299E+02
 0.10830647416E+03 0.13689742281E+03 0.15762634106E+03 0.22741576564E+03 0.21708243202E+03
 0.18886128600E+03 0.14979939315E+03 0.10830647416E+03 0.71508945863E+02 0.43875043397E+02
 0.26810753897E+02 0.18698998785E+02 0.15523676676E+02 0.13491789288E+02 0.12086977203E+02
 0.11192963074E+02 0.10638428731E+02 0.10286677205E+02 0.10072817078E+02 0.99975302865E+01
 0.10072817078E+02 0.10286677205E+02 0.10638428731E+02 0.11192963074E+02 0.12086977203E+02
 0.13491789288E+02 0.15523676676E+02 0.18698998785E+02 0.26810753897E+02 0.43875043397E+02
 0.71508945863E+02 0.10830647416E+03 0.14979939315E+03 0.18886128600E+03 0.21708243202E+03
 0.28579245144E+03 0.27287840701E+03 0.23763470629E+03 0.18886128600E+03 0.13689742281E+03
 0.90351744188E+02 0.54633402198E+02 0.31710428091E+02 0.20186540500E+02 0.15808362468E+02
 0.13523001571E+02 0.11921701106E+02 0.10906013511E+02 0.10286677205E+02 0.99014918501E+01
 0.96691821583E+01 0.95873187855E+01 0.96691821583E+01 0.99014918501E+01 0.10286677205E+02
 0.10906013511E+02 0.11921701106E+02 0.13523001571E+02 0.15808362468E+02 0.20186540500E+02
 0.31710428091E+02 0.54633402198E+02 0.90351744188E+02 0.13689742281E+03 0.18886128600E+03
 0.23763470629E+03 0.27287840701E+03 0.32804960394E+03 0.31324439750E+03 0.27287840701E+03
 0.21708243202E+03 0.15762634106E+03 0.10416118986E+03 0.62700171477E+02 0.35548034920E+02
 0.21450104367E+02 0.16022792026E+02 0.13551215869E+02 0.11824202861E+02 0.10731242498E+02
 0.10072817078E+02 0.96691821583E+01 0.94272200045E+01 0.93418984227E+01 0.94272200045E+01
 0.96691821583E+01 0.10072817078E+02 0.10731242498E+02 0.11824202861E+02 0.13551215869E+02
 0.16022792026E+02 0.21450104367E+02 0.35548034920E+02 0.62700171477E+02 0.10416118986E+03
 0.15762634106E+03 0.21708243202E+03 0.27287840701E+03 0.31324439750E+03 0.32804960394E+03
 0.31324439750E+03 0.27287840701E+03 0.21708243202E+03 0.15762634106E+03 0.10416118986E+03
 0.62700171477E+02 0.35548034920E+02 0.21450104367E+02 0.16022792026E+02 0.13551215869E+02
 0.11824202861E+02 0.10731242498E+02 0.10072817078E+02 0.96691821583E+01 0.94272200045E+01
 0.93418984227E+01 0.94272200045E+01 0.96691821583E+01 0.10072817078E+02 0.10731242498E+02
 0.11824202861E+02 0.13551215869E+02 0.16022792026E+02 0.21450104367E+02 0.35548034920E+02
 0.62700171477E+02 0.10416118986E+03 0.15762634106E+03 0.21708243202E+03 0.27287840701E+03
 0.31324439750E+03 0.31324439750E+03 0.29910487449E+03 0.26053960670E+03 0.20720628636E+03
 0.15036907376E+03 0.99315582775E+02 0.59854286971E+02 0.34179174497E+02 0.20988929896E+02
 0.15943051533E+02 0.13540134461E+02 0.11856849071E+02 0.10791059858E+02 0.10146576370E+02
 0.97496616779E+01 0.95112644857E+01 0.94272200045E+01 0.95112644857E+01 0.97496616779E+01
 0.10146576370E+02 0.10791059858E+02 0.11856849071E+02 0.13540134461E+02 0.15943051533E+02
 0.20988929896E+02 0.34179174497E+02 0.59854286971E+02 0.99315582775E+02 0.15036907376E+03
 0.20720628636E+03 0.26053960670E+03 0.29910487449E+03 0.27287840701E+03 0.26053960670E+03
 0.22685711354E+03 0.18023201505E+03 0.13057019722E+03 0.86156904889E+02 0.52206142646E+02
 0.30574227324E+02 0.19820319325E+02 0.15737333911E+02 0.13508715287E+02 0.11950356987E+02
 0.10961354527E+02 0.10356118843E+02 0.99780807536E+01 0.97496616779E+01 0.96691821583E+01
 0.97496616779E+01 0.99780807536E+01 0.10356118843E+02 0.10961354527E+02 0.11950356987E+02
 0.13508715287E+02 0.15737333911E+02 0.19820319325E+02 0.30574227324E+02 0.52206142646E+02
 0.86156904889E+02 0.13057019722E+03 0.18023201505E+03 0.22685711354E+03 0.26053960670E+03
 0.21708243202E+03 0.20720628636E+03 0.18023201505E+03 0.14290090112E+03 0.10328057920E+03
 0.68226714547E+02 0.42029289965E+02 0.25987834191E+02 0.18448824229E+02 0.15451320063E+02
 0.13472961458E+02 0.12109106555E+02 0.11240644810E+02 0.10700215310E+02 0.10356118843E+02
 0.10146576370E+02 0.10072817078E+02 0.10146576370E+02 0.10356118843E+02 0.10700215310E+02
 0.11240644810E+02 0.12109106555E+02 0.13472961458E+02 0.15451320063E+02 0.18448824229E+02
 0.25987834191E+02 0.42029289965E+02 0.68226714547E+02 0.10328057920E+03 0.14290090112E+03
 0.18023201505E+03 0.20720628636E+03 0.15762634106E+03 0.15036907376E+03 0.13057019722E+03
 0.10328057920E+03 0.74621368338E+02 0.49822322616E+02 0.32024410349E+02 0.21817462340E+02
 0.17330754371E+02 0.15120356177E+02 0.13480235341E+02 0.12375153807E+02 0.11676615201E+02
 0.11240644810E+02 0.10961354527E+02 0.10791059858E+02 0.10731242498E+02 0.10791059858E+02
 0.10961354527E+02 0.11240644810E+02 0.11676615201E+02 0.12375153807E+02 0.13480235341E+02
 0.15120356177E+02 0.17330754371E+02 0.21817462340E+02 0.32024410349E+02 0.49822322616E+02
 0.74621368338E+02 0.10328057920E+03 0.13057019722E+03 0.15036907376E+03 0.10416118986E+03
 0.99315582775E+02 0.86156904889E+02 0.68226714547E+02 0.49822322616E+02 0.34538100197E+02
 0.24291664963E+02 0.18949504430E+02 0.16532326271E+02 0.14831371907E+02 0.13613095380E+02
 0.12835956435E+02 0.12375153807E+02 0.12109106555E+02 0.11950356987E+02 0.11856849071E+02
 0.11824202861E+02 0.11856849071E+02 0.11950356987E+02 0.12109106555E+02 0.12375153807E+02
 0.12835956435E+02 0.13613095380E+02 0.14831371907E+02 0.16532326271E+02 0.18949504430E+02
 0.24291664963E+02 0.34538100197E+02 0.49822322616E+02 0.68226714547E+02 0.86156904889E+02
 0.99315582775E+02 0.62700171477E+02 0.59854286971E+02 0.52206142646E+02 0.42029289965E+02
 0.32024410349E+02 0.24291664963E+02 0.19633011829E+02 0.17349493148E+02 0.15838989091E+02
 0.14698202643E+02 0.13980488263E+02 0.13613095380E+02 0.13480235341E+02 0.13472961458E+02
 0.13508715287E+02 0.13540134461E+02 0.13551215869E+02 0.13540134461E+02 0.13508715287E+02
 0.13472961458E+02 0.13480235341E+02 0.13613095380E+02 0.13980488263E+02 0.14698202643E+02
 0.15838989091E+02 0.17349493148E+02 0.19633011829E+02 0.24291664963E+02 0.32024410349E+02
 0.42029289965E+02 0.52206142646E+02 0.59854286971E+02 0.35548034920E+02 0.34179174497E+02
 0.30574227324E+02 0.25987834191E+02 0.21817462340E+02 0.18949504430E+02 0.17349493148E+02
 0.16214147880E+02 0.15341889514E+02 0.14839201175E+02 0.14698202643E+02 0.14831371907E+02
 0.15120356177E+02 0.15451320063E+02 0.15737333911E+02 0.15943051533E+02 0.16022792026E+02
 0.15943051533E+02 0.15737333911E+02 0.15451320063E+02 0.15120356177E+02 0.14831371907E+02
 0.14698202643E+02 0.14839201175E+02 0.15341889514E+02 0.16214147880E+02 0.17349493148E+02
 0.18949504430E+02 0.21817462340E+02 0.25987834191E+02 0.30574227324E+02 0.34179174497E+02
 0.21450104367E+02 0.20988929896E+02 0.19820319325E+02 0.18448824229E+02 0.17330754371E+02
 0.16532326271E+02 0.15838989091E+02 0.15341889514E+02 0.15161008072E+02 0.15341889514E+02
 0.15838989091E+02 0.16532326271E+02 0.17330754371E+02 0.18448824229E+02 0.19820319325E+02
 0.20988929896E+02 0.21450104367E+02 0.20988929896E+02 0.19820319325E+02 0.18448824229E+02
 0.17330754371E+02 0.16532326271E+02 0.15838989091E+02 0.15341889514E+02 0.15161008072E+02
 0.15341889514E+02 0.15838989091E+02 0.16532326271E+02 0.17330754371E+02 0.18448824229E+02
 0.19820319325E+02 0.20988929896E+02 0.16022792026E+02 0.15943051533E+02 0.15737333911E+02
 0.15451320063E+02 0.15120356177E+02 0.14831371907E+02 0.14698202643E+02 0.14839201175E+02
 0.15341889514E+02 0.16214147880E+02 0.17349493148E+02 0.18949504430E+02 0.21817462340E+02
 0.25987834191E+02 0.30574227324E+02 0.34179174497E+02 0.35548034920E+02 0.34179174497E+02
 0.30574227324E+02 0.25987834191E+02 0.21817462340E+02 0.18949504430E+02 0.17349493148E+02
 0.16214147880E+02 0.15341889514E+02 0.14839201175E+02 0.14698202643E+02 0.14831371907E+02
 0.15120356177E+02 0.15451320063E+02 0.15737333911E+02 0.15943051533E+02 0.13551215869E+02
 0.13540134461E+02 0.13508715287E+02 0.13472961458E+02 0.13480235341E+02 0.13613095380E+02
 0.13980488263E+02 0.14698202643E+02 0.15838989091E+02 0.17349493148E+02 0.19633011829E+02
 0.24291664963E+02 0.32024410349E+02 0.42029289965E+02 0.52206142646E+02 0.59854286971E+02
 0.62700171477E+02 0.59854286971E+02 0.52206142646E+02 0.42029289965E+02 0.32024410349E+02
 0.24291664963E+02 0.19633011829E+02 0.17349493148E+02 0.15838989091E+02 0.14698202643E+02
 0.13980488263E+02 0.13613095380E+02 0.13480235341E+02 0.13472961458E+02 0.13508715287E+02
 0.13540134461E+02 0.11824202861E+02 0.11856849071E+02 0.11950356987E+02 0.12109106555E+02
 0.12375153807E+02 0.12835956435E+02 0.13613095380E+02 0.14831371907E+02 0.16532326271E+02
 0.18949504430E+02 0.24291664963E+02 0.34538100197E+02 0.49822322616E+02 0.68226714547E+02
 0.86156904889E+02 0.99315582775E+02 0.10416118986E+03 0.99315582775E+02 0.86156904889E+02
 0.68226714547E+02 0.49822322616E+02 0.34538100197E+02 0.24291664963E+02 0.18949504430E+02
 0.16532326271E+02 0.14831371907E+02 0.13613095380E+02 0.12835956435E+02 0.12375153807E+02
 0.12109106555E+02 0.11950356987E+02 0.11856849071E+02 0.10731242498E+02 0.10791059858E+02
 0.10961354527E+02 0.11240644810E+02 0.11676615201E+02 0.12375153807E+02 0.13480235341E+02
 0.15120356177E+02 0.17330754371E+02 0.21817462340E+02 0.32024410349E+02 0.49822322616E+02
 0.74621368338E+02 0.10328057920E+03 0.13057019722E+03 0.15036907376E+03 0.15762634106E+03
 0.15036907376E+03 0.13057019722E+03 0.10328057920E+03 0.74621368338E+02 0.49822322616E+02
 0.32024410349E+02 0.21817462340E+02 0.17330754371E+02 0.15120356177E+02 0.13480235341E+02
 0.12375153807E+02 0.11676615201E+02 0.11240644810E+02 0.10961354527E+02 0.10791059858E+02
 0.10072817078E+02 0.10146576370E+02 0.10356118843E+02 0.10700215310E+02 0.11240644810E+02
 0.12109106555E+02 0.13472961458E+02 0.15451320063E+02 0.18448824229E+02 0.25987834191E+02
 0.42029289965E+02 0.68226714547E+02 0.10328057920E+03 0.14290090112E+03 0.18023201505E+03
 0.20720628636E+03 0.21708243202E+03 0.20720628636E+03 0.18023201505E+03 0.14290090112E+03
 0.10328057920E+03 0.68226714547E+02 0.42029289965E+02 0.25987834191E+02 0.18448824229E+02
 0.15451320063E+02 0.13472961458E+02 0.12109106555E+02 0.11240644810E+02 0.10700215310E+02
 0.10356118843E+02 0.10146576370E+02 0.96691821583E+01 0.97496616779E+01 0.99780807536E+01
 0.10356118843E+02 0.10961354527E+02 0.11950356987E+02 0.13508715287E+02 0.15737333911E+02
 0.19820319325E+02 0.30574227324E+02 0.52206142646E+02 0.86156904889E+02 0.13057019722E+03
 0.18023201505E+03 0.22685711354E+03 0.26053960670E+03 0.27287840701E+03 0.26053960670E+03
 0.22685711354E+03 0.18023201505E+03 0.13057019722E+03 0.86156904889E+02 0.52206142646E+02
 0.30574227324E+02 0.19820319325E+02 0.15737333911E+02 0.13508715287E+02 0.11950356987E+02
 0.10961354527E+02 0.10356118843E+02 0.99780807536E+01 0.97496616779E+01 0.94272200045E+01
 0.95112644857E+01 0.97496616779E+01 0.10146576370E+02 0.10791059858E+02 0.11856849071E+02
 0.13540134461E+02 0.15943051533E+02 0.20988929896E+02 0.34179174497E+02 0.59854286971E+02
 0.99315582775E+02 0.15036907376E+03 0.20720628636E+03 0.26053960670E+03 0.29910487449E+03
 0.31324439750E+03 0.29910487449E+03 0.26053960670E+03 0.20720628636E+03 0.15036907376E+03
 0.99315582775E+02 0.59854286971E+02 0.34179174497E+02 0.20988929896E+02 0.15943051533E+02
 0.13540134461E+02 0.11856849071E+02 0.10791059858E+02 0.10146576370E+02 0.97496616779E+01
 0.95112644857E+01 0.93418984227E+01 0.94272200045E+01 0.96691821583E+01 0.10072817078E+02
 0.10731242498E+02 0.11824202861E+02 0.13551215869E+02 0.16022792026E+02 0.21450104367E+02
 0.35548034920E+02 0.62700171477E+02 0.10416118986E+03 0.15762634106E+03 0.21708243202E+03
 0.27287840701E+03 0.31324439750E+03 0.32804960394E+03 0.31324439750E+03 0.27287840701E+03
 0.21708243202E+03 0.15762634106E+03 0.10416118986E+03 0.62700171477E+02 0.35548034920E+02
 0.21450104367E+02 0.16022792026E+02 0.13551215869E+02 0.11824202861E+02 0.10731242498E+02
 0.10072817078E+02 0.96691821583E+01 0.94272200045E+01 0.94272200045E+01 0.95112644857E+01
 0.97496616779E+01 0.10146576370E+02 0.10791059858E+02 0.11856849071E+02 0.13540134461E+02
 0.15943051533E+02 0.20988929896E+02 0.34179174497E+02 0.59854286971E+02 0.99315582775E+02
 0.15036907376E+03 0.20720628636E+03 0.26053960670E+03 0.29910487449E+03 0.31324439750E+03
 0.29910487449E+03 0.26053960670E+03 0.20720628636E+03 0.15036907376E+03 0.99315582775E+02
 0.59854286971E+02 0.34179174497E+02 0.20988929896E+02 0.15943051533E+02 0.13540134461E+02
 0.11856849071E+02 0.10791059858E+02 0.10146576370E+02 0.97496616779E+01 0.95112644857E+01
 0.96691821583E+01 0.97496616779E+01 0.99780807536E+01 0.10356118843E+02 0.10961354527E+02
 0.11950356987E+02 0.13508715287E+02 0.15737333911E+02 0.19820319325E+02 0.30574227324E+02
 0.52206142646E+02 0.86156904889E+02 0.13057019722E+03 0.18023201505E+03 0.22685711354E+03
 0.26053960670E+03 0.27287840701E+03 0.26053960670E+03 0.22685711354E+03 0.18023201505E+03
 0.13057019722E+03 0.86156904889E+02 0.52206142646E+02 0.30574227324E+02 0.19820319325E+02