   4   4   0   0
  0.1022208E+02  0.3445083E-09  0.3445083E-09  0.3445083E-09  0.5000000E-15
  1.000000000000000E-004
  CAR 
 unknown system                          
     38.62033039     -4.02742283  301      6.80433349      1.00000000
     -4.027  0.0000E+00  0.0000E+00
     -3.885  0.0000E+00  0.0000E+00
     -3.743 -0.1090E-32 -0.1550E-33
     -3.601 -0.1193E-27 -0.1696E-28
     -3.459 -0.4715E-23 -0.6703E-24
     -3.317 -0.6717E-19 -0.9549E-20
     -3.174 -0.3327E-15 -0.4731E-16
     -3.032 -0.6071E-12 -0.8635E-13
     -2.890 -0.3918E-09 -0.5578E-10
     -2.748 -0.8855E-07 -0.1264E-07
     -2.606 -0.6829E-05 -0.9835E-06
     -2.464 -0.1684E-03 -0.2492E-04
     -2.322 -0.1048E-02 -0.1740E-03
     -2.179  0.1127E-02 -0.1369E-04
     -2.037  0.1198E-01  0.1689E-02
     -1.895  0.2841E-01  0.5727E-02
     -1.753  0.9590E-01  0.1936E-01
     -1.611  0.1419E+00  0.3953E-01
     -1.469  0.2262E+00  0.7168E-01
     -1.326  0.2559E+00  0.1081E+00
     -1.184  0.1875E+00  0.1347E+00
     -1.042  0.1540E+00  0.1566E+00
     -0.900  0.1129E+00  0.1727E+00
     -0.758  0.2190E+00  0.2038E+00
     -0.616  0.5139E+00  0.2769E+00
     -0.473  0.6011E+00  0.3623E+00
     -0.331  0.5687E+00  0.4431E+00
     -0.189  0.2207E+00  0.4745E+00
     -0.047 -0.8441E-02  0.4733E+00
      0.095  0.1887E+00  0.5001E+00
      0.237  0.5515E+00  0.5785E+00
      0.380  0.7515E+00  0.6854E+00
      0.522  0.6445E+00  0.7770E+00
      0.664  0.6979E+00  0.8762E+00
      0.806  0.7517E+00  0.9831E+00
      0.948  0.3606E+00  0.1034E+01
      1.090  0.1642E+00  0.1058E+01
      1.232  0.1029E+01  0.1204E+01
      1.375  0.1455E+01  0.1411E+01
      1.517  0.8957E+00  0.1538E+01
      1.659  0.8478E+00  0.1659E+01
      1.801  0.1087E+01  0.1813E+01
      1.943  0.1873E+01  0.2079E+01
      2.085  0.2933E+01  0.2496E+01
      2.228  0.4607E+01  0.3151E+01
      2.370  0.4948E+01  0.3855E+01
      2.512  0.2597E+01  0.4224E+01
      2.654  0.3606E+01  0.4737E+01
      2.796  0.6554E+01  0.5668E+01
      2.938  0.5440E+01  0.6442E+01
      3.081  0.4689E+01  0.7108E+01
      3.223  0.6751E+01  0.8068E+01
      3.365  0.6777E+01  0.9031E+01
      3.507  0.4586E+01  0.9683E+01
      3.649  0.5184E+01  0.1042E+02
      3.791  0.6065E+01  0.1128E+02
      3.933  0.4967E+01  0.1199E+02
      4.076  0.4257E+01  0.1259E+02
      4.218  0.5245E+01  0.1334E+02
      4.360  0.4853E+01  0.1403E+02
      4.502  0.5281E+01  0.1478E+02
      4.644  0.8055E+01  0.1593E+02
      4.786  0.8482E+01  0.1713E+02
      4.929  0.6386E+01  0.1804E+02
      5.071  0.6717E+01  0.1899E+02
      5.213  0.7942E+01  0.2012E+02
      5.355  0.8600E+01  0.2135E+02
      5.497  0.1067E+02  0.2286E+02
      5.639  0.9984E+01  0.2428E+02
      5.782  0.6747E+01  0.2524E+02
      5.924  0.5013E+01  0.2595E+02
      6.066  0.4654E+01  0.2661E+02
      6.208  0.6384E+01  0.2752E+02
      6.350  0.7023E+01  0.2852E+02
      6.492  0.6460E+01  0.2944E+02
      6.635  0.7638E+01  0.3052E+02
      6.777  0.8699E+01  0.3176E+02
      6.919  0.7725E+01  0.3286E+02
      7.061  0.5141E+01  0.3359E+02
      7.203  0.5455E+01  0.3437E+02
      7.345  0.7728E+01  0.3546E+02
      7.487  0.7611E+01  0.3655E+02
      7.630  0.8667E+01  0.3778E+02
      7.772  0.1213E+02  0.3950E+02
      7.914  0.1139E+02  0.4112E+02
      8.056  0.5680E+01  0.4193E+02
      8.198  0.1409E+01  0.4213E+02
      8.340  0.9200E-01  0.4214E+02
      8.483  0.1585E+01  0.4237E+02
      8.625  0.3649E+01  0.4289E+02
      8.767  0.2075E+01  0.4318E+02
      8.909  0.2785E+00  0.4322E+02
      9.051  0.7236E+00  0.4333E+02
      9.193  0.1336E+01  0.4352E+02
      9.336  0.8089E+00  0.4363E+02
      9.478  0.4668E+00  0.4370E+02
      9.620  0.1299E+01  0.4388E+02
      9.762  0.1089E+01  0.4404E+02
      9.904  0.6198E+00  0.4412E+02
     10.046  0.1669E+01  0.4436E+02
     10.188  0.2213E+01  0.4468E+02
     10.331  0.8220E+00  0.4479E+02
     10.473  0.2247E+00  0.4482E+02
     10.615  0.4203E+00  0.4488E+02
     10.757  0.5133E+00  0.4496E+02
     10.899  0.1568E+01  0.4518E+02
     11.041  0.1903E+01  0.4545E+02
     11.184  0.1246E+01  0.4563E+02
     11.326  0.1722E+01  0.4587E+02
     11.468  0.1178E+01  0.4604E+02
     11.610  0.4710E-01  0.4605E+02
     11.752  0.1345E+00  0.4607E+02
     11.894  0.5806E+00  0.4615E+02
     12.037  0.5633E+00  0.4623E+02
     12.179  0.8443E+00  0.4635E+02
     12.321  0.1031E+01  0.4650E+02
     12.463  0.8613E+00  0.4662E+02
     12.605  0.9915E+00  0.4676E+02
     12.747  0.5203E+00  0.4683E+02
     12.890  0.8482E+00  0.4695E+02
     13.032  0.9761E+00  0.4709E+02
     13.174  0.3927E+00  0.4715E+02
     13.316  0.2870E-02  0.4715E+02
     13.458  0.3293E+00  0.4720E+02
     13.600  0.1712E+01  0.4744E+02
     13.742  0.1726E+01  0.4768E+02
     13.885  0.3628E+00  0.4774E+02
     14.027 -0.8023E-01  0.4772E+02
     14.169 -0.2473E-01  0.4772E+02
     14.311 -0.2851E-02  0.4772E+02
     14.453 -0.1007E-01  0.4772E+02
     14.595  0.4913E-02  0.4772E+02
     14.738  0.1650E+00  0.4774E+02
     14.880  0.2486E+00  0.4778E+02
     15.022  0.1651E+00  0.4780E+02
     15.164  0.5054E+00  0.4787E+02
     15.306  0.1696E+01  0.4811E+02
     15.448  0.2353E+01  0.4845E+02
     15.591  0.1864E+01  0.4871E+02
     15.733  0.2054E+01  0.4901E+02
     15.875  0.1237E+01  0.4918E+02
     16.017  0.5904E+00  0.4927E+02
     16.159  0.1153E+01  0.4943E+02
     16.301  0.1226E+01  0.4960E+02
     16.443  0.1043E+01  0.4975E+02
     16.586  0.4283E+00  0.4981E+02
     16.728  0.7532E+00  0.4992E+02
     16.870  0.1425E+01  0.5012E+02
     17.012  0.1809E+01  0.5038E+02
     17.154  0.1477E+01  0.5059E+02
     17.296  0.3938E+00  0.5065E+02
     17.439  0.5691E-01  0.5065E+02
     17.581  0.2535E+00  0.5069E+02
     17.723  0.1148E+01  0.5085E+02
     17.865  0.2033E+01  0.5114E+02
     18.007  0.1340E+01  0.5133E+02
     18.149  0.4596E+00  0.5140E+02
     18.292  0.6262E+00  0.5149E+02
     18.434  0.1439E+01  0.5169E+02
     18.576  0.1505E+01  0.5191E+02
     18.718  0.1157E+01  0.5207E+02
     18.860  0.1257E+01  0.5225E+02
     19.002  0.1214E+01  0.5242E+02
     19.145  0.7108E+00  0.5252E+02
     19.287  0.7897E+00  0.5263E+02
     19.429  0.8912E+00  0.5276E+02
     19.571  0.8156E+00  0.5288E+02
     19.713  0.1371E+01  0.5307E+02
     19.855  0.1785E+01  0.5333E+02
     19.997  0.2137E+01  0.5363E+02
     20.140  0.2538E+01  0.5399E+02
     20.282  0.2079E+01  0.5429E+02
     20.424  0.9033E+00  0.5441E+02
     20.566  0.8817E+00  0.5454E+02
     20.708  0.2292E+01  0.5487E+02
     20.850  0.2241E+01  0.5518E+02
     20.993  0.7623E+00  0.5529E+02
     21.135  0.1238E+01  0.5547E+02
     21.277  0.2371E+01  0.5581E+02
     21.419  0.1345E+01  0.5600E+02
     21.561  0.1206E+00  0.5601E+02
     21.703  0.5327E+00  0.5609E+02
     21.846  0.2352E+01  0.5642E+02
     21.988  0.3771E+01  0.5696E+02
     22.130  0.1994E+01  0.5724E+02
     22.272  0.3871E+00  0.5730E+02
     22.414  0.9463E+00  0.5743E+02
     22.556  0.1447E+01  0.5764E+02
     22.699  0.1418E+01  0.5784E+02
     22.841  0.1296E+01  0.5802E+02
     22.983  0.2576E+01  0.5839E+02
     23.125  0.3302E+01  0.5886E+02
     23.267  0.1766E+01  0.5911E+02
     23.409  0.8112E+00  0.5923E+02
     23.551  0.1155E+01  0.5939E+02
     23.694  0.1587E+01  0.5962E+02
     23.836  0.1966E+01  0.5990E+02
     23.978  0.1416E+01  0.6010E+02
     24.120  0.1152E+01  0.6026E+02
     24.262  0.2447E+01  0.6061E+02
     24.404  0.3810E+01  0.6115E+02
     24.547  0.2723E+01  0.6154E+02
     24.689  0.3868E+00  0.6159E+02
     24.831 -0.1595E-01  0.6159E+02
     24.973  0.1422E+01  0.6179E+02
     25.115  0.2911E+01  0.6221E+02
     25.257  0.2079E+01  0.6250E+02
     25.400  0.1760E+01  0.6275E+02
     25.542  0.1777E+01  0.6300E+02
     25.684  0.8466E+00  0.6312E+02
     25.826  0.1370E+01  0.6332E+02
     25.968  0.1620E+01  0.6355E+02
     26.110  0.1368E+01  0.6374E+02
     26.252  0.1591E+01  0.6397E+02
     26.395  0.1216E+01  0.6414E+02
     26.537  0.1360E+01  0.6434E+02
     26.679  0.1432E+01  0.6454E+02
     26.821  0.1322E+01  0.6473E+02
     26.963  0.1895E+01  0.6500E+02
     27.105  0.1931E+01  0.6527E+02
     27.248  0.1081E+01  0.6543E+02
     27.390  0.8736E+00  0.6555E+02
     27.532  0.3069E+01  0.6599E+02
     27.674  0.2851E+01  0.6639E+02
     27.816  0.7125E+00  0.6649E+02
     27.958  0.3830E+00  0.6655E+02
     28.101  0.9386E+00  0.6668E+02
     28.243  0.2025E+01  0.6697E+02
     28.385  0.2423E+01  0.6731E+02
     28.527  0.1330E+01  0.6750E+02
     28.669  0.3094E+00  0.6755E+02
     28.811  0.1461E+00  0.6757E+02
     28.954  0.2005E+00  0.6760E+02
     29.096  0.1218E+01  0.6777E+02
     29.238  0.3695E+01  0.6829E+02
     29.380  0.3316E+01  0.6877E+02
     29.522  0.1129E+01  0.6893E+02
     29.664  0.4135E+00  0.6898E+02
     29.806  0.6025E+00  0.6907E+02
     29.949  0.2202E+01  0.6938E+02
     30.091  0.3236E+01  0.6984E+02
     30.233  0.2603E+01  0.7021E+02
     30.375  0.2006E+01  0.7050E+02
     30.517  0.1322E+01  0.7069E+02
     30.659  0.9827E+00  0.7083E+02
     30.802  0.5981E+00  0.7091E+02
     30.944  0.2072E+01  0.7121E+02
     31.086  0.3332E+01  0.7168E+02
     31.228  0.1136E+01  0.7184E+02
     31.370 -0.2387E+00  0.7181E+02
     31.512  0.4176E+00  0.7187E+02
     31.655  0.2758E+01  0.7226E+02
     31.797  0.3738E+01  0.7279E+02
     31.939  0.1911E+01  0.7306E+02
     32.081  0.1964E+01  0.7334E+02
     32.223  0.2510E+01  0.7370E+02
     32.365  0.1680E+01  0.7394E+02
     32.507  0.1790E+01  0.7419E+02
     32.650  0.3064E+01  0.7463E+02
     32.792  0.2718E+01  0.7501E+02
     32.934  0.2047E+01  0.7530E+02
     33.076  0.2713E+01  0.7569E+02
     33.218  0.1773E+01  0.7594E+02
     33.360  0.6815E+00  0.7604E+02
     33.503  0.1126E+01  0.7620E+02
     33.645  0.1104E+01  0.7636E+02
     33.787  0.5191E+00  0.7643E+02
     33.929  0.3959E+00  0.7649E+02
     34.071  0.1248E+01  0.7666E+02
     34.213  0.2754E+01  0.7705E+02
     34.356  0.2599E+01  0.7742E+02
     34.498  0.6888E+00  0.7752E+02
     34.640  0.1246E+01  0.7770E+02
     34.782  0.3772E+01  0.7824E+02
     34.924  0.3752E+01  0.7877E+02
     35.066  0.2180E+01  0.7908E+02
     35.209  0.1092E+01  0.7923E+02
     35.351  0.6248E+00  0.7932E+02
     35.493  0.1236E+00  0.7934E+02
     35.635  0.1226E+00  0.7936E+02
     35.777  0.3678E+00  0.7941E+02
     35.919  0.5761E+00  0.7949E+02
     36.061  0.3677E+00  0.7954E+02
     36.204 -0.2526E-01  0.7954E+02
     36.346  0.6797E-01  0.7955E+02
     36.488  0.8879E+00  0.7968E+02
     36.630  0.1515E+01  0.7989E+02
     36.772  0.7913E+00  0.8000E+02
     36.914  0.2349E-01  0.8001E+02
     37.057 -0.4655E-01  0.8000E+02
     37.199 -0.6161E-02  0.8000E+02
     37.341 -0.2249E-03  0.8000E+02
     37.483 -0.2713E-05  0.8000E+02
     37.625 -0.1137E-07  0.8000E+02
     37.767 -0.1689E-10  0.8000E+02
     37.910 -0.9180E-14  0.8000E+02
     38.052  0.0000E+00  0.8000E+02
     38.194  0.0000E+00  0.8000E+02
     38.336  0.0000E+00  0.8000E+02
     38.478  0.0000E+00  0.8000E+02
     38.620  0.0000E+00  0.8000E+02
