    4    4    1    1
  0.1022208E+02  0.3445083E-09  0.3445083E-09  0.3445083E-09  0.5000000E-15
  1.000000000000000E-004
  CAR 
 unknown system                          
     32     20     40
 
  0.0000000E+00  0.0000000E+00  0.0000000E+00  0.2915452E-02
    1       -2.027423   1.000000
    2        1.871097   1.000000
    3        1.871097   1.000000
    4        1.871097   1.000000
    5        2.617189   1.000000
    6        2.617189   1.000000
    7        2.617189   1.000000
    8        5.189025   1.000000
    9        5.189025   1.000000
   10        5.189025   1.000000
   11        6.748948   0.724688
   12        6.748948   0.724688
   13        7.787092  -0.000000
   14        7.787092  -0.000000
   15        7.787092  -0.000000
   16        8.089983  -0.000000
   17        8.089983  -0.000000
   18        8.089983  -0.000000
   19        8.089983  -0.000000
   20        8.089983  -0.000000
   21        8.089983  -0.000000
   22       10.079941  -0.000000
   23       10.079941  -0.000000
   24       10.079941  -0.000000
   25       18.580737   0.000000
   26       18.580737   0.000000
   27       18.580737   0.000000
   28       23.086103   0.000000
   29       23.086103   0.000000
   30       23.086103   0.000000
   31       23.086103   0.000000
   32       23.086103   0.000000
   33       23.086103   0.000000
   34       28.521104   0.000000
   35       28.521104   0.000000
   36       28.521104   0.000000
   37       30.153267   0.000000
   38       33.432043   0.000000
   39       33.432043   0.000000
   40       33.432043   0.000000
 
  0.1428571E+00  0.0000000E+00  0.0000000E+00  0.1749271E-01
    1       -1.738174   1.000000
    2        1.933327   1.000000
    3        2.047707   1.000000
    4        2.047707   1.000000
    5        2.729169   1.000000
    6        2.748708   1.000000
    7        2.748708   1.000000
    8        5.042675   1.000000
    9        5.294949   1.000000
   10        5.294949   1.000000
   11        6.613372   1.019779
   12        6.797821   0.527543
   13        7.165013  -0.014301
   14        7.165013  -0.014301
   15        7.609903  -0.000000
   16        7.609903  -0.000000
   17        7.733506  -0.000000
   18        7.888400  -0.000000
   19        7.888400  -0.000000
   20        8.090331  -0.000000
   21        8.090331  -0.000000
   22        9.008588  -0.000000
   23       11.205181  -0.000000
   24       11.205181  -0.000000
   25       18.577744   0.000000
   26       18.577744   0.000000
   27       20.014540   0.000000
   28       21.923551   0.000000
   29       21.923551   0.000000
   30       22.462248   0.000000
   31       22.462248   0.000000
   32       23.568749   0.000000
   33       23.568749   0.000000
   34       28.553041   0.000000
   35       29.931461   0.000000
   36       29.931461   0.000000
   37       29.957951   0.000000
   38       33.547413   0.000000
   39       34.126392   0.000000
   40       34.298027   0.000000
 
  0.2857143E+00  0.0000000E+00  0.0000000E+00  0.1749271E-01
    1       -0.908942   1.000000
    2        1.967781   1.000000
    3        2.501532   1.000000
    4        2.501532   1.000000
    5        3.050119   1.000000
    6        3.143167   1.000000
    7        3.143167   1.000000
    8        4.645953   1.000000
    9        5.606977   1.000000
   10        5.606977   1.000000
   11        5.854517   1.000000
   12        5.854517   1.000000
   13        6.260011   1.000407
   14        6.936825   0.053923
   15        7.130890  -0.021557
   16        7.147164  -0.017935
   17        7.147164  -0.017935
   18        7.371777  -0.000225
   19        7.371777  -0.000225
   20        7.584121  -0.000000
   21        8.091403  -0.000000
   22        8.091403  -0.000000
   23       13.110973   0.000000
   24       13.110973   0.000000
   25       18.576706   0.000000
   26       18.576706   0.000000
   27       19.766433   0.000000
   28       19.766433   0.000000
   29       21.354739   0.000000
   30       21.354739   0.000000
   31       23.040209   0.000000
   32       24.914922   0.000000
   33       24.914922   0.000000
   34       28.655380   0.000000
   35       29.541685   0.000000
   36       31.698214   0.000000
   37       31.852983   0.000000
   38       31.852983   0.000000
   39       32.859484   0.000000
   40       32.859484   0.000000
 
  0.4285714E+00  0.0000000E+00  0.0000000E+00  0.1749271E-01
    1        0.305821   1.000000
    2        1.478435   1.000000
    3        2.955598   1.000000
    4        2.955598   1.000000
    5        3.534009   1.000000
    6        3.798821   1.000000
    7        3.798821   1.000000
    8        4.102051   1.000000
    9        4.709176   1.000000
   10        4.709176   1.000000
   11        5.881179   1.000000
   12        5.957307   1.000000
   13        6.100545   1.000004
   14        6.100545   1.000004
   15        6.679044   0.931530
   16        6.679044   0.931530
   17        6.722273   0.816940
   18        6.722273   0.816940
   19        7.140826  -0.019318
   20        7.371741  -0.000226
   21        8.091800  -0.000000
   22        8.091800  -0.000000
   23       15.231646   0.000000
   24       15.231646   0.000000
   25       17.475009   0.000000
   26       17.475009   0.000000
   27       18.583611   0.000000
   28       18.583611   0.000000
   29       20.637634   0.000000
   30       20.637634   0.000000
   31       26.318966   0.000000
   32       26.897199   0.000000
   33       26.897199   0.000000
   34       28.848932   0.000000
   35       29.141774   0.000000
   36       29.198320   0.000000
   37       29.284342   0.000000
   38       29.284342   0.000000
   39       35.312418   0.000000
   40       36.461952   0.000000
 
  0.1428571E+00  0.1428571E+00  0.0000000E+00  0.3498542E-01
    1       -1.455466   1.000000
    2        2.116860   1.000000
    3        2.116860   1.000000
    4        2.213080   1.000000
    5        2.854012   1.000000
    6        2.854012   1.000000
    7        2.868970   1.000000
    8        4.965529   1.000000
    9        5.343423   1.000000
   10        5.366611   1.000000
   11        6.580577   1.033468
   12        6.705690   0.866351
   13        6.781527   0.595812
   14        6.830744   0.389322
   15        6.830744   0.389322
   16        7.456699  -0.000020
   17        7.601232  -0.000000
   18        7.601232  -0.000000
   19        7.887568  -0.000000
   20        7.887568  -0.000000
   21        7.962652  -0.000000
   22       10.170889  -0.000000
   23       10.170889  -0.000000
   24       11.995622  -0.000000
   25       18.423168   0.000000
   26       19.960515   0.000000
   27       20.056224   0.000000
   28       20.056224   0.000000
   29       22.343471   0.000000
   30       22.343471   0.000000
   31       22.919679   0.000000
   32       22.919679   0.000000
   33       24.023957   0.000000
   34       29.387495   0.000000
   35       29.802507   0.000000
   36       30.033577   0.000000
   37       30.033577   0.000000
   38       31.602191   0.000000
   39       34.290004   0.000000
   40       34.872697   0.000000
 
  0.2857143E+00  0.1428571E+00  0.0000000E+00  0.6997085E-01
    1       -0.646170   1.000000
    2        2.169256   1.000000
    3        2.593969   1.000000
    4        2.646579   1.000000
    5        3.155190   1.000000
    6        3.216468   1.000000
    7        3.227422   1.000000
    8        4.630506   1.000000
    9        5.542268   1.000000
   10        5.576691   1.000000
   11        5.622289   1.000000
   12        5.699381   1.000000
   13        6.065800   1.000001
   14        6.331316   1.002071
   15        6.956353   0.020876
   16        7.049120  -0.035458
   17        7.158346  -0.015608
   18        7.369149  -0.000241
   19        7.396868  -0.000115
   20        7.885200  -0.000000
   21        7.894416  -0.000000
   22        8.583226  -0.000000
   23       11.831182  -0.000000
   24       13.672849   0.000000
   25       17.106628   0.000000
   26       19.180522   0.000000
   27       20.106291   0.000000
   28       20.154028   0.000000
   29       21.888004   0.000000
   30       22.864609   0.000000
   31       23.477937   0.000000
   32       23.796857   0.000000
   33       24.427547   0.000000
   34       28.167026   0.000000
   35       29.204282   0.000000
   36       30.368784   0.000000
   37       31.557314   0.000000
   38       33.011712   0.000000
   39       33.390665   0.000000
   40       34.307037   0.000000
 
  0.4285714E+00  0.1428571E+00  0.0000000E+00  0.6997085E-01
    1        0.539635   1.000000
    2        1.691983   1.000000
    3        3.092253   1.000000
    4        3.114000   1.000000
    5        3.607266   1.000000
    6        3.743265   1.000000
    7        3.843746   1.000000
    8        4.134195   1.000000
    9        4.520679   1.000000
   10        4.685311   1.000000
   11        5.473334   1.000000
   12        5.525900   1.000000
   13        6.104863   1.000004
   14        6.356867   1.003451
   15        6.640347   0.994973
   16        6.687892   0.911870
   17        6.721270   0.820113
   18        6.878788   0.207856
   19        7.262158  -0.002819
   20        7.693993  -0.000000
   21        7.881628  -0.000000
   22        7.881957  -0.000000
   23       13.539114   0.000000
   24       15.279228   0.000000
   25       15.688369   0.000000
   26       17.879312   0.000000
   27       19.364431   0.000000
   28       19.808678   0.000000
   29       21.768425   0.000000
   30       22.622100   0.000000
   31       25.029150   0.000000
   32       25.074089   0.000000
   33       26.673935   0.000000
   34       27.057235   0.000000
   35       27.473728   0.000000
   36       30.986116   0.000000
   37       31.009343   0.000000
   38       32.052977   0.000000
   39       34.947452   0.000000
   40       36.583653   0.000000
 
  0.2857143E+00  0.2857143E+00  0.0000000E+00  0.3498542E-01
    1        0.102085   1.000000
    2        2.706247   1.000000
    3        2.706247   1.000000
    4        3.024607   1.000000
    5        3.427407   1.000000
    6        3.465675   1.000000
    7        3.465675   1.000000
    8        4.499450   1.000000
    9        5.035445   1.000000
   10        5.035445   1.000000
   11        5.237419   1.000000
   12        5.451515   1.000000
   13        5.772833   1.000000
   14        6.235984   1.000220
   15        6.765416   0.661266
   16        7.010183  -0.027902
   17        7.010183  -0.027902
   18        7.249383  -0.003614
   19        7.366063  -0.000262
   20        7.366063  -0.000262
   21        7.593144  -0.000000
   22        9.923503  -0.000000
   23        9.923503  -0.000000
   24       14.774277   0.000000
   25       15.059451   0.000000
   26       19.377492   0.000000
   27       21.204506   0.000000
   28       21.204506   0.000000
   29       21.895337   0.000000
   30       21.895337   0.000000
   31       24.364658   0.000000
   32       24.364658   0.000000
   33       26.240532   0.000000
   34       26.518211   0.000000
   35       26.897615   0.000000
   36       30.295872   0.000000
   37       33.482786   0.000000
   38       33.482786   0.000000
   39       35.218550   0.000000
   40       35.667415   0.000000
 
  0.4285714E+00  0.2857143E+00  0.0000000E+00  0.6997085E-01
    1        1.190359   1.000000
    2        2.263476   1.000000
    3        3.333709   1.000000
    4        3.528335   1.000000
    5        3.617033   1.000000
    6        3.813596   1.000000
    7        3.962281   1.000000
    8        4.194771   1.000000
    9        4.195866   1.000000
   10        4.592946   1.000000
   11        4.876474   1.000000
   12        5.210951   1.000000
   13        6.163338   1.000028
   14        6.232602   1.000201
   15        6.469032   1.019582
   16        6.570471   1.034948
   17        6.605332   1.024601
   18        6.734738   0.775649
   19        7.376079  -0.000201
   20        7.431502  -0.000043
   21        7.801841  -0.000000
   22        8.597260  -0.000000
   23       11.311736  -0.000000
   24       12.861461   0.000000
   25       16.885781   0.000000
   26       18.967126   0.000000
   27       19.873980   0.000000
   28       20.719876   0.000000
   29       22.682136   0.000000
   30       23.304363   0.000000
   31       24.393736   0.000000
   32       24.943110   0.000000
   33       25.106957   0.000000
   34       26.264965   0.000000
   35       28.134826   0.000000
   36       32.146233   0.000000
   37       32.635654   0.000000
   38       34.262205   0.000000
   39       35.179340   0.000000
   40       36.466853   0.000000
 
  0.4285714E+00  0.4285714E+00  0.0000000E+00  0.3498542E-01
    1        2.090154   1.000000
    2        2.949499   1.000000
    3        2.949499   1.000000
    4        3.398292   1.000000
    5        4.049008   1.000000
    6        4.105382   1.000000
    7        4.105382   1.000000
    8        4.199375   1.000000
    9        4.394520   1.000000
   10        4.448304   1.000000
   11        4.448304   1.000000
   12        4.928036   1.000000
   13        6.033423   1.000000
   14        6.204624   1.000094
   15        6.238410   1.000235
   16        6.238410   1.000235
   17        6.381153   1.005401
   18        6.812945   0.463597
   19        6.812945   0.463597
   20        7.032942  -0.034311
   21        8.599581  -0.000000
   22        9.678205  -0.000000
   23        9.678205  -0.000000
   24       11.017630  -0.000000
   25       18.549144   0.000000
   26       20.507954   0.000000
   27       20.507954   0.000000
   28       20.632940   0.000000
   29       21.768141   0.000000
   30       21.768141   0.000000
   31       22.339695   0.000000
   32       23.165063   0.000000
   33       29.097078   0.000000
   34       29.097078   0.000000
   35       30.004212   0.000000
   36       30.995201   0.000000
   37       32.761492   0.000000
   38       33.995385   0.000000
   39       34.711046   0.000000
   40       34.711046   0.000000
 
  0.1428571E+00  0.1428571E+00  0.1428571E+00  0.2332362E-01
    1       -1.181573   1.000000
    2        2.283638   1.000000
    3        2.283638   1.000000
    4        2.283638   1.000000
    5        2.969037   1.000000
    6        2.969037   1.000000
    7        2.969037   1.000000
    8        4.905472   1.000000
    9        5.394847   1.000000
   10        5.394847   1.000000
   11        6.421414   1.010431
   12        6.421414   1.010431
   13        6.421414   1.010431
   14        6.675102   0.939653
   15        6.675102   0.939653
   16        7.248013  -0.003709
   17        7.248013  -0.003709
   18        7.248013  -0.003709
   19        7.960426  -0.000000
   20        7.960426  -0.000000
   21        7.960426  -0.000000
   22       10.850347  -0.000000
   23       10.850347  -0.000000
   24       10.850347  -0.000000
   25       19.639130   0.000000
   26       19.639130   0.000000
   27       19.639130   0.000000
   28       20.724915   0.000000
   29       20.724915   0.000000
   30       20.724915   0.000000
   31       24.463161   0.000000
   32       24.463161   0.000000
   33       24.463161   0.000000
   34       28.108036   0.000000
   35       29.874190   0.000000
   36       29.874190   0.000000
   37       29.874190   0.000000
   38       31.621394   0.000000
   39       34.995615   0.000000
   40       34.995615   0.000000
 
  0.2857143E+00  0.1428571E+00  0.1428571E+00  0.6997085E-01
    1       -0.399146   1.000000
    2        2.333853   1.000000
    3        2.722351   1.000000
    4        2.722351   1.000000
    5        3.261087   1.000000
    6        3.295243   1.000000
    7        3.295243   1.000000
    8        4.631496   1.000000
    9        5.481816   1.000000
   10        5.481816   1.000000
   11        5.521555   1.000000
   12        5.563955   1.000000
   13        5.741323   1.000000
   14        6.482857   1.022725
   15        6.798798   0.523412
   16        6.905455   0.126839
   17        6.905455   0.126839
   18        6.926302   0.075617
   19        7.847883  -0.000000
   20        7.871077  -0.000000
   21        7.871077  -0.000000
   22        9.009217  -0.000000
   23       12.213083  -0.000000
   24       12.213083  -0.000000
   25       17.748509   0.000000
   26       17.748509   0.000000
   27       20.746689   0.000000
   28       20.746689   0.000000
   29       21.020635   0.000000
   30       23.571948   0.000000
   31       24.158924   0.000000
   32       24.158924   0.000000
   33       25.711079   0.000000
   34       26.139924   0.000000
   35       30.157542   0.000000
   36       30.591097   0.000000
   37       31.666575   0.000000
   38       31.666575   0.000000
   39       32.512029   0.000000
   40       35.895249   0.000000
 
  0.4285714E+00  0.1428571E+00  0.1428571E+00  0.6997085E-01
    1        0.743309   1.000000
    2        1.857644   1.000000
    3        3.236925   1.000000
    4        3.236925   1.000000
    5        3.682538   1.000000
    6        3.682538   1.000000
    7        3.699353   1.000000
    8        4.189847   1.000000
    9        4.650147   1.000000
   10        4.650147   1.000000
   11        5.288838   1.000000
   12        5.421089   1.000000
   13        5.870211   1.000000
   14        6.301716   1.001092
   15        6.552508   1.035284
   16        6.552508   1.035284
   17        6.728591   0.796435
   18        7.260727  -0.002900
   19        7.595052  -0.000000
   20        7.598528  -0.000000
   21        7.800950  -0.000000
   22        7.800950  -0.000000
   23       13.597305   0.000000
   24       13.597305   0.000000
   25       16.079466   0.000000
   26       16.079466   0.000000
   27       21.235851   0.000000
   28       21.235851   0.000000
   29       22.530472   0.000000
   30       23.028804   0.000000
   31       23.028804   0.000000
   32       24.250191   0.000000
   33       26.878378   0.000000
   34       27.604001   0.000000
   35       29.212485   0.000000
   36       29.941688   0.000000
   37       30.961285   0.000000
   38       33.067113   0.000000
   39       34.931901   0.000000
   40       34.931901   0.000000
 
  0.2857143E+00  0.2857143E+00  0.1428571E+00  0.6997085E-01
    1        0.298398   1.000000
    2        2.746928   1.000000
    3        2.746928   1.000000
    4        3.023804   1.000000
    5        3.504474   1.000000
    6        3.567563   1.000000
    7        3.567563   1.000000
    8        4.563834   1.000000
    9        5.054801   1.000000
   10        5.054801   1.000000
   11        5.175860   1.000000
   12        5.449290   1.000000
   13        5.577311   1.000000
   14        6.500874   1.026874
   15        6.517077   1.030374
   16        6.517077   1.030374
   17        6.546868   1.034904
   18        7.165296  -0.014247
   19        7.742549  -0.000000
   20        7.742549  -0.000000
   21        7.743972  -0.000000
   22       10.081176  -0.000000
   23       10.081176  -0.000000
   24       12.914650   0.000000
   25       15.752735   0.000000
   26       18.830675   0.000000
   27       18.830675   0.000000
   28       21.194294   0.000000
   29       23.761448   0.000000
   30       23.761448   0.000000
   31       23.907836   0.000000
   32       25.389143   0.000000
   33       25.389143   0.000000
   34       26.864304   0.000000
   35       29.255873   0.000000
   36       30.338066   0.000000
   37       32.052491   0.000000
   38       32.052491   0.000000
   39       33.646567   0.000000
   40       36.620330   0.000000
 
  0.4285714E+00  0.2857143E+00  0.1428571E+00  0.1399417E+00
    1        1.294854   1.000000
    2        2.265240   1.000000
    3        3.192957   1.000000
    4        3.309380   1.000000
    5        3.721743   1.000000
    6        3.843331   1.000000
    7        3.986906   1.000000
    8        4.343624   1.000000
    9        4.633440   1.000000
   10        4.812297   1.000000
   11        4.928294   1.000000
   12        5.223681   1.000000
   13        5.725009   1.000000
   14        6.064314   1.000001
   15        6.224395   1.000162
   16        6.264558   1.000455
   17        6.786182   0.576457
   18        7.359994  -0.000306
   19        7.582053  -0.000000
   20        7.589139  -0.000000
   21        7.696600  -0.000000
   22        8.528274  -0.000000
   23       11.298030  -0.000000
   24       12.516928   0.000000
   25       15.664436   0.000000
   26       17.007758   0.000000
   27       20.253570   0.000000
   28       21.950380   0.000000
   29       21.983573   0.000000
   30       23.092133   0.000000
   31       25.436662   0.000000
   32       25.896430   0.000000
   33       26.525284   0.000000
   34       27.556249   0.000000
   35       28.351006   0.000000
   36       31.730490   0.000000
   37       32.624774   0.000000
   38       32.933975   0.000000
   39       34.735096   0.000000
   40       34.774865   0.000000
 
  0.4285714E+00  0.4285714E+00  0.1428571E+00  0.6997085E-01
    1        2.018485   1.000000
    2        2.697069   1.000000
    3        2.697069   1.000000
    4        3.030666   1.000000
    5        4.184276   1.000000
    6        4.364013   1.000000
    7        4.364013   1.000000
    8        4.506022   1.000000
    9        4.696724   1.000000
   10        4.696724   1.000000
   11        4.824956   1.000000
   12        4.998936   1.000000
   13        5.659787   1.000000
   14        5.881935   1.000000
   15        5.881935   1.000000
   16        5.912061   1.000000
   17        6.816395   0.449064
   18        7.192393  -0.009649
   19        7.192393  -0.009649
   20        7.308793  -0.001048
   21        8.468094  -0.000000
   22        9.563637  -0.000000
   23        9.563637  -0.000000
   24       10.847024  -0.000000
   25       16.780648   0.000000
   26       18.342562   0.000000
   27       18.342562   0.000000
   28       19.990719   0.000000
   29       22.960221   0.000000
   30       24.314960   0.000000
   31       24.314960   0.000000
   32       25.799295   0.000000
   33       29.249166   0.000000
   34       29.249166   0.000000
   35       30.250717   0.000000
   36       30.931681   0.000000
   37       32.350881   0.000000
   38       34.131633   0.000000
   39       34.131633   0.000000
   40       34.182138   0.000000
 
  0.2857143E+00  0.2857143E+00  0.2857143E+00  0.2332362E-01
    1        0.834873   1.000000
    2        2.794996   1.000000
    3        2.794996   1.000000
    4        2.794996   1.000000
    5        3.878337   1.000000
    6        3.878337   1.000000
    7        3.878337   1.000000
    8        4.725161   1.000000
    9        5.079891   1.000000
   10        5.079891   1.000000
   11        5.079891   1.000000
   12        5.410105   1.000000
   13        5.410105   1.000000
   14        6.045156   1.000001
   15        6.045156   1.000001
   16        6.045156   1.000001
   17        7.040329  -0.035130
   18        7.040329  -0.035130
   19        7.876111  -0.000000
   20        7.876111  -0.000000
   21        7.876111  -0.000000
   22       10.526741  -0.000000
   23       10.526741  -0.000000
   24       10.526741  -0.000000
   25       16.693785   0.000000
   26       16.693785   0.000000
   27       16.693785   0.000000
   28       21.605342   0.000000
   29       24.449753   0.000000
   30       24.449753   0.000000
   31       24.449753   0.000000
   32       27.885507   0.000000
   33       27.885507   0.000000
   34       27.885507   0.000000
   35       30.181572   0.000000
   36       30.610570   0.000000
   37       30.610570   0.000000
   38       30.610570   0.000000
   39       34.264108   0.000000
   40       34.264108   0.000000
 
  0.4285714E+00  0.2857143E+00  0.2857143E+00  0.6997085E-01
    1        1.559671   1.000000
    2        2.270156   1.000000
    3        2.811350   1.000000
    4        2.811350   1.000000
    5        4.160828   1.000000
    6        4.160828   1.000000
    7        4.440716   1.000000
    8        4.798743   1.000000
    9        5.068278   1.000000
   10        5.155424   1.000000
   11        5.155424   1.000000
   12        5.220449   1.000000
   13        5.432557   1.000000
   14        5.656672   1.000000
   15        5.803164   1.000000
   16        5.803164   1.000000
   17        7.361536  -0.000294
   18        7.490723  -0.000007
   19        7.750765  -0.000000
   20        7.750765  -0.000000
   21        7.792991  -0.000000
   22        8.566528  -0.000000
   23       10.973035  -0.000000
   24       10.973035  -0.000000
   25       15.442461   0.000000
   26       15.442461   0.000000
   27       18.011326   0.000000
   28       19.647243   0.000000
   29       25.111357   0.000000
   30       25.111357   0.000000
   31       27.471602   0.000000
   32       27.502498   0.000000
   33       27.502498   0.000000
   34       29.207442   0.000000
   35       29.531525   0.000000
   36       31.707549   0.000000
   37       31.776053   0.000000
   38       32.678168   0.000000
   39       32.678168   0.000000
   40       34.710584   0.000000
 
  0.4285714E+00  0.4285714E+00  0.2857143E+00  0.6997085E-01
    1        1.909089   1.000000
    2        2.325657   1.000000
    3        2.325657   1.000000
    4        2.498249   1.000000
    5        4.561364   1.000000
    6        4.715009   1.000000
    7        4.715009   1.000000
    8        5.109378   1.000000
    9        5.301505   1.000000
   10        5.362078   1.000000
   11        5.380226   1.000000
   12        5.380226   1.000000
   13        5.491466   1.000000
   14        5.491466   1.000000
   15        5.491816   1.000000
   16        5.522402   1.000000
   17        7.337738  -0.000532
   18        7.648257  -0.000000
   19        7.648257  -0.000000
   20        7.668280  -0.000000
   21        8.086691  -0.000000
   22        9.183386  -0.000000
   23        9.183386  -0.000000
   24       10.080286  -0.000000
   25       15.372660   0.000000
   26       16.349455   0.000000
   27       16.349455   0.000000
   28       17.780462   0.000000
   29       26.117509   0.000000
   30       27.119622   0.000000
   31       27.119622   0.000000
   32       28.366257   0.000000
   33       30.044430   0.000000
   34       30.044430   0.000000
   35       31.002583   0.000000
   36       31.043187   0.000000
   37       32.176091   0.000000
   38       33.096526   0.000000
   39       33.096526   0.000000
   40       34.650474   0.000000
 
  0.4285714E+00  0.4285714E+00  0.4285714E+00  0.2332362E-01
    1        1.912254   1.000000
    2        2.105152   1.000000
    3        2.105152   1.000000
    4        2.105152   1.000000
    5        4.950074   1.000000
    6        4.950074   1.000000
    7        4.950074   1.000000
    8        5.142344   1.000000
    9        5.142344   1.000000
   10        5.211089   1.000000
   11        5.211089   1.000000
   12        5.211089   1.000000
   13        6.234558   1.000212
   14        6.234558   1.000212
   15        6.234558   1.000212
   16        6.390691   1.006374
   17        7.704772  -0.000000
   18        7.704772  -0.000000
   19        7.823199  -0.000000
   20        7.823199  -0.000000
   21        7.823199  -0.000000
   22        8.667132  -0.000000
   23        8.667132  -0.000000
   24        8.667132  -0.000000
   25       15.305152   0.000000
   26       15.305152   0.000000
   27       15.305152   0.000000
   28       16.190091   0.000000
   29       28.252357   0.000000
   30       28.252357   0.000000
   31       28.252357   0.000000
   32       28.909710   0.000000
   33       32.258437   0.000000
   34       32.258437   0.000000
   35       32.258437   0.000000
   36       32.477682   0.000000
   37       32.477682   0.000000
   38       32.477682   0.000000
   39       33.913217   0.000000
   40       33.913217   0.000000
