 vasp.6.2.0 18Jan21 (build Mar 17 2021 09:06:54) complex                        
  
 POSCAR found type information on POSCAR Fe
 POSCAR found :  1 types and       4 ions
 LDA part: xc-table for Pade appr. of Perdew
 POSCAR, INCAR and KPOINTS ok, starting setup
 FFT: planning ...
 WAVECAR not read
 WARNING: chargedensity file is incomplete
 entering main loop
       N       E                     dE             d eps       ncg     rms          rms(c)
DAV:   1     0.161311809990E+03    0.16131E+03   -0.83476E+03  1760   0.687E+02
DAV:   2    -0.258420877954E+02   -0.18715E+03   -0.16530E+03  1656   0.186E+02
DAV:   3    -0.383931851251E+02   -0.12551E+02   -0.11396E+02  1848   0.579E+01
DAV:   4    -0.385530242991E+02   -0.15984E+00   -0.15948E+00  1784   0.785E+00
DAV:   5    -0.385543982615E+02   -0.13740E-02   -0.13739E-02  1768   0.555E-01    0.239E+01
DAV:   6    -0.327327755112E+02    0.58216E+01   -0.12170E+01  1808   0.522E+01    0.371E+00
DAV:   7    -0.323903326845E+02    0.34244E+00   -0.11396E+00  1936   0.132E+01    0.145E+00
DAV:   8    -0.323356838043E+02    0.54649E-01   -0.11967E-02  2160   0.903E-01    0.631E-01
DAV:   9    -0.323153356950E+02    0.20348E-01   -0.41064E-03  2080   0.392E-01    0.976E-02
DAV:  10    -0.323153210980E+02    0.14597E-04   -0.54637E-04  1752   0.134E-01    0.308E-02
DAV:  11    -0.323153268902E+02   -0.57922E-05   -0.39154E-06  1888   0.165E-02    0.221E-02
DAV:  12    -0.323153276553E+02   -0.76514E-06   -0.50010E-06  1784   0.192E-02
   1 F= -.32315328E+02 E0= -.32310321E+02  d E =-.150191E-01
 writing wavefunctions
