unknown system                          
   1.00000000000000     
     3.386680    0.000000    0.000000
     0.000000    3.386680    0.000000
     0.000000    0.000000    3.386680
   Fe
     4
Direct
  0.000000  0.000000  0.000000
  0.500000  0.500000  0.000000
  0.500000  0.000000  0.500000
  0.000000  0.500000  0.500000
 
   28   28   28
 0.32582896009E+03 0.30746003705E+03 0.25852340712E+03 0.19390440233E+03 0.12958713599E+03
 0.76975444053E+02 0.41402594643E+02 0.22689763456E+02 0.15863426980E+02 0.13313374502E+02
 0.11676842559E+02 0.10619225290E+02 0.10012979837E+02 0.98065974717E+01 0.97873313603E+01
 0.98065974717E+01 0.10012979837E+02 0.10619225290E+02 0.11676842559E+02 0.13313374502E+02
 0.15863426980E+02 0.22689763456E+02 0.41402594643E+02 0.76975444053E+02 0.12958713599E+03
 0.19390440233E+03 0.25852340712E+03 0.30746003705E+03 0.30746003705E+03 0.29011872636E+03
 0.24389746477E+03 0.18283243731E+03 0.12207922142E+03 0.72527597927E+02 0.39264066626E+02
 0.21995557897E+02 0.15772036766E+02 0.13305186016E+02 0.11704127009E+02 0.10663365625E+02
 0.10056167186E+02 0.98350655091E+01 0.98065974717E+01 0.98350655091E+01 0.10056167186E+02
 0.10663365625E+02 0.11704127009E+02 0.13305186016E+02 0.15772036766E+02 0.21995557897E+02
 0.39264066626E+02 0.72527597927E+02 0.12207922142E+03 0.18283243731E+03 0.24389746477E+03
 0.29011872636E+03 0.25852340712E+03 0.24389746477E+03 0.20487662847E+03 0.15329707570E+03
 0.10212680173E+03 0.60835295241E+02 0.33772811009E+02 0.20301689006E+02 0.15561540894E+02
 0.13305757966E+02 0.11830161342E+02 0.10867554639E+02 0.10290879986E+02 0.10056167186E+02
 0.10012979837E+02 0.10056167186E+02 0.10290879986E+02 0.10867554639E+02 0.11830161342E+02
 0.13305757966E+02 0.15561540894E+02 0.20301689006E+02 0.33772811009E+02 0.60835295241E+02
 0.10212680173E+03 0.15329707570E+03 0.20487662847E+03 0.24389746477E+03 0.19390440233E+03
 0.18283243731E+03 0.15329707570E+03 0.11435586372E+03 0.76101696769E+02 0.45976067242E+02
 0.27158268626E+02 0.18478214457E+02 0.15305978913E+02 0.13369254345E+02 0.12130593779E+02
 0.11339844245E+02 0.10867554639E+02 0.10663365625E+02 0.10619225290E+02 0.10663365625E+02
 0.10867554639E+02 0.11339844245E+02 0.12130593779E+02 0.13369254345E+02 0.15305978913E+02
 0.18478214457E+02 0.27158268626E+02 0.45976067242E+02 0.76101696769E+02 0.11435586372E+03
 0.15329707570E+03 0.18283243731E+03 0.12958713599E+03 0.12207922142E+03 0.10212680173E+03
 0.76101696769E+02 0.51151363403E+02 0.32430176258E+02 0.21691698125E+02 0.17204608689E+02
 0.15051604307E+02 0.13566152866E+02 0.12666298088E+02 0.12130593779E+02 0.11830161342E+02
 0.11704127009E+02 0.11676842559E+02 0.11704127009E+02 0.11830161342E+02 0.12130593779E+02
 0.12666298088E+02 0.13566152866E+02 0.15051604307E+02 0.17204608689E+02 0.21691698125E+02
 0.32430176258E+02 0.51151363403E+02 0.76101696769E+02 0.10212680173E+03 0.12207922142E+03
 0.76975444053E+02 0.72527597927E+02 0.60835295241E+02 0.45976067242E+02 0.32430176258E+02
 0.23137233614E+02 0.18479752974E+02 0.16406731939E+02 0.14935139562E+02 0.14024440658E+02
 0.13566152866E+02 0.13369254345E+02 0.13305757966E+02 0.13305186016E+02 0.13313374502E+02
 0.13305186016E+02 0.13305757966E+02 0.13369254345E+02 0.13566152866E+02 0.14024440658E+02
 0.14935139562E+02 0.16406731939E+02 0.18479752974E+02 0.23137233614E+02 0.32430176258E+02
 0.45976067242E+02 0.60835295241E+02 0.72527597927E+02 0.41402594643E+02 0.39264066626E+02
 0.33772811009E+02 0.27158268626E+02 0.21691698125E+02 0.18479752974E+02 0.16924278306E+02
 0.15810619086E+02 0.15140709307E+02 0.14935139562E+02 0.15051604307E+02 0.15305978913E+02
 0.15561540894E+02 0.15772036766E+02 0.15863426980E+02 0.15772036766E+02 0.15561540894E+02
 0.15305978913E+02 0.15051604307E+02 0.14935139562E+02 0.15140709307E+02 0.15810619086E+02
 0.16924278306E+02 0.18479752974E+02 0.21691698125E+02 0.27158268626E+02 0.33772811009E+02
 0.39264066626E+02 0.22689763456E+02 0.21995557897E+02 0.20301689006E+02 0.18478214457E+02
 0.17204608689E+02 0.16406731939E+02 0.15810619086E+02 0.15584405358E+02 0.15810619086E+02
 0.16406731939E+02 0.17204608689E+02 0.18478214457E+02 0.20301689006E+02 0.21995557897E+02
 0.22689763456E+02 0.21995557897E+02 0.20301689006E+02 0.18478214457E+02 0.17204608689E+02
 0.16406731939E+02 0.15810619086E+02 0.15584405358E+02 0.15810619086E+02 0.16406731939E+02
 0.17204608689E+02 0.18478214457E+02 0.20301689006E+02 0.21995557897E+02 0.15863426980E+02
 0.15772036766E+02 0.15561540894E+02 0.15305978913E+02 0.15051604307E+02 0.14935139562E+02
 0.15140709307E+02 0.15810619086E+02 0.16924278306E+02 0.18479752974E+02 0.21691698125E+02
 0.27158268626E+02 0.33772811009E+02 0.39264066626E+02 0.41402594643E+02 0.39264066626E+02
 0.33772811009E+02 0.27158268626E+02 0.21691698125E+02 0.18479752974E+02 0.16924278306E+02
 0.15810619086E+02 0.15140709307E+02 0.14935139562E+02 0.15051604307E+02 0.15305978913E+02
 0.15561540894E+02 0.15772036766E+02 0.13313374502E+02 0.13305186016E+02 0.13305757966E+02
 0.13369254345E+02 0.13566152866E+02 0.14024440658E+02 0.14935139562E+02 0.16406731939E+02
 0.18479752974E+02 0.23137233614E+02 0.32430176258E+02 0.45976067242E+02 0.60835295241E+02
 0.72527597927E+02 0.76975444053E+02 0.72527597927E+02 0.60835295241E+02 0.45976067242E+02
 0.32430176258E+02 0.23137233614E+02 0.18479752974E+02 0.16406731939E+02 0.14935139562E+02
 0.14024440658E+02 0.13566152866E+02 0.13369254345E+02 0.13305757966E+02 0.13305186016E+02
 0.11676842559E+02 0.11704127009E+02 0.11830161342E+02 0.12130593779E+02 0.12666298088E+02
 0.13566152866E+02 0.15051604307E+02 0.17204608689E+02 0.21691698125E+02 0.32430176258E+02
 0.51151363403E+02 0.76101696769E+02 0.10212680173E+03 0.12207922142E+03 0.12958713599E+03
 0.12207922142E+03 0.10212680173E+03 0.76101696769E+02 0.51151363403E+02 0.32430176258E+02
 0.21691698125E+02 0.17204608689E+02 0.15051604307E+02 0.13566152866E+02 0.12666298088E+02
 0.12130593779E+02 0.11830161342E+02 0.11704127009E+02 0.10619225290E+02 0.10663365625E+02
 0.10867554639E+02 0.11339844245E+02 0.12130593779E+02 0.13369254345E+02 0.15305978913E+02
 0.18478214457E+02 0.27158268626E+02 0.45976067242E+02 0.76101696769E+02 0.11435586372E+03
 0.15329707570E+03 0.18283243731E+03 0.19390440233E+03 0.18283243731E+03 0.15329707570E+03
 0.11435586372E+03 0.76101696769E+02 0.45976067242E+02 0.27158268626E+02 0.18478214457E+02
 0.15305978913E+02 0.13369254345E+02 0.12130593779E+02 0.11339844245E+02 0.10867554639E+02
 0.10663365625E+02 0.10012979837E+02 0.10056167186E+02 0.10290879986E+02 0.10867554639E+02
 0.11830161342E+02 0.13305757966E+02 0.15561540894E+02 0.20301689006E+02 0.33772811009E+02
 0.60835295241E+02 0.10212680173E+03 0.15329707570E+03 0.20487662847E+03 0.24389746477E+03
 0.25852340712E+03 0.24389746477E+03 0.20487662847E+03 0.15329707570E+03 0.10212680173E+03
 0.60835295241E+02 0.33772811009E+02 0.20301689006E+02 0.15561540894E+02 0.13305757966E+02
 0.11830161342E+02 0.10867554639E+02 0.10290879986E+02 0.10056167186E+02 0.98065974717E+01
 0.98350655091E+01 0.10056167186E+02 0.10663365625E+02 0.11704127009E+02 0.13305186016E+02
 0.15772036766E+02 0.21995557897E+02 0.39264066626E+02 0.72527597927E+02 0.12207922142E+03
 0.18283243731E+03 0.24389746477E+03 0.29011872636E+03 0.30746003705E+03 0.29011872636E+03
 0.24389746477E+03 0.18283243731E+03 0.12207922142E+03 0.72527597927E+02 0.39264066626E+02
 0.21995557897E+02 0.15772036766E+02 0.13305186016E+02 0.11704127009E+02 0.10663365625E+02
 0.10056167186E+02 0.98350655091E+01 0.97873313603E+01 0.98065974717E+01 0.10012979837E+02
 0.10619225290E+02 0.11676842559E+02 0.13313374502E+02 0.15863426980E+02 0.22689763456E+02
 0.41402594643E+02 0.76975444053E+02 0.12958713599E+03 0.19390440233E+03 0.25852340712E+03
 0.30746003705E+03 0.32582896009E+03 0.30746003705E+03 0.25852340712E+03 0.19390440233E+03
 0.12958713599E+03 0.76975444053E+02 0.41402594643E+02 0.22689763456E+02 0.15863426980E+02
 0.13313374502E+02 0.11676842559E+02 0.10619225290E+02 0.10012979837E+02 0.98065974717E+01
 0.98065974717E+01 0.98350655091E+01 0.10056167186E+02 0.10663365625E+02 0.11704127009E+02
 0.13305186016E+02 0.15772036766E+02 0.21995557897E+02 0.39264066626E+02 0.72527597927E+02
 0.12207922142E+03 0.18283243731E+03 0.24389746477E+03 0.29011872636E+03 0.30746003705E+03
 0.29011872636E+03 0.24389746477E+03 0.18283243731E+03 0.12207922142E+03 0.72527597927E+02
 0.39264066626E+02 0.21995557897E+02 0.15772036766E+02 0.13305186016E+02 0.11704127009E+02
 0.10663365625E+02 0.10056167186E+02 0.98350655091E+01 0.10012979837E+02 0.10056167186E+02
 0.10290879986E+02 0.10867554639E+02 0.11830161342E+02 0.13305757966E+02 0.15561540894E+02
 0.20301689006E+02 0.33772811009E+02 0.60835295241E+02 0.10212680173E+03 0.15329707570E+03
 0.20487662847E+03 0.24389746477E+03 0.25852340712E+03 0.24389746477E+03 0.20487662847E+03
 0.15329707570E+03 0.10212680173E+03 0.60835295241E+02 0.33772811009E+02 0.20301689006E+02
 0.15561540894E+02 0.13305757966E+02 0.11830161342E+02 0.10867554639E+02 0.10290879986E+02
 0.10056167186E+02 0.10619225290E+02 0.10663365625E+02 0.10867554639E+02 0.11339844245E+02
 0.12130593779E+02 0.13369254345E+02 0.15305978913E+02 0.18478214457E+02 0.27158268626E+02
 0.45976067242E+02 0.76101696769E+02 0.11435586372E+03 0.15329707570E+03 0.18283243731E+03
 0.19390440233E+03 0.18283243731E+03 0.15329707570E+03 0.11435586372E+03 0.76101696769E+02
 0.45976067242E+02 0.27158268626E+02 0.18478214457E+02 0.15305978913E+02 0.13369254345E+02
 0.12130593779E+02 0.11339844245E+02 0.10867554639E+02 0.10663365625E+02 0.11676842559E+02
 0.11704127009E+02 0.11830161342E+02 0.12130593779E+02 0.12666298088E+02 0.13566152866E+02
 0.15051604307E+02 0.17204608689E+02 0.21691698125E+02 0.32430176258E+02 0.51151363403E+02
 0.76101696769E+02 0.10212680173E+03 0.12207922142E+03 0.12958713599E+03 0.12207922142E+03
 0.10212680173E+03 0.76101696769E+02 0.51151363403E+02 0.32430176258E+02 0.21691698125E+02
 0.17204608689E+02 0.15051604307E+02 0.13566152866E+02 0.12666298088E+02 0.12130593779E+02
 0.11830161342E+02 0.11704127009E+02 0.13313374502E+02 0.13305186016E+02 0.13305757966E+02
 0.13369254345E+02 0.13566152866E+02 0.14024440658E+02 0.14935139562E+02 0.16406731939E+02
 0.18479752974E+02 0.23137233614E+02 0.32430176258E+02 0.45976067242E+02 0.60835295241E+02
 0.72527597927E+02 0.76975444053E+02 0.72527597927E+02 0.60835295241E+02 0.45976067242E+02
 0.32430176258E+02 0.23137233614E+02 0.18479752974E+02 0.16406731939E+02 0.14935139562E+02
 0.14024440658E+02 0.13566152866E+02 0.13369254345E+02 0.13305757966E+02 0.13305186016E+02
 0.15863426980E+02 0.15772036766E+02 0.15561540894E+02 0.15305978913E+02 0.15051604307E+02
 0.14935139562E+02 0.15140709307E+02 0.15810619086E+02 0.16924278306E+02 0.18479752974E+02
 0.21691698125E+02 0.27158268626E+02 0.33772811009E+02 0.39264066626E+02 0.41402594643E+02
 0.39264066626E+02 0.33772811009E+02 0.27158268626E+02 0.21691698125E+02 0.18479752974E+02
 0.16924278306E+02 0.15810619086E+02 0.15140709307E+02 0.14935139562E+02 0.15051604307E+02
 0.15305978913E+02 0.15561540894E+02 0.15772036766E+02 0.22689763456E+02 0.21995557897E+02
 0.20301689006E+02 0.18478214457E+02 0.17204608689E+02 0.16406731939E+02 0.15810619086E+02
 0.15584405358E+02 0.15810619086E+02 0.16406731939E+02 0.17204608689E+02 0.18478214457E+02
 0.20301689006E+02 0.21995557897E+02 0.22689763456E+02 0.21995557897E+02 0.20301689006E+02
 0.18478214457E+02 0.17204608689E+02 0.16406731939E+02 0.15810619086E+02 0.15584405358E+02
 0.15810619086E+02 0.16406731939E+02 0.17204608689E+02 0.18478214457E+02 0.20301689006E+02
 0.21995557897E+02 0.41402594643E+02 0.39264066626E+02 0.33772811009E+02 0.27158268626E+02
 0.21691698125E+02 0.18479752974E+02 0.16924278306E+02 0.15810619086E+02 0.15140709307E+02
 0.14935139562E+02 0.15051604307E+02 0.15305978913E+02 0.15561540894E+02 0.15772036766E+02
 0.15863426980E+02 0.15772036766E+02 0.15561540894E+02 0.15305978913E+02 0.15051604307E+02
 0.14935139562E+02 0.15140709307E+02 0.15810619086E+02 0.16924278306E+02 0.18479752974E+02
 0.21691698125E+02 0.27158268626E+02 0.33772811009E+02 0.39264066626E+02 0.76975444053E+02
 0.72527597927E+02 0.60835295241E+02 0.45976067242E+02 0.32430176258E+02 0.23137233614E+02
 0.18479752974E+02 0.16406731939E+02 0.14935139562E+02 0.14024440658E+02 0.13566152866E+02
 0.13369254345E+02 0.13305757966E+02 0.13305186016E+02 0.13313374502E+02 0.13305186016E+02
 0.13305757966E+02 0.13369254345E+02 0.13566152866E+02 0.14024440658E+02 0.14935139562E+02
 0.16406731939E+02 0.18479752974E+02 0.23137233614E+02 0.32430176258E+02 0.45976067242E+02
 0.60835295241E+02 0.72527597927E+02 0.12958713599E+03 0.12207922142E+03 0.10212680173E+03
 0.76101696769E+02 0.51151363403E+02 0.32430176258E+02 0.21691698125E+02 0.17204608689E+02
 0.15051604307E+02 0.13566152866E+02 0.12666298088E+02 0.12130593779E+02 0.11830161342E+02
 0.11704127009E+02 0.11676842559E+02 0.11704127009E+02 0.11830161342E+02 0.12130593779E+02
 0.12666298088E+02 0.13566152866E+02 0.15051604307E+02 0.17204608689E+02 0.21691698125E+02
 0.32430176258E+02 0.51151363403E+02 0.76101696769E+02 0.10212680173E+03 0.12207922142E+03
 0.19390440233E+03 0.18283243731E+03 0.15329707570E+03 0.11435586372E+03 0.76101696769E+02
 0.45976067242E+02 0.27158268626E+02 0.18478214457E+02 0.15305978913E+02 0.13369254345E+02
 0.12130593779E+02 0.11339844245E+02 0.10867554639E+02 0.10663365625E+02 0.10619225290E+02
 0.10663365625E+02 0.10867554639E+02 0.11339844245E+02 0.12130593779E+02 0.13369254345E+02
 0.15305978913E+02 0.18478214457E+02 0.27158268626E+02 0.45976067242E+02 0.76101696769E+02
 0.11435586372E+03 0.15329707570E+03 0.18283243731E+03 0.25852340712E+03 0.24389746477E+03
 0.20487662847E+03 0.15329707570E+03 0.10212680173E+03 0.60835295241E+02 0.33772811009E+02
 0.20301689006E+02 0.15561540894E+02 0.13305757966E+02 0.11830161342E+02 0.10867554639E+02
 0.10290879986E+02 0.10056167186E+02 0.10012979837E+02 0.10056167186E+02 0.10290879986E+02
 0.10867554639E+02 0.11830161342E+02 0.13305757966E+02 0.15561540894E+02 0.20301689006E+02
 0.33772811009E+02 0.60835295241E+02 0.10212680173E+03 0.15329707570E+03 0.20487662847E+03
 0.24389746477E+03 0.30746003705E+03 0.29011872636E+03 0.24389746477E+03 0.18283243731E+03
 0.12207922142E+03 0.72527597927E+02 0.39264066626E+02 0.21995557897E+02 0.15772036766E+02
 0.13305186016E+02 0.11704127009E+02 0.10663365625E+02 0.10056167186E+02 0.98350655091E+01
 0.98065974717E+01 0.98350655091E+01 0.10056167186E+02 0.10663365625E+02 0.11704127009E+02
 0.13305186016E+02 0.15772036766E+02 0.21995557897E+02 0.39264066626E+02 0.72527597927E+02
 0.12207922142E+03 0.18283243731E+03 0.24389746477E+03 0.29011872636E+03 0.30746003705E+03
 0.29011872636E+03 0.24389746477E+03 0.18283243731E+03 0.12207922142E+03 0.72527597927E+02
 0.39264066626E+02 0.21995557897E+02 0.15772036766E+02 0.13305186016E+02 0.11704127009E+02
 0.10663365625E+02 0.10056167186E+02 0.98350655091E+01 0.98065974717E+01 0.98350655091E+01
 0.10056167186E+02 0.10663365625E+02 0.11704127009E+02 0.13305186016E+02 0.15772036766E+02
 0.21995557897E+02 0.39264066626E+02 0.72527597927E+02 0.12207922142E+03 0.18283243731E+03
 0.24389746477E+03 0.29011872636E+03 0.29011872636E+03 0.27374364101E+03 0.23007990790E+03
 0.17237278729E+03 0.11499897306E+03 0.68354131311E+02 0.37278397113E+02 0.21364240296E+02
 0.15688510650E+02 0.13296997344E+02 0.11733207518E+02 0.10711141341E+02 0.10105184992E+02
 0.98716696708E+01 0.98350655091E+01 0.98716696708E+01 0.10105184992E+02 0.10711141341E+02
 0.11733207518E+02 0.13296997344E+02 0.15688510650E+02 0.21364240296E+02 0.37278397113E+02
 0.68354131311E+02 0.11499897306E+03 0.17237278729E+03 0.23007990790E+03 0.27374364101E+03
 0.24389746477E+03 0.23007990790E+03 0.19320907958E+03 0.14447644050E+03 0.96196756202E+02
 0.57398523656E+02 0.32191766215E+02 0.19829152189E+02 0.15488432927E+02 0.13295770460E+02
 0.11860222953E+02 0.10919144828E+02 0.10347607680E+02 0.10105184992E+02 0.10056167186E+02
 0.10105184992E+02 0.10347607680E+02 0.10919144828E+02 0.11860222953E+02 0.13295770460E+02
 0.15488432927E+02 0.19829152189E+02 0.32191766215E+02 0.57398523656E+02 0.96196756202E+02
 0.14447644050E+03 0.19320907958E+03 0.23007990790E+03 0.18283243731E+03 0.17237278729E+03
 0.14447644050E+03 0.10772820409E+03 0.71719083799E+02 0.43521799725E+02 0.26097474395E+02
 0.18186066475E+02 0.15226651123E+02 0.13352697282E+02 0.12153617185E+02 0.11384409135E+02
 0.10919144828E+02 0.10711141341E+02 0.10663365625E+02 0.10711141341E+02 0.10919144828E+02
 0.11384409135E+02 0.12153617185E+02 0.13352697282E+02 0.15226651123E+02 0.18186066475E+02
 0.26097474395E+02 0.43521799725E+02 0.71719083799E+02 0.10772820409E+03 0.14447644050E+03
 0.17237278729E+03 0.12207922142E+03 0.11499897306E+03 0.96196756202E+02 0.71719083799E+02
 0.48348854954E+02 0.30952074647E+02 0.21107771170E+02 0.17031683843E+02 0.14965036633E+02
 0.13536239785E+02 0.12670781181E+02 0.12153617185E+02 0.11860222953E+02 0.11733207518E+02
 0.11704127009E+02 0.11733207518E+02 0.11860222953E+02 0.12153617185E+02 0.12670781181E+02
 0.13536239785E+02 0.14965036633E+02 0.17031683843E+02 0.21107771170E+02 0.30952074647E+02
 0.48348854954E+02 0.71719083799E+02 0.96196756202E+02 0.11499897306E+03 0.72527597927E+02
 0.68354131311E+02 0.57398523656E+02 0.43521799725E+02 0.30952074647E+02 0.22424020186E+02
 0.18205334076E+02 0.16254016504E+02 0.14839415232E+02 0.13970326046E+02 0.13536239785E+02
 0.13352697282E+02 0.13295770460E+02 0.13296997344E+02 0.13305186016E+02 0.13296997344E+02
 0.13295770460E+02 0.13352697282E+02 0.13536239785E+02 0.13970326046E+02 0.14839415232E+02
 0.16254016504E+02 0.18205334076E+02 0.22424020186E+02 0.30952074647E+02 0.43521799725E+02
 0.57398523656E+02 0.68354131311E+02 0.39264066626E+02 0.37278397113E+02 0.32191766215E+02
 0.26097474395E+02 0.21107771170E+02 0.18205334076E+02 0.16744526334E+02 0.15666602444E+02
 0.15027187447E+02 0.14839415232E+02 0.14965036633E+02 0.15226651123E+02 0.15488432927E+02
 0.15688510650E+02 0.15772036766E+02 0.15688510650E+02 0.15488432927E+02 0.15226651123E+02
 0.14965036633E+02 0.14839415232E+02 0.15027187447E+02 0.15666602444E+02 0.16744526334E+02
 0.18205334076E+02 0.21107771170E+02 0.26097474395E+02 0.32191766215E+02 0.37278397113E+02
 0.21995557897E+02 0.21364240296E+02 0.19829152189E+02 0.18186066475E+02 0.17031683843E+02
 0.16254016504E+02 0.15666602444E+02 0.15444940415E+02 0.15666602444E+02 0.16254016504E+02
 0.17031683843E+02 0.18186066475E+02 0.19829152189E+02 0.21364240296E+02 0.21995557897E+02
 0.21364240296E+02 0.19829152189E+02 0.18186066475E+02 0.17031683843E+02 0.16254016504E+02
 0.15666602444E+02 0.15444940415E+02 0.15666602444E+02 0.16254016504E+02 0.17031683843E+02
 0.18186066475E+02 0.19829152189E+02 0.21364240296E+02 0.15772036766E+02 0.15688510650E+02
 0.15488432927E+02 0.15226651123E+02 0.14965036633E+02 0.14839415232E+02 0.15027187447E+02
 0.15666602444E+02 0.16744526334E+02 0.18205334076E+02 0.21107771170E+02 0.26097474395E+02
 0.32191766215E+02 0.37278397113E+02 0.39264066626E+02 0.37278397113E+02 0.32191766215E+02
 0.26097474395E+02 0.21107771170E+02 0.18205334076E+02 0.16744526334E+02 0.15666602444E+02
 0.15027187447E+02 0.14839415232E+02 0.14965036633E+02 0.15226651123E+02 0.15488432927E+02
 0.15688510650E+02 0.13305186016E+02 0.13296997344E+02 0.13295770460E+02 0.13352697282E+02
 0.13536239785E+02 0.13970326046E+02 0.14839415232E+02 0.16254016504E+02 0.18205334076E+02
 0.22424020186E+02 0.30952074647E+02 0.43521799725E+02 0.57398523656E+02 0.68354131311E+02
 0.72527597927E+02 0.68354131311E+02 0.57398523656E+02 0.43521799725E+02 0.30952074647E+02
 0.22424020186E+02 0.18205334076E+02 0.16254016504E+02 0.14839415232E+02 0.13970326046E+02
 0.13536239785E+02 0.13352697282E+02 0.13295770460E+02 0.13296997344E+02 0.11704127009E+02
 0.11733207518E+02 0.11860222953E+02 0.12153617185E+02 0.12670781181E+02 0.13536239785E+02
 0.14965036633E+02 0.17031683843E+02 0.21107771170E+02 0.30952074647E+02 0.48348854954E+02
 0.71719083799E+02 0.96196756202E+02 0.11499897306E+03 0.12207922142E+03 0.11499897306E+03
 0.96196756202E+02 0.71719083799E+02 0.48348854954E+02 0.30952074647E+02 0.21107771170E+02
 0.17031683843E+02 0.14965036633E+02 0.13536239785E+02 0.12670781181E+02 0.12153617185E+02
 0.11860222953E+02 0.11733207518E+02 0.10663365625E+02 0.10711141341E+02 0.10919144828E+02
 0.11384409135E+02 0.12153617185E+02 0.13352697282E+02 0.15226651123E+02 0.18186066475E+02
 0.26097474395E+02 0.43521799725E+02 0.71719083799E+02 0.10772820409E+03 0.14447644050E+03
 0.17237278729E+03 0.18283243731E+03 0.17237278729E+03 0.14447644050E+03 0.10772820409E+03
 0.71719083799E+02 0.43521799725E+02 0.26097474395E+02 0.18186066475E+02 0.15226651123E+02
 0.13352697282E+02 0.12153617185E+02 0.11384409135E+02 0.10919144828E+02 0.10711141341E+02
 0.10056167186E+02 0.10105184992E+02 0.10347607680E+02 0.10919144828E+02 0.11860222953E+02
 0.13295770460E+02 0.15488432927E+02 0.19829152189E+02 0.32191766215E+02 0.57398523656E+02
 0.96196756202E+02 0.14447644050E+03 0.19320907958E+03 0.23007990790E+03 0.24389746477E+03
 0.23007990790E+03 0.19320907958E+03 0.14447644050E+03 0.96196756202E+02 0.57398523656E+02
 0.32191766215E+02 0.19829152189E+02 0.15488432927E+02 0.13295770460E+02 0.11860222953E+02
 0.10919144828E+02 0.10347607680E+02 0.10105184992E+02 0.98350655091E+01 0.98716696708E+01
 0.10105184992E+02 0.10711141341E+02 0.11733207518E+02 0.13296997344E+02 0.15688510650E+02
 0.21364240296E+02 0.37278397113E+02 0.68354131311E+02 0.11499897306E+03 0.17237278729E+03
 0.23007990790E+03 0.27374364101E+03 0.29011872636E+03 0.27374364101E+03 0.23007990790E+03
 0.17237278729E+03 0.11499897306E+03 0.68354131311E+02 0.37278397113E+02 0.21364240296E+02
 0.15688510650E+02 0.13296997344E+02 0.11733207518E+02 0.10711141341E+02 0.10105184992E+02
 0.98716696708E+01 0.98065974717E+01 0.98350655091E+01 0.10056167186E+02 0.10663365625E+02
 0.11704127009E+02 0.13305186016E+02 0.15772036766E+02 0.21995557897E+02 0.39264066626E+02
 0.72527597927E+02 0.12207922142E+03 0.18283243731E+03 0.24389746477E+03 0.29011872636E+03
 0.30746003705E+03 0.29011872636E+03 0.24389746477E+03 0.18283243731E+03 0.12207922142E+03
 0.72527597927E+02 0.39264066626E+02 0.21995557897E+02 0.15772036766E+02 0.13305186016E+02
 0.11704127009E+02 0.10663365625E+02 0.10056167186E+02 0.98350655091E+01 0.98350655091E+01
 0.98716696708E+01 0.10105184992E+02 0.10711141341E+02 0.11733207518E+02 0.13296997344E+02
 0.15688510650E+02 0.21364240296E+02 0.37278397113E+02 0.68354131311E+02 0.11499897306E+03
 0.17237278729E+03 0.23007990790E+03 0.27374364101E+03 0.29011872636E+03 0.27374364101E+03
 0.23007990790E+03 0.17237278729E+03 0.11499897306E+03 0.68354131311E+02 0.37278397113E+02
 0.21364240296E+02 0.15688510650E+02 0.13296997344E+02 0.11733207518E+02 0.10711141341E+02
 0.10105184992E+02 0.98716696708E+01 0.10056167186E+02 0.10105184992E+02 0.10347607680E+02
 0.10919144828E+02 0.11860222953E+02 0.13295770460E+02 0.15488432927E+02 0.19829152189E+02
 0.32191766215E+02 0.57398523656E+02 0.96196756202E+02 0.14447644050E+03 0.19320907958E+03
 0.23007990790E+03 0.24389746477E+03 0.23007990790E+03 0.19320907958E+03 0.14447644050E+03
 0.96196756202E+02 0.57398523656E+02 0.32191766215E+02 0.19829152189E+02 0.15488432927E+02
 0.13295770460E+02 0.11860222953E+02 0.10919144828E+02 0.10347607680E+02 0.10105184992E+02
 0.10663365625E+02 0.10711141341E+02 0.10919144828E+02 0.11384409135E+02 0.12153617185E+02
 0.13352697282E+02 0.15226651123E+02 0.18186066475E+02 0.26097474395E+02 0.43521799725E+02
 0.71719083799E+02 0.10772820409E+03 0.14447644050E+03 0.17237278729E+03 0.18283243731E+03
 0.17237278729E+03 0.14447644050E+03 0.10772820409E+03 0.71719083799E+02 0.43521799725E+02
 0.26097474395E+02 0.18186066475E+02 0.15226651123E+02 0.13352697282E+02 0.12153617185E+02
 0.11384409135E+02 0.10919144828E+02 0.10711141341E+02 0.11704127009E+02 0.11733207518E+02
 0.11860222953E+02 0.12153617185E+02 0.12670781181E+02 0.13536239785E+02 0.14965036633E+02
 0.17031683843E+02 0.21107771170E+02 0.30952074647E+02 0.48348854954E+02 0.71719083799E+02
 0.96196756202E+02 0.11499897306E+03 0.12207922142E+03 0.11499897306E+03 0.96196756202E+02
 0.71719083799E+02 0.48348854954E+02 0.30952074647E+02 0.21107771170E+02 0.17031683843E+02
 0.14965036633E+02 0.13536239785E+02 0.12670781181E+02 0.12153617185E+02 0.11860222953E+02
 0.11733207518E+02 0.13305186016E+02 0.13296997344E+02 0.13295770460E+02 0.13352697282E+02
 0.13536239785E+02 0.13970326046E+02 0.14839415232E+02 0.16254016504E+02 0.18205334076E+02
 0.22424020186E+02 0.30952074647E+02 0.43521799725E+02 0.57398523656E+02 0.68354131311E+02
 0.72527597927E+02 0.68354131311E+02 0.57398523656E+02 0.43521799725E+02 0.30952074647E+02
 0.22424020186E+02 0.18205334076E+02 0.16254016504E+02 0.14839415232E+02 0.13970326046E+02
 0.13536239785E+02 0.13352697282E+02 0.13295770460E+02 0.13296997344E+02 0.15772036766E+02
 0.15688510650E+02 0.15488432927E+02 0.15226651123E+02 0.14965036633E+02 0.14839415232E+02
 0.15027187447E+02 0.15666602444E+02 0.16744526334E+02 0.18205334076E+02 0.21107771170E+02
 0.26097474395E+02 0.32191766215E+02 0.37278397113E+02 0.39264066626E+02 0.37278397113E+02
 0.32191766215E+02 0.26097474395E+02 0.21107771170E+02 0.18205334076E+02 0.16744526334E+02
 0.15666602444E+02 0.15027187447E+02 0.14839415232E+02 0.14965036633E+02 0.15226651123E+02
 0.15488432927E+02 0.15688510650E+02 0.21995557897E+02 0.21364240296E+02 0.19829152189E+02
 0.18186066475E+02 0.17031683843E+02 0.16254016504E+02 0.15666602444E+02 0.15444940415E+02
 0.15666602444E+02 0.16254016504E+02 0.17031683843E+02 0.18186066475E+02 0.19829152189E+02
 0.21364240296E+02 0.21995557897E+02 0.21364240296E+02 0.19829152189E+02 0.18186066475E+02
 0.17031683843E+02 0.16254016504E+02 0.15666602444E+02 0.15444940415E+02 0.15666602444E+02
 0.16254016504E+02 0.17031683843E+02 0.18186066475E+02 0.19829152189E+02 0.21364240296E+02
 0.39264066626E+02 0.37278397113E+02 0.32191766215E+02 0.26097474395E+02 0.21107771170E+02
 0.18205334076E+02 0.16744526334E+02 0.15666602444E+02 0.15027187447E+02 0.14839415232E+02
 0.14965036633E+02 0.15226651123E+02 0.15488432927E+02 0.15688510650E+02 0.15772036766E+02
 0.15688510650E+02 0.15488432927E+02 0.15226651123E+02 0.14965036633E+02 0.14839415232E+02
 0.15027187447E+02 0.15666602444E+02 0.16744526334E+02 0.18205334076E+02 0.21107771170E+02
 0.26097474395E+02 0.32191766215E+02 0.37278397113E+02 0.72527597927E+02 0.68354131311E+02
 0.57398523656E+02 0.43521799725E+02 0.30952074647E+02 0.22424020186E+02 0.18205334076E+02
 0.16254016504E+02 0.14839415232E+02 0.13970326046E+02 0.13536239785E+02 0.13352697282E+02
 0.13295770460E+02 0.13296997344E+02 0.13305186016E+02 0.13296997344E+02 0.13295770460E+02
 0.13352697282E+02 0.13536239785E+02 0.13970326046E+02 0.14839415232E+02 0.16254016504E+02
 0.18205334076E+02 0.22424020186E+02 0.30952074647E+02 0.43521799725E+02 0.57398523656E+02
 0.68354131311E+02 0.12207922142E+03 0.11499897306E+03 0.96196756202E+02 0.71719083799E+02
 0.48348854954E+02 0.30952074647E+02 0.21107771170E+02 0.17031683843E+02 0.14965036633E+02
 0.13536239785E+02 0.12670781181E+02 0.12153617185E+02 0.11860222953E+02 0.11733207518E+02
 0.11704127009E+02 0.11733207518E+02 0.11860222953E+02 0.12153617185E+02 0.12670781181E+02
 0.13536239785E+02 0.14965036633E+02 0.17031683843E+02 0.21107771170E+02 0.30952074647E+02
 0.48348854954E+02 0.71719083799E+02 0.96196756202E+02 0.11499897306E+03 0.18283243731E+03
 0.17237278729E+03 0.14447644050E+03 0.10772820409E+03 0.71719083799E+02 0.43521799725E+02
 0.26097474395E+02 0.18186066475E+02 0.15226651123E+02 0.13352697282E+02 0.12153617185E+02
 0.11384409135E+02 0.10919144828E+02 0.10711141341E+02 0.10663365625E+02 0.10711141341E+02
 0.10919144828E+02 0.11384409135E+02 0.12153617185E+02 0.13352697282E+02 0.15226651123E+02
 0.18186066475E+02 0.26097474395E+02 0.43521799725E+02 0.71719083799E+02 0.10772820409E+03
 0.14447644050E+03 0.17237278729E+03 0.24389746477E+03 0.23007990790E+03 0.19320907958E+03
 0.14447644050E+03 0.96196756202E+02 0.57398523656E+02 0.32191766215E+02 0.19829152189E+02
 0.15488432927E+02 0.13295770460E+02 0.11860222953E+02 0.10919144828E+02 0.10347607680E+02
 0.10105184992E+02 0.10056167186E+02 0.10105184992E+02 0.10347607680E+02 0.10919144828E+02
 0.11860222953E+02 0.13295770460E+02 0.15488432927E+02 0.19829152189E+02 0.32191766215E+02
 0.57398523656E+02 0.96196756202E+02 0.14447644050E+03 0.19320907958E+03 0.23007990790E+03
 0.29011872636E+03 0.27374364101E+03 0.23007990790E+03 0.17237278729E+03 0.11499897306E+03
 0.68354131311E+02 0.37278397113E+02 0.21364240296E+02 0.15688510650E+02 0.13296997344E+02
 0.11733207518E+02 0.10711141341E+02 0.10105184992E+02 0.98716696708E+01 0.98350655091E+01
 0.98716696708E+01 0.10105184992E+02 0.10711141341E+02 0.11733207518E+02 0.13296997344E+02
 0.15688510650E+02 0.21364240296E+02 0.37278397113E+02 0.68354131311E+02 0.11499897306E+03
 0.17237278729E+03 0.23007990790E+03 0.27374364101E+03 0.25852340712E+03 0.24389746477E+03
 0.20487662847E+03 0.15329707570E+03 0.10212680173E+03 0.60835295241E+02 0.33772811009E+02
 0.20301689006E+02 0.15561540894E+02 0.13305757966E+02 0.11830161342E+02 0.10867554639E+02
 0.10290879986E+02 0.10056167186E+02 0.10012979837E+02 0.10056167186E+02 0.10290879986E+02
 0.10867554639E+02 0.11830161342E+02 0.13305757966E+02 0.15561540894E+02 0.20301689006E+02
 0.33772811009E+02 0.60835295241E+02 0.10212680173E+03 0.15329707570E+03 0.20487662847E+03
 0.24389746477E+03 0.24389746477E+03 0.23007990790E+03 0.19320907958E+03 0.14447644050E+03
 0.96196756202E+02 0.57398523656E+02 0.32191766215E+02 0.19829152189E+02 0.15488432927E+02
 0.13295770460E+02 0.11860222953E+02 0.10919144828E+02 0.10347607680E+02 0.10105184992E+02
 0.10056167186E+02 0.10105184992E+02 0.10347607680E+02 0.10919144828E+02 0.11860222953E+02
 0.13295770460E+02 0.15488432927E+02 0.19829152189E+02 0.32191766215E+02 0.57398523656E+02
 0.96196756202E+02 0.14447644050E+03 0.19320907958E+03 0.23007990790E+03 0.20487662847E+03