    4    4    1    1
  0.9710972E+01  0.3386680E-09  0.3386680E-09  0.3386680E-09  0.5000000E-15
  1.000000000000000E-004
  CAR 
 unknown system                          
     32     56     40
 
  0.0000000E+00  0.0000000E+00  0.0000000E+00  0.7513148E-03
    1       -1.729530   1.000000
    2        2.096579   1.000000
    3        2.096579   1.000000
    4        2.096579   1.000000
    5        2.883800   1.000000
    6        2.883800   1.000000
    7        2.883800   1.000000
    8        5.649525   1.000000
    9        5.649525   1.000000
   10        5.649525   1.000000
   11        7.333499   0.762002
   12        7.333499   0.762002
   13        8.454165  -0.000000
   14        8.454165  -0.000000
   15        8.454165  -0.000000
   16        8.780556  -0.000000
   17        8.780556  -0.000000
   18        8.780556  -0.000000
   19        8.780556  -0.000000
   20        8.780556  -0.000000
   21        8.780556  -0.000000
   22       10.824577  -0.000000
   23       10.824577  -0.000000
   24       10.824577  -0.000000
   25       19.759167   0.000000
   26       19.759167   0.000000
   27       19.759167   0.000000
   28       24.260144   0.000000
   29       24.260144   0.000000
   30       24.260144   0.000000
   31       24.260144   0.000000
   32       24.260144   0.000000
   33       24.260144   0.000000
   34       29.891745   0.000000
   35       29.891745   0.000000
   36       29.891745   0.000000
   37       31.177370   0.000000
   38       35.222861   0.000000
   39       35.222861   0.000000
   40       35.222861   0.000000
 
  0.9090909E-01  0.0000000E+00  0.0000000E+00  0.4507889E-02
    1       -1.606511   1.000000
    2        2.130781   1.000000
    3        2.174170   1.000000
    4        2.174170   1.000000
    5        2.932541   1.000000
    6        2.941967   1.000000
    7        2.941967   1.000000
    8        5.584468   1.000000
    9        5.696129   1.000000
   10        5.696129   1.000000
   11        7.272894   0.933619
   12        7.355174   0.681299
   13        8.280165  -0.000000
   14        8.280165  -0.000000
   15        8.374793  -0.000000
   16        8.374793  -0.000000
   17        8.430341  -0.000000
   18        8.689762  -0.000000
   19        8.689762  -0.000000
   20        8.780731  -0.000000
   21        8.780731  -0.000000
   22       10.335390  -0.000000
   23       11.406124  -0.000000
   24       11.406124  -0.000000
   25       19.751841   0.000000
   26       19.751841   0.000000
   27       20.387724   0.000000
   28       23.729638   0.000000
   29       23.729638   0.000000
   30       23.992948   0.000000
   31       23.992948   0.000000
   32       24.467681   0.000000
   33       24.467681   0.000000
   34       29.901187   0.000000
   35       30.521627   0.000000
   36       30.521627   0.000000
   37       31.111731   0.000000
   38       35.271032   0.000000
   39       35.785513   0.000000
   40       35.785514   0.000000
 
  0.1818182E+00  0.0000000E+00  0.0000000E+00  0.4507889E-02
    1       -1.244209   1.000000
    2        2.211129   1.000000
    3        2.394549   1.000000
    4        2.394549   1.000000
    5        3.076214   1.000000
    6        3.116300   1.000000
    7        3.116300   1.000000
    8        5.397133   1.000000
    9        5.834574   1.000000
   10        5.834574   1.000000
   11        7.099667   1.027760
   12        7.395447   0.515792
   13        7.395447   0.515792
   14        7.418683   0.417909
   15        8.147815  -0.000001
   16        8.147815  -0.000001
   17        8.361196  -0.000000
   18        8.435484  -0.000000
   19        8.435484  -0.000000
   20        8.781387  -0.000000
   21        8.781387  -0.000000
   22        9.202420  -0.000000
   23       12.533988  -0.000000
   24       12.533988  -0.000000
   25       19.732047   0.000000
   26       19.732047   0.000000
   27       21.944646   0.000000
   28       22.535365   0.000000
   29       22.535365   0.000000
   30       23.365839   0.000000
   31       23.365839   0.000000
   32       25.070064   0.000000
   33       25.070064   0.000000
   34       29.930539   0.000000
   35       30.942995   0.000000
   36       32.033268   0.000000
   37       32.033268   0.000000
   38       34.751605   0.000000
   39       35.146302   0.000000
   40       35.146471   0.000000
 
  0.2727273E+00  0.0000000E+00  0.0000000E+00  0.4507889E-02
    1       -0.664684   1.000000
    2        2.260979   1.000000
    3        2.717014   1.000000
    4        2.717014   1.000000
    5        3.307091   1.000000
    6        3.406237   1.000000
    7        3.406237   1.000000
    8        5.109598   1.000000
    9        6.061334   1.000000
   10        6.061334   1.000000
   11        6.504252   1.000000
   12        6.504252   1.000000
   13        6.843260   1.000304
   14        7.519532   0.079197
   15        7.812928  -0.006362
   16        7.812928  -0.006362
   17        7.943871  -0.000403
   18        8.063237  -0.000014
   19        8.063237  -0.000014
   20        8.253041  -0.000000
   21        8.781837  -0.000000
   22        8.781837  -0.000000
   23       13.827796   0.000000
   24       13.827796   0.000000
   25       19.704783   0.000000
   26       19.704783   0.000000
   27       21.110203   0.000000
   28       21.110203   0.000000
   29       22.683942   0.000000
   30       22.683942   0.000000
   31       23.931353   0.000000
   32       26.015595   0.000000
   33       26.015595   0.000000
   34       29.995489   0.000000
   35       30.729448   0.000000
   36       33.138066   0.000000
   37       33.559242   0.000000
   38       33.559242   0.000000
   39       33.976304   0.000000
   40       33.976304   0.000000
 
  0.3636364E+00  0.0000000E+00  0.0000000E+00  0.4507889E-02
    1        0.086176   1.000000
    2        2.131607   1.000000
    3        3.061394   1.000000
    4        3.061394   1.000000
    5        3.611945   1.000000
    6        3.810674   1.000000
    7        3.810674   1.000000
    8        4.752823   1.000000
    9        5.682364   1.000000
   10        5.682364   1.000000
   11        6.369091   1.000000
   12        6.369091   1.000000
   13        6.561360   1.000000
   14        6.934126   1.002439
   15        7.451903   0.285271
   16        7.451903   0.285271
   17        7.626742  -0.034151
   18        7.626742  -0.034151
   19        7.649891  -0.035335
   20        8.115686  -0.000002
   21        8.782288  -0.000000
   22        8.782288  -0.000000
   23       15.206213   0.000000
   24       15.206213   0.000000
   25       19.616507   0.000000
   26       19.616507   0.000000
   27       19.675107   0.000000
   28       19.675107   0.000000
   29       22.152947   0.000000
   30       22.152947   0.000000
   31       26.038028   0.000000
   32       27.238341   0.000000
   33       27.238341   0.000000
   34       30.071757   0.000000
   35       30.508424   0.000000
   36       31.549613   0.000000
   37       31.892090   0.000000
   38       31.892090   0.000000
   39       36.196479   0.000000
   40       36.196591   0.000000
 
  0.4545455E+00  0.0000000E+00  0.0000000E+00  0.4507889E-02
    1        0.919088   1.000000
    2        1.669568   1.000000
    3        3.298537   1.000000
    4        3.298537   1.000000
    5        3.971915   1.000000
    6        4.327574   1.000000
    7        4.327574   1.000000
    8        4.362282   1.000000
    9        4.953377   1.000000
   10        4.953377   1.000000
   11        6.357709   1.000000
   12        6.412161   1.000000
   13        6.746193   1.000020
   14        6.746193   1.000020
   15        7.174295   1.033687
   16        7.174295   1.033687
   17        7.203210   1.022908
   18        7.203210   1.022908
   19        7.800744  -0.007794
   20        7.960097  -0.000267
   21        8.782708  -0.000000
   22        8.782708  -0.000000
   23       16.643611   0.000000
   24       16.643611   0.000000
   25       18.121006   0.000000
   26       18.121006   0.000000
   27       19.660016   0.000000
   28       19.660016   0.000000
   29       21.871934   0.000000
   30       21.871934   0.000000
   31       28.054854   0.000000
   32       28.661335   0.000000
   33       28.661335   0.000000
   34       29.884428   0.000000
   35       30.176472   0.000000
   36       30.234536   0.000000
   37       30.234536   0.000000
   38       30.323088   0.000000
   39       37.616395   0.000000
   40       38.676871   0.000000
 
  0.9090909E-01  0.9090909E-01  0.0000000E+00  0.9015778E-02
    1       -1.484762   1.000000
    2        2.209471   1.000000
    3        2.209471   1.000000
    4        2.249518   1.000000
    5        2.989545   1.000000
    6        2.989545   1.000000
    7        2.998461   1.000000
    8        5.546682   1.000000
    9        5.717527   1.000000
   10        5.736931   1.000000
   11        7.255345   0.966390
   12        7.340089   0.738343
   13        7.969698  -0.000208
   14        8.121180  -0.000002
   15        8.121180  -0.000002
   16        8.300105  -0.000000
   17        8.387885  -0.000000
   18        8.387885  -0.000000
   19        8.689874  -0.000000
   20        8.689874  -0.000000
   21        8.724308  -0.000000
   22       10.937291  -0.000000
   23       10.937291  -0.000000
   24       11.855036  -0.000000
   25       19.728134   0.000000
   26       20.391904   0.000000
   27       20.391904   0.000000
   28       22.607665   0.000000
   29       23.923019   0.000000
   30       23.923019   0.000000
   31       24.194580   0.000000
   32       24.194580   0.000000
   33       24.667754   0.000000
   34       30.554912   0.000000
   35       30.554912   0.000000
   36       30.742782   0.000000
   37       30.984864   0.000000
   38       34.813552   0.000000
   39       35.835950   0.000000
   40       35.835950   0.000000
 
  0.1818182E+00  0.9090909E-01  0.0000000E+00  0.1803156E-01
    1       -1.126160   1.000000
    2        2.293062   1.000000
    3        2.433300   1.000000
    4        2.464042   1.000000
    5        3.129701   1.000000
    6        3.160286   1.000000
    7        3.166962   1.000000
    8        5.378739   1.000000
    9        5.842405   1.000000
   10        5.856179   1.000000
   11        7.106760   1.029304
   12        7.243801   0.983897
   13        7.245885   0.980966
   14        7.399195   0.499936
   15        7.742121  -0.017911
   16        8.085646  -0.000007
   17        8.154566  -0.000001
   18        8.325546  -0.000000
   19        8.434994  -0.000000
   20        8.689502  -0.000000
   21        8.693182  -0.000000
   22        9.909767  -0.000000
   23       12.025475  -0.000000
   24       12.856482  -0.000000
   25       19.608703   0.000000
   26       20.404389   0.000000
   27       21.346775   0.000000
   28       21.953600   0.000000
   29       22.708353   0.000000
   30       23.559503   0.000000
   31       24.477087   0.000000
   32       24.638835   0.000000
   33       24.789268   0.000000
   34       30.634602   0.000000
   35       30.640587   0.000000
   36       31.678630   0.000000
   37       32.073093   0.000000
   38       33.193227   0.000000
   39       35.359601   0.000000
   40       36.010689   0.000000
 
  0.2727273E+00  0.9090909E-01  0.0000000E+00  0.1803156E-01
    1       -0.552673   1.000000
    2        2.347652   1.000000
    3        2.762107   1.000000
    4        2.780709   1.000000
    5        3.354799   1.000000
    6        3.443263   1.000000
    7        3.444054   1.000000
    8        5.103809   1.000000
    9        6.037894   1.000000
   10        6.064929   1.000000
   11        6.373302   1.000000
   12        6.430215   1.000000
   13        6.880596   1.000757
   14        7.159837   1.035332
   15        7.515486   0.088445
   16        7.767549  -0.012875
   17        7.824075  -0.005239
   18        8.062010  -0.000014
   19        8.159532  -0.000001
   20        8.685854  -0.000000
   21        8.688961  -0.000000
   22        8.917685  -0.000000
   23       13.226057   0.000000
   24       14.083161   0.000000
   25       19.124364   0.000000
   26       20.423068   0.000000
   27       20.507132   0.000000
   28       21.278389   0.000000
   29       22.891294   0.000000
   30       23.883288   0.000000
   31       24.020253   0.000000
   32       25.328550   0.000000
   33       25.773878   0.000000
   34       30.134367   0.000000
   35       30.784851   0.000000
   36       31.629817   0.000000
   37       33.378172   0.000000
   38       34.037520   0.000000
   39       34.208581   0.000000
   40       35.071231   0.000000
 
  0.3636364E+00  0.9090909E-01  0.0000000E+00  0.1803156E-01
    1        0.190638   1.000000
    2        2.222161   1.000000
    3        3.116293   1.000000
    4        3.126194   1.000000
    5        3.651811   1.000000
    6        3.818643   1.000000
    7        3.839256   1.000000
    8        4.759558   1.000000
    9        5.576178   1.000000
   10        5.651795   1.000000
   11        6.193890   1.000000
   12        6.370861   1.000000
   13        6.526326   1.000000
   14        6.727068   1.000011
   15        7.424025   0.395764
   16        7.464590   0.238955
   17        7.625662  -0.033973
   18        7.669759  -0.033345
   19        7.800980  -0.007765
   20        8.333993  -0.000000
   21        8.684479  -0.000000
   22        8.687980  -0.000000
   23       14.463171   0.000000
   24       15.422824   0.000000
   25       18.105692   0.000000
   26       19.785871   0.000000
   27       20.285592   0.000000
   28       20.423096   0.000000
   29       22.438218   0.000000
   30       23.265697   0.000000
   31       25.738247   0.000000
   32       26.386753   0.000000
   33       27.232828   0.000000
   34       29.470287   0.000000
   35       30.149619   0.000000
   36       31.038789   0.000000
   37       33.047912   0.000000
   38       33.189488   0.000000
   39       35.511378   0.000000
   40       36.266865   0.000000
 
  0.4545455E+00  0.9090909E-01  0.0000000E+00  0.1803156E-01
    1        1.015976   1.000000
    2        1.761987   1.000000
    3        3.364944   1.000000
    4        3.369200   1.000000
    5        4.002020   1.000000
    6        4.292149   1.000000
    7        4.343028   1.000000
    8        4.381124   1.000000
    9        4.877793   1.000000
   10        4.950221   1.000000
   11        6.145356   1.000000
   12        6.164661   1.000000
   13        6.746569   1.000020
   14        6.914701   1.001626
   15        7.173749   1.033788
   16        7.192863   1.028102
   17        7.208458   1.019619
   18        7.321348   0.803315
   19        7.851800  -0.003123
   20        8.059203  -0.000016
   21        8.685305  -0.000000
   22        8.686715  -0.000000
   23       15.703294   0.000000
   24       16.835997   0.000000
   25       16.924658   0.000000
   26       18.296558   0.000000
   27       20.301817   0.000000
   28       20.374215   0.000000
   29       22.352615   0.000000
   30       22.658071   0.000000
   31       27.292863   0.000000
   32       27.520207   0.000000
   33       28.592169   0.000000
   34       28.720958   0.000000
   35       29.148887   0.000000
   36       31.192888   0.000000
   37       31.441935   0.000000
   38       32.093311   0.000000
   39       37.926173   0.000000
   40       38.133288   0.000000
 
  0.1818182E+00  0.1818182E+00  0.0000000E+00  0.9015778E-02
    1       -0.778579   1.000000
    2        2.527167   1.000000
    3        2.527167   1.000000
    4        2.662669   1.000000
    5        3.289783   1.000000
    6        3.289783   1.000000
    7        3.316711   1.000000
    8        5.279165   1.000000
    9        5.915431   1.000000
   10        5.917643   1.000000
   11        6.809943   1.000126
   12        6.865719   1.000531
   13        6.865719   1.000531
   14        7.052820   1.017184
   15        7.424340   0.394467
   16        7.904912  -0.001018
   17        8.117861  -0.000002
   18        8.117861  -0.000002
   19        8.433253  -0.000000
   20        8.433253  -0.000000
   21        8.557865  -0.000000
   22       10.934543  -0.000000
   23       10.934543  -0.000000
   24       13.674160   0.000000
   25       18.898849   0.000000
   26       20.514224   0.000000
   27       21.957527   0.000000
   28       21.957527   0.000000
   29       23.210238   0.000000
   30       23.210238   0.000000
   31       24.171539   0.000000
   32       24.171539   0.000000
   33       25.822223   0.000000
   34       29.921762   0.000000
   35       31.406289   0.000000
   36       31.546082   0.000000
   37       32.222312   0.000000
   38       32.222312   0.000000
   39       35.621474   0.000000
   40       37.497267   0.000000
 
  0.2727273E+00  0.1818182E+00  0.0000000E+00  0.1803156E-01
    1       -0.223203   1.000000
    2        2.596736   1.000000
    3        2.874987   1.000000
    4        2.961599   1.000000
    5        3.497204   1.000000
    6        3.553717   1.000000
    7        3.555019   1.000000
    8        5.065063   1.000000
    9        5.995049   1.000000
   10        6.045009   1.000000
   11        6.102009   1.000000
   12        6.204445   1.000000
   13        6.369758   1.000000
   14        6.900486   1.001192
   15        7.574289  -0.006931
   16        7.631081  -0.034742
   17        7.806831  -0.007051
   18        7.972552  -0.000193
   19        8.059429  -0.000016
   20        8.430700  -0.000000
   21        8.478843  -0.000000
   22        9.832754  -0.000000
   23       11.995815  -0.000000
   24       14.770038   0.000000
   25       17.646540   0.000000
   26       20.399177   0.000000
   27       21.759509   0.000000
   28       21.855464   0.000000
   29       23.621341   0.000000
   30       23.664398   0.000000
   31       23.973565   0.000000
   32       25.387251   0.000000
   33       25.986958   0.000000
   34       29.027731   0.000000
   35       30.021454   0.000000
   36       32.250315   0.000000
   37       32.475758   0.000000
   38       34.222883   0.000000
   39       35.408875   0.000000
   40       36.655687   0.000000
 
  0.3636364E+00  0.1818182E+00  0.0000000E+00  0.1803156E-01
    1        0.496362   1.000000
    2        2.482709   1.000000
    3        3.259817   1.000000
    4        3.308271   1.000000
    5        3.769813   1.000000
    6        3.848228   1.000000
    7        3.922415   1.000000
    8        4.769070   1.000000
    9        5.310669   1.000000
   10        5.555224   1.000000
   11        5.932068   1.000000
   12        5.995546   1.000000
   13        6.389193   1.000000
   14        6.826835   1.000198
   15        7.333862   0.760721
   16        7.458786   0.259774
   17        7.623913  -0.033659
   18        7.693503  -0.028897
   19        7.803926  -0.007399
   20        8.428092  -0.000000
   21        8.443594  -0.000000
   22        8.998720  -0.000000
   23       13.062933   0.000000
   24       16.023536   0.000000
   25       16.392111   0.000000
   26       20.270853   0.000000
   27       20.512723   0.000000
   28       21.523898   0.000000
   29       23.611020   0.000000
   30       24.917811   0.000000
   31       24.945210   0.000000
   32       25.384112   0.000000
   33       27.348918   0.000000
   34       28.051839   0.000000
   35       28.627881   0.000000
   36       32.857534   0.000000
   37       34.131169   0.000000
   38       34.397345   0.000000
   39       34.778279   0.000000
   40       36.483194   0.000000
 
  0.4545455E+00  0.1818182E+00  0.0000000E+00  0.1803156E-01
    1        1.297329   1.000000
    2        2.028052   1.000000
    3        3.548933   1.000000
    4        3.572644   1.000000
    5        4.089448   1.000000
    6        4.196676   1.000000
    7        4.386450   1.000000
    8        4.432239   1.000000
    9        4.683210   1.000000
   10        4.937003   1.000000
   11        5.762233   1.000000
   12        5.855724   1.000000
   13        6.754536   1.000025
   14        6.991573   1.007056
   15        7.144999   1.035150
   16        7.175613   1.033430
   17        7.193101   1.028001
   18        7.324458   0.793039
   19        8.092157  -0.000005
   20        8.426853  -0.000000
   21        8.430097  -0.000000
   22        8.459801  -0.000000
   23       14.132950   0.000000
   24       15.229649   0.000000
   25       17.378799   0.000000
   26       18.801070   0.000000
   27       20.750962   0.000000
   28       21.102381   0.000000
   29       23.983312   0.000000
   30       24.622217   0.000000
   31       25.959611   0.000000
   32       26.129826   0.000000
   33       27.018549   0.000000
   34       27.344861   0.000000
   35       29.662179   0.000000
   36       32.046662   0.000000
   37       33.379446   0.000000
   38       34.042727   0.000000
   39       36.470915   0.000000
   40       38.941934   0.000000
 
  0.2727273E+00  0.2727273E+00  0.0000000E+00  0.9015778E-02
    1        0.301686   1.000000
    2        2.972222   1.000000
    3        2.972222   1.000000
    4        3.233222   1.000000
    5        3.727109   1.000000
    6        3.731552   1.000000
    7        3.731552   1.000000
    8        4.951468   1.000000
    9        5.652201   1.000000
   10        5.652201   1.000000
   11        5.838719   1.000000
   12        5.951109   1.000000
   13        6.225525   1.000000
   14        6.807744   1.000118
   15        7.415323   0.431939
   16        7.686914  -0.030277
   17        7.686914  -0.030277
   18        7.788967  -0.009396
   19        8.056969  -0.000017
   20        8.056969  -0.000017
   21        8.288927  -0.000000
   22       10.759910  -0.000000
   23       10.759910  -0.000000
   24       15.747065   0.000000
   25       16.153137   0.000000
   26       20.519706   0.000000
   27       22.488375   0.000000
   28       22.488375   0.000000
   29       23.015194   0.000000
   30       23.015194   0.000000
   31       25.354205   0.000000
   32       25.354205   0.000000
   33       27.564415   0.000000
   34       27.850053   0.000000
   35       28.546913   0.000000
   36       31.650573   0.000000
   37       34.525254   0.000000
   38       34.525254   0.000000
   39       36.371547   0.000000
   40       37.436766   0.000000
 
  0.3636364E+00  0.2727273E+00  0.0000000E+00  0.1803156E-01
    1        0.979287   1.000000
    2        2.876685   1.000000
    3        3.403417   1.000000
    4        3.566023   1.000000
    5        3.914255   1.000000
    6        3.960969   1.000000
    7        4.052231   1.000000
    8        4.753550   1.000000
    9        5.017642   1.000000
   10        5.383236   1.000000
   11        5.383768   1.000000
   12        5.845484   1.000000
   13        6.459450   1.000000
   14        6.738880   1.000016
   15        7.173613   1.033813
   16        7.360782   0.659200
   17        7.441502   0.325288
   18        7.626110  -0.034048
   19        8.058222  -0.000016
   20        8.119820  -0.000002
   21        8.165343  -0.000000
   22        9.766156  -0.000000
   23       11.694773  -0.000000
   24       14.830313   0.000000
   25       16.908665   0.000000
   26       20.761130   0.000000
   27       21.010704   0.000000
   28       22.284555   0.000000
   29       23.405303   0.000000
   30       23.964240   0.000000
   31       25.686030   0.000000
   32       26.685328   0.000000
   33       27.216176   0.000000
   34       27.646017   0.000000
   35       27.723766   0.000000
   36       32.730816   0.000000
   37       34.969537   0.000000
   38       35.271794   0.000000
   39       36.549959   0.000000
   40       36.830429   0.000000
 
  0.4545455E+00  0.2727273E+00  0.0000000E+00  0.1803156E-01
    1        1.733522   1.000000
    2        2.431388   1.000000
    3        3.769816   1.000000
    4        3.881470   1.000000
    5        4.062896   1.000000
    6        4.224991   1.000000
    7        4.448859   1.000000
    8        4.472657   1.000000
    9        4.499492   1.000000
   10        4.903116   1.000000
   11        5.401480   1.000000
   12        5.622376   1.000000
   13        6.790035   1.000072
   14        6.852857   1.000387
   15        7.027297   1.012254
   16        7.098448   1.027488
   17        7.124696   1.032732
   18        7.189900   1.029296
   19        8.068869  -0.000012
   20        8.099276  -0.000004
   21        8.531060  -0.000000
   22        9.051149  -0.000000
   23       12.654199  -0.000000
   24       13.679724   0.000000
   25       18.195749   0.000000
   26       19.569446   0.000000
   27       21.126578   0.000000
   28       21.632978   0.000000
   29       24.438163   0.000000
   30       24.946450   0.000000
   31       25.541678   0.000000
   32       26.023247   0.000000
   33       26.268880   0.000000
   34       27.020409   0.000000
   35       30.150593   0.000000
   36       32.719208   0.000000
   37       34.962523   0.000000
   38       35.519657   0.000000
   39       36.116128   0.000000
   40       37.481408   0.000000
 
  0.3636364E+00  0.3636364E+00  0.0000000E+00  0.9015778E-02
    1        1.594717   1.000000
    2        3.331069   1.000000
    3        3.331069   1.000000
    4        3.810258   1.000000
    5        4.040047   1.000000
    6        4.215285   1.000000
    7        4.215285   1.000000
    8        4.684991   1.000000
    9        4.915860   1.000000
   10        4.915860   1.000000
   11        5.135866   1.000000
   12        5.690652   1.000000
   13        6.615573   1.000000
   14        6.619409   1.000000
   15        6.972872   1.005109
   16        7.143163   1.035021
   17        7.143163   1.035021
   18        7.641609  -0.035433
   19        7.641609  -0.035433
   20        7.931685  -0.000543
   21        8.553912  -0.000000
   22       10.568798  -0.000000
   23       10.568798  -0.000000
   24       13.492199   0.000000
   25       17.989992   0.000000
   26       21.109483   0.000000
   27       21.940099   0.000000
   28       21.940099   0.000000
   29       23.026532   0.000000
   30       23.026532   0.000000
   31       25.387914   0.000000
   32       25.949657   0.000000
   33       28.131620   0.000000
   34       28.131620   0.000000
   35       29.732069   0.000000
   36       31.944633   0.000000
   37       35.380950   0.000000
   38       37.282905   0.000000
   39       37.298364   0.000000
   40       37.298364   0.000000
 
  0.4545455E+00  0.3636364E+00  0.0000000E+00  0.1803156E-01
    1        2.271314   1.000000
    2        2.903283   1.000000
    3        3.721339   1.000000
    4        3.895997   1.000000
    5        4.249840   1.000000
    6        4.392191   1.000000
    7        4.515409   1.000000
    8        4.538704   1.000000
    9        4.557964   1.000000
   10        4.834405   1.000000
   11        5.116518   1.000000
   12        5.435192   1.000000
   13        6.648132   1.000001
   14        6.840098   1.000280
   15        6.863174   1.000499
   16        6.883051   1.000802
   17        6.902029   1.001234
   18        7.234873   0.995353
   19        7.684388  -0.030782
   20        7.774235  -0.011710
   21        9.074047  -0.000000
   22        9.717842  -0.000000
   23       11.421213  -0.000000
   24       12.373825  -0.000000
   25       19.211279   0.000000
   26       20.533442   0.000000
   27       21.592679   0.000000
   28       22.226798   0.000000
   29       22.997006   0.000000
   30       23.868138   0.000000
   31       24.151076   0.000000
   32       24.838548   0.000000
   33       28.807211   0.000000
   34       29.610134   0.000000
   35       30.726832   0.000000
   36       33.339513   0.000000
   37       33.597303   0.000000
   38       36.197623   0.000000
   39       37.254686   0.000000
   40       37.839263   0.000000
 
  0.4545455E+00  0.4545455E+00  0.0000000E+00  0.9015778E-02
    1        2.835290   1.000000
    2        3.344851   1.000000
    3        3.344851   1.000000
    4        3.674494   1.000000
    5        4.566700   1.000000
    6        4.566700   1.000000
    7        4.583781   1.000000
    8        4.601033   1.000000
    9        4.720878   1.000000
   10        4.877966   1.000000
   11        4.877966   1.000000
   12        5.208417   1.000000
   13        6.554409   1.000000
   14        6.671065   1.000002
   15        6.671065   1.000002
   16        6.672079   1.000002
   17        7.061383   1.019030
   18        7.334607   0.758082
   19        7.334607   0.758082
   20        7.511655   0.097584
   21        9.700647  -0.000000
   22       10.456225  -0.000000
   23       10.456225  -0.000000
   24       11.316487  -0.000000
   25       20.367914   0.000000
   26       21.638963   0.000000
   27       21.638963   0.000000
   28       22.189573   0.000000
   29       22.854587   0.000000
   30       22.948283   0.000000
   31       22.948283   0.000000
   32       23.813085   0.000000
   33       31.467294   0.000000
   34       31.467294   0.000000
   35       32.189242   0.000000
   36       32.566086   0.000000
   37       33.699764   0.000000
   38       34.798390   0.000000
   39       35.141460   0.000000
   40       35.141460   0.000000
 
  0.9090909E-01  0.9090909E-01  0.9090909E-01  0.6010518E-02
    1       -1.364422   1.000000
    2        2.285564   1.000000
    3        2.285564   1.000000
    4        2.285564   1.000000
    5        3.044945   1.000000
    6        3.044945   1.000000
    7        3.044945   1.000000
    8        5.511543   1.000000
    9        5.754980   1.000000
   10        5.754980   1.000000
   11        7.284435   0.907875
   12        7.284435   0.907875
   13        7.838147  -0.004053
   14        7.838147  -0.004053
   15        7.838147  -0.004053
   16        8.229118  -0.000000
   17        8.229118  -0.000000
   18        8.229118  -0.000000
   19        8.689709  -0.000000
   20        8.689709  -0.000000
   21        8.689709  -0.000000