 vasp.6.2.0 18Jan21 (build Mar 17 2021 09:06:54) complex                        
  
 executed on             LinuxIFC date 2021.09.09  09:03:37
 serial version


--------------------------------------------------------------------------------------------------------


 INCAR:
   ENCUT = 300.000000
   SIGMA = 0.200000
   EDIFF = 1.00e-06
   GGA = PE
   PREC = normal
   IBRION = 1
   ICHARG = 1
   ISIF = 2
   ISMEAR = 1
   KPAR = 1
   NBANDS = 40
   NSW = 0
   NCORE = 1
   LCHARG = .TRUE.

 POTCAR:    PAW_PBE Fe 06Sep2000                  
 POTCAR:    PAW_PBE Fe 06Sep2000                  
   SHA256 =  cd5a22d9368cc8b5cc476bea79732366149640da08ac9009b0e1b7fc627eea28 Fe/POTCAR             
   COPYR  = (c) Copyright 06Sep2000 Georg Kresse                                                    
   COPYR  = This file is part of the software VASP. Any use, copying, and all other rights are regul
   COPYR  = If you do not have a valid VASP license, you may not use, copy or distribute this file. 
   VRHFIN =Fe:  d7 s1                                                                               
   LEXCH  = PE                                                                                      
   EATOM  =   594.3153 eV,   43.6809 Ry                                                             
                                                                                                    
   TITEL  = PAW_PBE Fe 06Sep2000                                                                    
   LULTRA =        F    use ultrasoft PP ?                                                          
   IUNSCR =        1    unscreen: 0-lin 1-nonlin 2-no                                               
   RPACOR =    2.000    partial core radius                                                         
   POMASS =   55.847; ZVAL   =    8.000    mass and valenz                                          
   RCORE  =    2.300    outmost cutoff radius                                                       
   RWIGS  =    2.460; RWIGS  =    1.302    wigner-seitz radius (au A)                               
   ENMAX  =  267.882; ENMIN  =  200.911 eV                                                          
   RCLOC  =    1.701    cutoff for local pot                                                        
   LCOR   =        T    correct aug charges                                                         
   LPAW   =        T    paw PP                                                                      
   EAUG   =  511.368                                                                                
   DEXC   =    0.000                                                                                
   RMAX   =    2.356    core radius for proj-oper                                                   
   RAUG   =    1.300    factor for augmentation sphere                                              
   RDEP   =    2.442    radius for radial grids                                                     
   RDEPT  =    1.890    core radius for aug-charge                                                  
                                                                                                    
   Atomic configuration                                                                             
    9 entries                                                                                       
     n  l   j            E        occ.                                                              
     1  0  0.50     -6993.8440   2.0000                                                             
     2  0  0.50      -814.6047   2.0000                                                             
     2  1  1.50      -693.3689   6.0000                                                             
     3  0  0.50       -89.4732   2.0000                                                             
     3  1  1.50       -55.6373   6.0000                                                             
     3  2  2.50        -3.8151   7.0000                                                             
     4  0  0.50        -4.2551   1.0000                                                             
     4  1  1.50        -3.4015   0.0000                                                             
     4  3  2.50        -1.3606   0.0000                                                             
   Description                                                                                      
     l       E           TYP  RCUT    TYP  RCUT                                                     
     2     -3.8151135     23  2.300                                                                 
     2     -5.1756961     23  2.300                                                                 
     0     -4.2550963     23  2.300                                                                 
     0      7.2035603     23  2.300                                                                 
     1     -2.7211652     23  2.300                                                                 
     1     18.4316424     23  2.300                                                                 
  local pseudopotential read in
  partial core-charges read in
  partial kinetic energy density read in
  atomic valenz-charges read in
  non local Contribution for L=           2  read in
    real space projection operators read in
  non local Contribution for L=           2  read in
    real space projection operators read in
  non local Contribution for L=           0  read in
    real space projection operators read in
  non local Contribution for L=           0  read in
    real space projection operators read in
  non local Contribution for L=           1  read in
    real space projection operators read in
  non local Contribution for L=           1  read in
    real space projection operators read in
    PAW grid and wavefunctions read in
 
   number of l-projection  operators is LMAX  =           6
   number of lm-projection operators is LMMAX =          18
 
  PAW_PBE Fe 06Sep2000                  :
 energy of atom  1       EATOM= -594.3153
 kinetic energy error for atom=    0.0269 (will be added to EATOM!!)
 
 
 POSCAR: Fe
  positions in cartesian coordinates
  No initial velocities read in
 exchange correlation table for  LEXCH =        8
   RHO(1)=    0.500       N(1)  =     2000
   RHO(2)=  100.500       N(2)  =     4000
 


--------------------------------------------------------------------------------------------------------


 ion  position               nearest neighbor table
   1  0.000  0.000  0.000-   2 2.39   3 2.39   4 2.39   3 2.39   4 2.39   2 2.39   4 2.39   4 2.39
                             2 2.39   3 2.39   3 2.39   2 2.39
   2  0.500  0.500  0.000-   1 2.39   3 2.39   4 2.39   3 2.39   4 2.39   1 2.39   3 2.39   3 2.39
                             1 2.39   4 2.39   4 2.39   1 2.39
   3  0.500  0.000  0.500-   1 2.39   2 2.39   4 2.39   1 2.39   2 2.39   2 2.39   4 2.39   2 2.39
                             1 2.39   4 2.39   1 2.39   4 2.39
   4  0.000  0.500  0.500-   1 2.39   2 2.39   3 2.39   1 2.39   2 2.39   1 2.39   3 2.39   1 2.39
                             2 2.39   3 2.39   2 2.39   3 2.39
 
  LATTYP: Found a simple cubic cell.
 ALAT       =     3.3866804802
  
  Lattice vectors:
  
 A1 = (   3.3866804802,   0.0000000000,   0.0000000000)
 A2 = (   0.0000000000,   3.3866804802,   0.0000000000)
 A3 = (   0.0000000000,   0.0000000000,   3.3866804802)


Analysis of symmetry for initial positions (statically):
=====================================================================
 Subroutine PRICEL returns following result:
 
  LATTYP: Found a face centered cubic cell.
 ALAT       =     3.3866804802
  
  Lattice vectors:
  
 A1 = (   1.6933402401,  -1.6933402401,   0.0000000000)
 A2 = (   1.6933402401,   0.0000000000,   1.6933402401)
 A3 = (   0.0000000000,  -1.6933402401,   1.6933402401)
 
   4 primitive cells build up your supercell.
 

 Routine SETGRP: Setting up the symmetry group for a 
 simple cubic supercell.


 Subroutine GETGRP returns: Found 48 space group operations
 (whereof 48 operations were pure point group operations)
 out of a pool of 48 trial point group operations.


The static configuration has the point symmetry O_h .


Analysis of symmetry for dynamics (positions and initial velocities):
=====================================================================
 Subroutine PRICEL returns following result:
 
  LATTYP: Found a face centered cubic cell.
 ALAT       =     3.3866804802
  
  Lattice vectors:
  
 A1 = (   1.6933402401,  -1.6933402401,   0.0000000000)
 A2 = (   1.6933402401,   0.0000000000,   1.6933402401)
 A3 = (   0.0000000000,  -1.6933402401,   1.6933402401)
 
   4 primitive cells build up your supercell.
 

 Routine SETGRP: Setting up the symmetry group for a 
 simple cubic supercell.


 Subroutine GETGRP returns: Found 48 space group operations
 (whereof 48 operations were pure point group operations)
 out of a pool of 48 trial point group operations.


The dynamic configuration has the point symmetry O_h .


 Subroutine INISYM returns: Found 48 space group operations
 (whereof 48 operations are pure point group operations),
 and found     4 'primitive' translations


----------------------------------------------------------------------------------------

                                     Primitive cell                                     

  volume of cell :       9.7110

  direct lattice vectors                    reciprocal lattice vectors
     1.693340240 -1.693340240  0.000000000     0.295274386 -0.295274386 -0.295274386
     1.693340240  0.000000000  1.693340240     0.295274386  0.295274386  0.295274386
     0.000000000 -1.693340240  1.693340240    -0.295274386 -0.295274386  0.295274386

  length of vectors
     2.394744733  2.394744733  2.394744733     0.511430239  0.511430239  0.511430239

  position of ions in fractional coordinates (direct lattice)
     0.000000000  0.000000000  0.000000000

  ion indices of the primitive-cell ions
   primitive index   ion index
                 1           1

----------------------------------------------------------------------------------------

 
 
 KPOINTS: KPOINTS created by Atomic Simulation Env

Automatic generation of k-mesh.
 Grid dimensions read from file:
 generate k-points for:   11   11   11

 Generating k-lattice:

  Cartesian coordinates                     Fractional coordinates (reciprocal lattice)
     0.026843126  0.000000000  0.000000000     0.090909091  0.000000000  0.000000000
     0.000000000  0.026843126  0.000000000     0.000000000  0.090909091  0.000000000
     0.000000000  0.000000000  0.026843126     0.000000000  0.000000000  0.090909091

  Length of vectors
     0.026843126  0.026843126  0.026843126

  Shift w.r.t. Gamma in fractional coordinates (k-lattice)
     0.000000000  0.000000000  0.000000000

 
 Subroutine IBZKPT returns following result:
 ===========================================
 
 Found     56 irreducible k-points:
 
 Following reciprocal coordinates:
            Coordinates               Weight
  0.000000  0.000000  0.000000      1.000000
  0.090909  0.000000  0.000000      6.000000
  0.181818  0.000000  0.000000      6.000000
  0.272727  0.000000  0.000000      6.000000
  0.363636  0.000000  0.000000      6.000000
  0.454545  0.000000  0.000000      6.000000
  0.090909  0.090909  0.000000     12.000000
  0.181818  0.090909  0.000000     24.000000
  0.272727  0.090909  0.000000     24.000000
  0.363636  0.090909  0.000000     24.000000
  0.454545  0.090909  0.000000     24.000000
  0.181818  0.181818  0.000000     12.000000
  0.272727  0.181818  0.000000     24.000000
  0.363636  0.181818  0.000000     24.000000
  0.454545  0.181818  0.000000     24.000000
  0.272727  0.272727  0.000000     12.000000
  0.363636  0.272727  0.000000     24.000000
  0.454545  0.272727  0.000000     24.000000
  0.363636  0.363636  0.000000     12.000000
  0.454545  0.363636  0.000000     24.000000
  0.454545  0.454545  0.000000     12.000000
  0.090909  0.090909  0.090909      8.000000
  0.181818  0.090909  0.090909     24.000000
  0.272727  0.090909  0.090909     24.000000
  0.363636  0.090909  0.090909     24.000000
  0.454545  0.090909  0.090909     24.000000
  0.181818  0.181818  0.090909     24.000000
  0.272727  0.181818  0.090909     48.000000
  0.363636  0.181818  0.090909     48.000000
  0.454545  0.181818  0.090909     48.000000
  0.272727  0.272727  0.090909     24.000000
  0.363636  0.272727  0.090909     48.000000
  0.454545  0.272727  0.090909     48.000000
  0.363636  0.363636  0.090909     24.000000
  0.454545  0.363636  0.090909     48.000000
  0.454545  0.454545  0.090909     24.000000
  0.181818  0.181818  0.181818      8.000000
  0.272727  0.181818  0.181818     24.000000
  0.363636  0.181818  0.181818     24.000000
  0.454545  0.181818  0.181818     24.000000
  0.272727  0.272727  0.181818     24.000000
  0.363636  0.272727  0.181818     48.000000
  0.454545  0.272727  0.181818     48.000000
  0.363636  0.363636  0.181818     24.000000
  0.454545  0.363636  0.181818     48.000000
  0.454545  0.454545  0.181818     24.000000
  0.272727  0.272727  0.272727      8.000000
  0.363636  0.272727  0.272727     24.000000
  0.454545  0.272727  0.272727     24.000000
  0.363636  0.363636  0.272727     24.000000
  0.454545  0.363636  0.272727     48.000000
  0.454545  0.454545  0.272727     24.000000
  0.363636  0.363636  0.363636      8.000000
  0.454545  0.363636  0.363636     24.000000
  0.454545  0.454545  0.363636     24.000000
  0.454545  0.454545  0.454545      8.000000
 
 Following cartesian coordinates:
            Coordinates               Weight
  0.000000  0.000000  0.000000      1.000000
  0.026843  0.000000  0.000000      6.000000
  0.053686  0.000000  0.000000      6.000000
  0.080529  0.000000  0.000000      6.000000
  0.107373  0.000000  0.000000      6.000000
  0.134216  0.000000  0.000000      6.000000
  0.026843  0.026843  0.000000     12.000000
  0.053686  0.026843  0.000000     24.000000
  0.080529  0.026843  0.000000     24.000000
  0.107373  0.026843  0.000000     24.000000
  0.134216  0.026843  0.000000     24.000000
  0.053686  0.053686  0.000000     12.000000
  0.080529  0.053686  0.000000     24.000000
  0.107373  0.053686  0.000000     24.000000
  0.134216  0.053686  0.000000     24.000000
  0.080529  0.080529  0.000000     12.000000
  0.107373  0.080529  0.000000     24.000000
  0.134216  0.080529  0.000000     24.000000
  0.107373  0.107373  0.000000     12.000000
  0.134216  0.107373  0.000000     24.000000
  0.134216  0.134216  0.000000     12.000000
  0.026843  0.026843  0.026843      8.000000
  0.053686  0.026843  0.026843     24.000000
  0.080529  0.026843  0.026843     24.000000
  0.107373  0.026843  0.026843     24.000000
  0.134216  0.026843  0.026843     24.000000
  0.053686  0.053686  0.026843     24.000000
  0.080529  0.053686  0.026843     48.000000
  0.107373  0.053686  0.026843     48.000000
  0.134216  0.053686  0.026843     48.000000
  0.080529  0.080529  0.026843     24.000000
  0.107373  0.080529  0.026843     48.000000
  0.134216  0.080529  0.026843     48.000000
  0.107373  0.107373  0.026843     24.000000
  0.134216  0.107373  0.026843     48.000000
  0.134216  0.134216  0.026843     24.000000
  0.053686  0.053686  0.053686      8.000000
  0.080529  0.053686  0.053686     24.000000
  0.107373  0.053686  0.053686     24.000000
  0.134216  0.053686  0.053686     24.000000
  0.080529  0.080529  0.053686     24.000000
  0.107373  0.080529  0.053686     48.000000
  0.134216  0.080529  0.053686     48.000000
  0.107373  0.107373  0.053686     24.000000
  0.134216  0.107373  0.053686     48.000000
  0.134216  0.134216  0.053686     24.000000
  0.080529  0.080529  0.080529      8.000000
  0.107373  0.080529  0.080529     24.000000
  0.134216  0.080529  0.080529     24.000000
  0.107373  0.107373  0.080529     24.000000
  0.134216  0.107373  0.080529     48.000000
  0.134216  0.134216  0.080529     24.000000
  0.107373  0.107373  0.107373      8.000000
  0.134216  0.107373  0.107373     24.000000
  0.134216  0.134216  0.107373     24.000000
  0.134216  0.134216  0.134216      8.000000
 


--------------------------------------------------------------------------------------------------------




 Dimension of arrays:
   k-points           NKPTS =     56   k-points in BZ     NKDIM =     56   number of bands    NBANDS=     40
   number of dos      NEDOS =    301   number of ions     NIONS =      4
   non local maximal  LDIM  =      6   non local SUM 2l+1 LMDIM =     18
   total plane-waves  NPLWV =   2744
   max r-space proj   IRMAX =      1   max aug-charges    IRDMAX=   2716
   dimension x,y,z NGX =    14 NGY =   14 NGZ =   14
   dimension x,y,z NGXF=    28 NGYF=   28 NGZF=   28
   support grid    NGXF=    28 NGYF=   28 NGZF=   28
   ions per type =               4
   NGX,Y,Z   is equivalent  to a cutoff of   6.87,  6.87,  6.87 a.u.
   NGXF,Y,Z  is equivalent  to a cutoff of  13.74, 13.74, 13.74 a.u.

 SYSTEM =  unknown system                          
 POSCAR =  Fe                                      

 Startparameter for this run:
   NWRITE =      2    write-flag & timer
   PREC   = normal    normal or accurate (medium, high low for compatibility)
   ISTART =      0    job   : 0-new  1-cont  2-samecut
   ICHARG =      1    charge: 1-file 2-atom 10-const
   ISPIN  =      1    spin polarized calculation?
   LNONCOLLINEAR =      F non collinear calculations
   LSORBIT =      F    spin-orbit coupling
   INIWAV =      1    electr: 0-lowe 1-rand  2-diag
   LASPH  =      F    aspherical Exc in radial PAW
   METAGGA=      F    non-selfconsistent MetaGGA calc.

 Electronic Relaxation 1
   ENCUT  =  300.0 eV  22.05 Ry    4.70 a.u.   4.78  4.78  4.78*2*pi/ulx,y,z
   ENINI  =  300.0     initial cutoff
   ENAUG  =  511.4 eV  augmentation charge cutoff
   NELM   =     60;   NELMIN=  2; NELMDL= -5     # of ELM steps 
   EDIFF  = 0.1E-05   stopping-criterion for ELM
   LREAL  =      F    real-space projection
   NLSPLINE    = F    spline interpolate recip. space projectors
   LCOMPAT=      F    compatible to vasp.4.4
   GGA_COMPAT  = T    GGA compatible to vasp.4.4-vasp.4.6
   LMAXPAW     = -100 max onsite density
   LMAXMIX     =    2 max onsite mixed and CHGCAR
   VOSKOWN=      0    Vosko Wilk Nusair interpolation
   ROPT   =    0.00000
 Ionic relaxation
   EDIFFG = 0.1E-04   stopping-criterion for IOM
   NSW    =      0    number of steps for IOM
   NBLOCK =      1;   KBLOCK =      1    inner block; outer block 
   IBRION =     -1    ionic relax: 0-MD 1-quasi-New 2-CG
   NFREE  =      0    steps in history (QN), initial steepest desc. (CG)
   ISIF   =      2    stress and relaxation
   IWAVPR =      0    prediction:  0-non 1-charg 2-wave 3-comb
   ISYM   =      2    0-nonsym 1-usesym 2-fastsym
   LCORR  =      T    Harris-Foulkes like correction to forces

   POTIM  = 0.5000    time-step for ionic-motion
   TEIN   =    0.0    initial temperature
   TEBEG  =    0.0;   TEEND  =   0.0 temperature during run
   SMASS  =  -3.00    Nose mass-parameter (am)
   estimated Nose-frequenzy (Omega)   =  0.10E-29 period in steps = 0.13E+47 mass=  -0.262E-27a.u.
   SCALEE = 1.0000    scale energy and forces
   NPACO  =    256;   APACO  = 16.0  distance and # of slots for P.C.
   PSTRESS=    0.0 pullay stress

  Mass of Ions in am
   POMASS =  55.85
  Ionic Valenz
   ZVAL   =   8.00
  Atomic Wigner-Seitz radii
   RWIGS  =  -1.00
  virtual crystal weights 
   VCA    =   1.00
   NELECT =      32.0000    total number of electrons
   NUPDOWN=      -1.0000    fix difference up-down

 DOS related values:
   EMIN   =  10.00;   EMAX   =-10.00  energy-range for DOS
   EFERMI =   0.00
   ISMEAR =     1;   SIGMA  =   0.20  broadening in eV -4-tet -1-fermi 0-gaus

 Electronic relaxation 2 (details)
   IALGO  =     38    algorithm
   LDIAG  =      T    sub-space diagonalisation (order eigenvalues)
   LSUBROT=      F    optimize rotation matrix (better conditioning)
   TURBO    =      0    0=normal 1=particle mesh
   IRESTART =      0    0=no restart 2=restart with 2 vectors
   NREBOOT  =      0    no. of reboots
   NMIN     =      0    reboot dimension
   EREF     =   0.00    reference energy to select bands
   IMIX   =      4    mixing-type and parameters
     AMIX     =   0.40;   BMIX     =  1.00
     AMIX_MAG =   1.60;   BMIX_MAG =  1.00
     AMIN     =   0.10
     WC   =   100.;   INIMIX=   1;  MIXPRE=   1;  MAXMIX= -45

 Intra band minimization:
   WEIMIN = 0.0000     energy-eigenvalue tresh-hold
   EBREAK =  0.62E-08  absolut break condition
   DEPER  =   0.30     relativ break condition  

   TIME   =   0.40     timestep for ELM

  volume/ion in A,a.u.               =       9.71        65.53
  Fermi-wavevector in a.u.,A,eV,Ry     =   1.534678  2.900121 32.044939  2.355237
  Thomas-Fermi vector in A             =   2.641572
 
 Write flags
   LWAVE        =      T    write WAVECAR
   LDOWNSAMPLE  =      F    k-point downsampling of WAVECAR
   LCHARG       =      T    write CHGCAR
   LVTOT        =      F    write LOCPOT, total local potential
   LVHAR        =      F    write LOCPOT, Hartree potential only
   LELF         =      F    write electronic localiz. function (ELF)
   LORBIT       =      0    0 simple, 1 ext, 2 COOP (PROOUT), +10 PAW based schemes


 Dipole corrections
   LMONO  =      F    monopole corrections only (constant potential shift)
   LDIPOL =      F    correct potential (dipole corrections)
   IDIPOL =      0    1-x, 2-y, 3-z, 4-all directions 
   EPSILON=  1.0000000 bulk dielectric constant

 Exchange correlation treatment:
   GGA     =    PE    GGA type
   LEXCH   =     8    internal setting for exchange type
   VOSKOWN=      0    Vosko Wilk Nusair interpolation
   LHFCALC =     F    Hartree Fock is set to
   LHFONE  =     F    Hartree Fock one center treatment
   AEXX    =    0.0000 exact exchange contribution

 Linear response parameters
   LEPSILON=     F    determine dielectric tensor
   LRPA    =     F    only Hartree local field effects (RPA)
   LNABLA  =     F    use nabla operator in PAW spheres
   LVEL    =     F    velocity operator in full k-point grid
   LINTERFAST=   F  fast interpolation
   KINTER  =     0    interpolate to denser k-point grid
   CSHIFT  =0.1000    complex shift for real part using Kramers Kronig
   OMEGAMAX=  -1.0    maximum frequency
   DEG_THRESHOLD= 0.2000000E-02 threshold for treating states as degnerate
   RTIME   =   -0.100 relaxation time in fs
  (WPLASMAI=    0.000 imaginary part of plasma frequency in eV, 0.658/RTIME)
   DFIELD  = 0.0000000 0.0000000 0.0000000 field for delta impulse in time
 
 Orbital magnetization related:
   ORBITALMAG=     F  switch on orbital magnetization
   LCHIMAG   =     F  perturbation theory with respect to B field
   DQ        =  0.001000  dq finite difference perturbation B field
   LLRAUG    =     F  two centre corrections for induced B field



--------------------------------------------------------------------------------------------------------


 Static calculation
 charge density and potential will be updated during run
 non-spin polarized calculation
 Variant of blocked Davidson
 Davidson routine will perform the subspace rotation
 perform sub-space diagonalisation
    after iterative eigenvector-optimisation
 modified Broyden-mixing scheme, WC =      100.0
 initial mixing is a Kerker type mixing with AMIX =  0.4000 and BMIX =      1.0000
 Hartree-type preconditioning will be used
 using additional bands           24
 reciprocal scheme for non local part
 use partial core corrections
 calculate Harris-corrections to forces 
   (improved forces if not selfconsistent)
 use gradient corrections 
 use of overlap-Matrix (Vanderbilt PP)
 Methfessel and Paxton  Order N= 1 SIGMA  =   0.20


--------------------------------------------------------------------------------------------------------


  energy-cutoff  :      300.00
  volume of cell :       38.84
      direct lattice vectors                 reciprocal lattice vectors
     3.386680480  0.000000000  0.000000000     0.295274386  0.000000000  0.000000000
     0.000000000  3.386680480  0.000000000     0.000000000  0.295274386  0.000000000
     0.000000000  0.000000000  3.386680480     0.000000000  0.000000000  0.295274386

  length of vectors
     3.386680480  3.386680480  3.386680480     0.295274386  0.295274386  0.295274386


 
 k-points in units of 2pi/SCALE and weight: KPOINTS created by Atomic Simulation Env
   0.00000000  0.00000000  0.00000000       0.001
   0.02684313  0.00000000  0.00000000       0.005
   0.05368625  0.00000000  0.00000000       0.005
   0.08052938  0.00000000  0.00000000       0.005
   0.10737250  0.00000000  0.00000000       0.005
   0.13421563  0.00000000  0.00000000       0.005
   0.02684313  0.02684313  0.00000000       0.009
   0.05368625  0.02684313  0.00000000       0.018
   0.08052938  0.02684313  0.00000000       0.018
   0.10737250  0.02684313  0.00000000       0.018
   0.13421563  0.02684313  0.00000000       0.018
   0.05368625  0.05368625  0.00000000       0.009
   0.08052938  0.05368625  0.00000000       0.018
   0.10737250  0.05368625  0.00000000       0.018
   0.13421563  0.05368625  0.00000000       0.018
   0.08052938  0.08052938  0.00000000       0.009
   0.10737250  0.08052938  0.00000000       0.018
   0.13421563  0.08052938  0.00000000       0.018
   0.10737250  0.10737250  0.00000000       0.009
   0.13421563  0.10737250  0.00000000       0.018
   0.13421563  0.13421563  0.00000000       0.009
   0.02684313  0.02684313  0.02684313       0.006
   0.05368625  0.02684313  0.02684313       0.018
   0.08052938  0.02684313  0.02684313       0.018
   0.10737250  0.02684313  0.02684313       0.018
   0.13421563  0.02684313  0.02684313       0.018
   0.05368625  0.05368625  0.02684313       0.018
   0.08052938  0.05368625  0.02684313       0.036
   0.10737250  0.05368625  0.02684313       0.036
   0.13421563  0.05368625  0.02684313       0.036
   0.08052938  0.08052938  0.02684313       0.018
   0.10737250  0.08052938  0.02684313       0.036
   0.13421563  0.08052938  0.02684313       0.036
   0.10737250  0.10737250  0.02684313       0.018
   0.13421563  0.10737250  0.02684313       0.036
   0.13421563  0.13421563  0.02684313       0.018
   0.05368625  0.05368625  0.05368625       0.006
   0.08052938  0.05368625  0.05368625       0.018
   0.10737250  0.05368625  0.05368625       0.018
   0.13421563  0.05368625  0.05368625       0.018
   0.08052938  0.08052938  0.05368625       0.018
   0.10737250  0.08052938  0.05368625       0.036
   0.13421563  0.08052938  0.05368625       0.036
   0.10737250  0.10737250  0.05368625       0.018
   0.13421563  0.10737250  0.05368625       0.036
   0.13421563  0.13421563  0.05368625       0.018
   0.08052938  0.08052938  0.08052938       0.006
   0.10737250  0.08052938  0.08052938       0.018
   0.13421563  0.08052938  0.08052938       0.018
   0.10737250  0.10737250  0.08052938       0.018
   0.13421563  0.10737250  0.08052938       0.036
   0.13421563  0.13421563  0.08052938       0.018
   0.10737250  0.10737250  0.10737250       0.006
   0.13421563  0.10737250  0.10737250       0.018
   0.13421563  0.13421563  0.10737250       0.018
   0.13421563  0.13421563  0.13421563       0.006
 
 k-points in reciprocal lattice and weights: KPOINTS created by Atomic Simulation Env
   0.00000000  0.00000000  0.00000000       0.001
   0.09090909  0.00000000  0.00000000       0.005
   0.18181818  0.00000000  0.00000000       0.005
   0.27272727  0.00000000  0.00000000       0.005
   0.36363636  0.00000000  0.00000000       0.005
   0.45454545  0.00000000  0.00000000       0.005
   0.09090909  0.09090909  0.00000000       0.009
   0.18181818  0.09090909  0.00000000       0.018
   0.27272727  0.09090909  0.00000000       0.018
   0.36363636  0.09090909  0.00000000       0.018
   0.45454545  0.09090909  0.00000000       0.018
   0.18181818  0.18181818  0.00000000       0.009
   0.27272727  0.18181818  0.00000000       0.018
   0.36363636  0.18181818  0.00000000       0.018
   0.45454545  0.18181818  0.00000000       0.018
   0.27272727  0.27272727  0.00000000       0.009
   0.36363636  0.27272727  0.00000000       0.018
   0.45454545  0.27272727  0.00000000       0.018
   0.36363636  0.36363636  0.00000000       0.009
   0.45454545  0.36363636  0.00000000       0.018
   0.45454545  0.45454545  0.00000000       0.009
   0.09090909  0.09090909  0.09090909       0.006
   0.18181818  0.09090909  0.09090909       0.018
   0.27272727  0.09090909  0.09090909       0.018
   0.36363636  0.09090909  0.09090909       0.018
   0.45454545  0.09090909  0.09090909       0.018
   0.18181818  0.18181818  0.09090909       0.018
   0.27272727  0.18181818  0.09090909       0.036
   0.36363636  0.18181818  0.09090909       0.036
   0.45454545  0.18181818  0.09090909       0.036
   0.27272727  0.27272727  0.09090909       0.018
   0.36363636  0.27272727  0.09090909       0.036
   0.45454545  0.27272727  0.09090909       0.036
   0.36363636  0.36363636  0.09090909       0.018
   0.45454545  0.36363636  0.09090909       0.036
   0.45454545  0.45454545  0.09090909       0.018
   0.18181818  0.18181818  0.18181818       0.006
   0.27272727  0.18181818  0.18181818       0.018
   0.36363636  0.18181818  0.18181818       0.018
   0.45454545  0.18181818  0.18181818       0.018
   0.27272727  0.27272727  0.18181818       0.018
   0.36363636  0.27272727  0.18181818       0.036
   0.45454545  0.27272727  0.18181818       0.036
   0.36363636  0.36363636  0.18181818       0.018
   0.45454545  0.36363636  0.18181818       0.036
   0.45454545  0.45454545  0.18181818       0.018
   0.27272727  0.27272727  0.27272727       0.006
   0.36363636  0.27272727  0.27272727       0.018
   0.45454545  0.27272727  0.27272727       0.018
   0.36363636  0.36363636  0.27272727       0.018
   0.45454545  0.36363636  0.27272727       0.036
   0.45454545  0.45454545  0.27272727       0.018
   0.36363636  0.36363636  0.36363636       0.006
   0.45454545  0.36363636  0.36363636       0.018
   0.45454545  0.45454545  0.36363636       0.018
   0.45454545  0.45454545  0.45454545       0.006
 
 position of ions in fractional coordinates (direct lattice) 
   0.00000000  0.00000000  0.00000000
   0.50000000  0.50000000  0.00000000
   0.50000000  0.00000000  0.50000000
   0.00000000  0.50000000  0.50000000
 
 position of ions in cartesian coordinates  (Angst):
   0.00000000  0.00000000  0.00000000
   1.69334024  1.69334024  0.00000000
   1.69334024  0.00000000  1.69334024
   0.00000000  1.69334024  1.69334024
 


--------------------------------------------------------------------------------------------------------


 k-point   1 :   0.0000 0.0000 0.0000  plane waves:     461
 k-point   2 :   0.0909 0.0000 0.0000  plane waves:     461
 k-point   3 :   0.1818 0.0000 0.0000  plane waves:     457
 k-point   4 :   0.2727 0.0000 0.0000  plane waves:     446
 k-point   5 :   0.3636 0.0000 0.0000  plane waves:     458
 k-point   6 :   0.4545 0.0000 0.0000  plane waves:     466
 k-point   7 :   0.0909 0.0909 0.0000  plane waves:     455
 k-point   8 :   0.1818 0.0909 0.0000  plane waves:     459
 k-point   9 :   0.2727 0.0909 0.0000  plane waves:     452
 k-point  10 :   0.3636 0.0909 0.0000  plane waves:     456
 k-point  11 :   0.4545 0.0909 0.0000  plane waves:     467
 k-point  12 :   0.1818 0.1818 0.0000  plane waves:     455
 k-point  13 :   0.2727 0.1818 0.0000  plane waves:     455
 k-point  14 :   0.3636 0.1818 0.0000  plane waves:     453
 k-point  15 :   0.4545 0.1818 0.0000  plane waves:     456
 k-point  16 :   0.2727 0.2727 0.0000  plane waves:     461
 k-point  17 :   0.3636 0.2727 0.0000  plane waves:     455
 k-point  18 :   0.4545 0.2727 0.0000  plane waves:     458
 k-point  19 :   0.3636 0.3636 0.0000  plane waves:     459
 k-point  20 :   0.4545 0.3636 0.0000  plane waves:     463
 k-point  21 :   0.4545 0.4545 0.0000  plane waves:     462
 k-point  22 :   0.0909 0.0909 0.0909  plane waves:     461
 k-point  23 :   0.1818 0.0909 0.0909  plane waves:     457
 k-point  24 :   0.2727 0.0909 0.0909  plane waves:     457
 k-point  25 :   0.3636 0.0909 0.0909  plane waves:     457
 k-point  26 :   0.4545 0.0909 0.0909  plane waves:     461
 k-point  27 :   0.1818 0.1818 0.0909  plane waves:     452
 k-point  28 :   0.2727 0.1818 0.0909  plane waves:     455
 k-point  29 :   0.3636 0.1818 0.0909  plane waves:     455
 k-point  30 :   0.4545 0.1818 0.0909  plane waves:     457
 k-point  31 :   0.2727 0.2727 0.0909  plane waves:     459
 k-point  32 :   0.3636 0.2727 0.0909  plane waves:     464
 k-point  33 :   0.4545 0.2727 0.0909  plane waves:     460
 k-point  34 :   0.3636 0.3636 0.0909  plane waves:     464
 k-point  35 :   0.4545 0.3636 0.0909  plane waves:     455
 k-point  36 :   0.4545 0.4545 0.0909  plane waves:     460
 k-point  37 :   0.1818 0.1818 0.1818  plane waves:     458
 k-point  38 :   0.2727 0.1818 0.1818  plane waves:     455
 k-point  39 :   0.3636 0.1818 0.1818  plane waves:     458
 k-point  40 :   0.4545 0.1818 0.1818  plane waves:     461
 k-point  41 :   0.2727 0.2727 0.1818  plane waves:     459
 k-point  42 :   0.3636 0.2727 0.1818  plane waves:     459
 k-point  43 :   0.4545 0.2727 0.1818  plane waves:     460
 k-point  44 :   0.3636 0.3636 0.1818  plane waves:     458
 k-point  45 :   0.4545 0.3636 0.1818  plane waves:     459
 k-point  46 :   0.4545 0.4545 0.1818  plane waves:     457
 k-point  47 :   0.2727 0.2727 0.2727  plane waves:     453
 k-point  48 :   0.3636 0.2727 0.2727  plane waves:     460
 k-point  49 :   0.4545 0.2727 0.2727  plane waves:     455
 k-point  50 :   0.3636 0.3636 0.2727  plane waves:     460
 k-point  51 :   0.4545 0.3636 0.2727  plane waves:     460
 k-point  52 :   0.4545 0.4545 0.2727  plane waves:     463
 k-point  53 :   0.3636 0.3636 0.3636  plane waves:     465
 k-point  54 :   0.4545 0.3636 0.3636  plane waves:     457
 k-point  55 :   0.4545 0.4545 0.3636  plane waves:     460
 k-point  56 :   0.4545 0.4545 0.4545  plane waves:     456

 maximum number of plane-waves:       467
 maximum index in each direction: 
   IXMAX=    4   IYMAX=    4   IZMAX=    4
   IXMIN=   -5   IYMIN=   -5   IZMIN=   -5


 total amount of memory used by VASP MPI-rank0    54390. kBytes
=======================================================================

   base      :      30000. kBytes
   nonl-proj :       3795. kBytes
   grid      :       1216. kBytes
   one-center:         62. kBytes
   wavefun   :      19317. kBytes
 
     INWAV:  cpu time    0.0000: real time    0.0000
 Broyden mixing: mesh for mixing (old mesh)
   NGX =  9   NGY =  9   NGZ =  9
  (NGX  = 28   NGY  = 28   NGZ  = 28)
  gives a total of    729 points

 initial charge density was supplied:
 charge density of overlapping atoms calculated
 number of electron      32.0000000 magnetization 
 keeping initial charge density in first step


--------------------------------------------------------------------------------------------------------


 Maximum index for augmentation-charges         2469 (set IRDMAX)


--------------------------------------------------------------------------------------------------------


 First call to EWALD:  gamma=   0.523
 Maximum number of real-space cells 3x 3x 3
 Maximum number of reciprocal cells 3x 3x 3

    FEWALD:  cpu time    0.0008: real time    0.0008


--------------------------------------- Iteration      1(   1)  ---------------------------------------


    POTLOK:  cpu time    0.0051: real time    0.0051
    SETDIJ:  cpu time    0.0041: real time    0.0041
     EDDAV:  cpu time    0.6985: real time    0.7198
       DOS:  cpu time    0.0041: real time    0.0041
    --------------------------------------------
      LOOP:  cpu time    0.7118: real time    0.7331

 eigenvalue-minimisations  :  4928
 total energy-change (2. order) : 0.1626247E+03  (-0.8270519E+03)
 number of electron      32.0000000 magnetization 
 augmentation part       32.0000000 magnetization 

 Free energy of the ion-electron system (eV)
  ---------------------------------------------------
  alpha Z        PSCENC =       284.68325965
  Ewald energy   TEWEN  =     -2495.27317690
  -Hartree energ DENC   =      -399.30945136
  -exchange      EXHF   =         0.00000000
  -V(xc)+E(xc)   XCENC  =        17.59148042
  PAW double counting   =      2219.38341365    -2250.19294531
  entropy T*S    EENTRO =        -0.00468021
  eigenvalues    EBANDS =       408.59324844
  atomic energy  EATOM  =      2377.15350596
  Solvation  Ediel_sol  =         0.00000000
  ---------------------------------------------------
  free energy    TOTEN  =       162.62465436 eV

  energy without entropy =      162.62933457  energy(sigma->0) =      162.62621443


--------------------------------------------------------------------------------------------------------




--------------------------------------- Iteration      1(   2)  ---------------------------------------


     EDDAV:  cpu time    0.6777: real time    0.6777
       DOS:  cpu time    0.0048: real time    0.0048
    --------------------------------------------
      LOOP:  cpu time    0.6825: real time    0.6825

 eigenvalue-minimisations  :  4648
 total energy-change (2. order) :-0.1877597E+03  (-0.1650178E+03)
 number of electron      32.0000000 magnetization 
 augmentation part       32.0000000 magnetization 

 Free energy of the ion-electron system (eV)
  ---------------------------------------------------
  alpha Z        PSCENC =       284.68325965
  Ewald energy   TEWEN  =     -2495.27317690
  -Hartree energ DENC   =      -399.30945136
  -exchange      EXHF   =         0.00000000
  -V(xc)+E(xc)   XCENC  =        17.59148042
  PAW double counting   =      2219.38341365    -2250.19294531
  entropy T*S    EENTRO =        -0.00511909
  eigenvalues    EBANDS =       220.83394332
  atomic energy  EATOM  =      2377.15350596
  Solvation  Ediel_sol  =         0.00000000
  ---------------------------------------------------
  free energy    TOTEN  =       -25.13508965 eV

  energy without entropy =      -25.12997056  energy(sigma->0) =      -25.13338329


--------------------------------------------------------------------------------------------------------




--------------------------------------- Iteration      1(   3)  ---------------------------------------


     EDDAV:  cpu time    0.7437: real time    0.7437
       DOS:  cpu time    0.0051: real time    0.0051
    --------------------------------------------
      LOOP:  cpu time    0.7487: real time    0.7488

 eigenvalue-minimisations  :  5168
 total energy-change (2. order) :-0.1294144E+02  (-0.1175626E+02)
 number of electron      32.0000000 magnetization 
 augmentation part       32.0000000 magnetization 

 Free energy of the ion-electron system (eV)
  ---------------------------------------------------
  alpha Z        PSCENC =       284.68325965
  Ewald energy   TEWEN  =     -2495.27317690
  -Hartree energ DENC   =      -399.30945136
  -exchange      EXHF   =         0.00000000
  -V(xc)+E(xc)   XCENC  =        17.59148042
  PAW double counting   =      2219.38341365    -2250.19294531
  entropy T*S    EENTRO =         0.00660362
  eigenvalues    EBANDS =       207.88077928
  atomic energy  EATOM  =      2377.15350596
  Solvation  Ediel_sol  =         0.00000000
  ---------------------------------------------------
  free energy    TOTEN  =       -38.07653098 eV

  energy without entropy =      -38.08313460  energy(sigma->0) =      -38.07873218


--------------------------------------------------------------------------------------------------------




--------------------------------------- Iteration      1(   4)  ---------------------------------------


     EDDAV:  cpu time    0.6761: real time    0.6761
       DOS:  cpu time    0.0049: real time    0.0049
    --------------------------------------------
      LOOP:  cpu time    0.6810: real time    0.6810

 eigenvalue-minimisations  :  4888
 total energy-change (2. order) :-0.1664838E+00  (-0.1661416E+00)
 number of electron      32.0000000 magnetization 
 augmentation part       32.0000000 magnetization 

 Free energy of the ion-electron system (eV)
  ---------------------------------------------------
  alpha Z        PSCENC =       284.68325965
  Ewald energy   TEWEN  =     -2495.27317690
  -Hartree energ DENC   =      -399.30945136
  -exchange      EXHF   =         0.00000000
  -V(xc)+E(xc)   XCENC  =        17.59148042
  PAW double counting   =      2219.38341365    -2250.19294531
  entropy T*S    EENTRO =         0.00694728
  eigenvalues    EBANDS =       207.71395184
  atomic energy  EATOM  =      2377.15350596
  Solvation  Ediel_sol  =         0.00000000
  ---------------------------------------------------
  free energy    TOTEN  =       -38.24301476 eV

  energy without entropy =      -38.24996203  energy(sigma->0) =      -38.24533052


--------------------------------------------------------------------------------------------------------




--------------------------------------- Iteration      1(   5)  ---------------------------------------


     EDDAV:  cpu time    0.6887: real time    0.6888
       DOS:  cpu time    0.0050: real time    0.0050
    CHARGE:  cpu time    0.0323: real time    0.0323
    MIXING:  cpu time    0.0002: real time    0.0002
    --------------------------------------------
      LOOP:  cpu time    0.7263: real time    0.7264

 eigenvalue-minimisations  :  5056
 total energy-change (2. order) :-0.1410580E-02  (-0.1410555E-02)
 number of electron      32.0000413 magnetization 
 augmentation part       14.2356480 magnetization 

 Broyden mixing:
  rms(total) = 0.25154E+01    rms(broyden)= 0.25151E+01
  rms(prec ) = 0.47165E+01
  weight for this iteration     100.00

 Free energy of the ion-electron system (eV)
  ---------------------------------------------------
  alpha Z        PSCENC =       284.68325965
  Ewald energy   TEWEN  =     -2495.27317690
  -Hartree energ DENC   =      -399.30945136
  -exchange      EXHF   =         0.00000000
  -V(xc)+E(xc)   XCENC  =        17.59148042
  PAW double counting   =      2219.38341365    -2250.19294531
  entropy T*S    EENTRO =         0.00694784
  eigenvalues    EBANDS =       207.71254070
  atomic energy  EATOM  =      2377.15350596
  Solvation  Ediel_sol  =         0.00000000
  ---------------------------------------------------
  free energy    TOTEN  =       -38.24442534 eV

  energy without entropy =      -38.25137317  energy(sigma->0) =      -38.24674128


--------------------------------------------------------------------------------------------------------




--------------------------------------- Iteration      1(   6)  ---------------------------------------


    POTLOK:  cpu time    0.0050: real time    0.0050
    SETDIJ:  cpu time    0.0039: real time    0.0039
     EDDAV:  cpu time    0.7005: real time    0.7005
       DOS:  cpu time    0.0051: real time    0.0051
    CHARGE:  cpu time    0.0343: real time    0.0343
    MIXING:  cpu time    0.0003: real time    0.0003
    --------------------------------------------
      LOOP:  cpu time    0.7491: real time    0.7491

 eigenvalue-minimisations  :  5120
 total energy-change (2. order) : 0.5666581E+01  (-0.1084701E+01)
 number of electron      32.0000452 magnetization 
 augmentation part       16.8512894 magnetization 

 Broyden mixing:
  rms(total) = 0.27950E+00    rms(broyden)= 0.27868E+00
  rms(prec ) = 0.49738E+00
  weight for this iteration     100.00

 eigenvalues of (default mixing * dielectric matrix)
  average eigenvalue GAMMA=   0.9585
  0.9585

 Free energy of the ion-electron system (eV)
  ---------------------------------------------------
  alpha Z        PSCENC =       284.68325965
  Ewald energy   TEWEN  =     -2495.27317690
  -Hartree energ DENC   =      -333.36512233
  -exchange      EXHF   =         0.00000000
  -V(xc)+E(xc)   XCENC  =        14.35341636
  PAW double counting   =      2566.48349309    -2589.27792994
  entropy T*S    EENTRO =         0.00578405
  eigenvalues    EBANDS =       142.65892555
  atomic energy  EATOM  =      2377.15350596
  Solvation  Ediel_sol  =         0.00000000
  ---------------------------------------------------
  free energy    TOTEN  =       -32.57784451 eV

  energy without entropy =      -32.58362856  energy(sigma->0) =      -32.57977253


--------------------------------------------------------------------------------------------------------




--------------------------------------- Iteration      1(   7)  ---------------------------------------


    POTLOK:  cpu time    0.0048: real time    0.0048
    SETDIJ:  cpu time    0.0039: real time    0.0039
     EDDAV:  cpu time    0.7239: real time    0.7239
       DOS:  cpu time    0.0053: real time    0.0053
    CHARGE:  cpu time    0.0320: real time    0.0320
    MIXING:  cpu time    0.0003: real time    0.0003
    --------------------------------------------
      LOOP:  cpu time    0.7703: real time    0.7703

 eigenvalue-minimisations  :  5384
 total energy-change (2. order) : 0.2584109E+00  (-0.8894334E-01)
 number of electron      32.0000444 magnetization 
 augmentation part       16.3493393 magnetization 

 Broyden mixing:
  rms(total) = 0.16363E+00    rms(broyden)= 0.16361E+00
  rms(prec ) = 0.33086E+00
  weight for this iteration     100.00

 eigenvalues of (default mixing * dielectric matrix)
  average eigenvalue GAMMA=   1.0307
  1.2905  0.7709

 Free energy of the ion-electron system (eV)
  ---------------------------------------------------
  alpha Z        PSCENC =       284.68325965
  Ewald energy   TEWEN  =     -2495.27317690
  -Hartree energ DENC   =      -339.03969946
  -exchange      EXHF   =         0.00000000
  -V(xc)+E(xc)   XCENC  =        14.71116090
  PAW double counting   =      2755.29829654    -2785.03810532
  entropy T*S    EENTRO =         0.00831099
  eigenvalues    EBANDS =       155.17701407
  atomic energy  EATOM  =      2377.15350596
  Solvation  Ediel_sol  =         0.00000000
  ---------------------------------------------------
  free energy    TOTEN  =       -32.31943356 eV

  energy without entropy =      -32.32774456  energy(sigma->0) =      -32.32220390


--------------------------------------------------------------------------------------------------------




--------------------------------------- Iteration      1(   8)  ---------------------------------------


    POTLOK:  cpu time    0.0048: real time    0.0048
    SETDIJ:  cpu time    0.0039: real time    0.0039
     EDDAV:  cpu time    0.7974: real time    0.7975
       DOS:  cpu time    0.0051: real time    0.0051
    CHARGE:  cpu time    0.0323: real time    0.0323
    MIXING:  cpu time    0.0003: real time    0.0003
    --------------------------------------------
      LOOP:  cpu time    0.8439: real time    0.8439

 eigenvalue-minimisations  :  6016
 total energy-change (2. order) : 0.6094679E-01  (-0.1039000E-02)
 number of electron      32.0000445 magnetization 
 augmentation part       16.4066523 magnetization 

 Broyden mixing:
  rms(total) = 0.66083E-01    rms(broyden)= 0.66083E-01
  rms(prec ) = 0.13485E+00
  weight for this iteration     100.00

 eigenvalues of (default mixing * dielectric matrix)
  average eigenvalue GAMMA=   1.5110
  0.8112  1.0842  2.6375

 Free energy of the ion-electron system (eV)
  ---------------------------------------------------
  alpha Z        PSCENC =       284.68325965
  Ewald energy   TEWEN  =     -2495.27317690
  -Hartree energ DENC   =      -334.54892580
  -exchange      EXHF   =         0.00000000
  -V(xc)+E(xc)   XCENC  =        14.52937468
  PAW double counting   =      2901.49311463    -2934.38286301
  entropy T*S    EENTRO =         0.00807858
  eigenvalues    EBANDS =       154.07914543
  atomic energy  EATOM  =      2377.15350596
  Solvation  Ediel_sol  =         0.00000000
  ---------------------------------------------------
  free energy    TOTEN  =       -32.25848677 eV

  energy without entropy =      -32.26656535  energy(sigma->0) =      -32.26117963


--------------------------------------------------------------------------------------------------------




--------------------------------------- Iteration      1(   9)  ---------------------------------------


    POTLOK:  cpu time    0.0048: real time    0.0048
    SETDIJ:  cpu time    0.0040: real time    0.0040
     EDDAV:  cpu time    0.7274: real time    0.7275
       DOS:  cpu time    0.0051: real time    0.0051
    CHARGE:  cpu time    0.0340: real time    0.0340
    MIXING:  cpu time    0.0003: real time    0.0003
    --------------------------------------------
      LOOP:  cpu time    0.7756: real time    0.7757

 eigenvalue-minimisations  :  5376
 total energy-change (2. order) : 0.1943512E-01  (-0.5410649E-03)
 number of electron      32.0000446 magnetization 
 augmentation part       16.4294665 magnetization 

 Broyden mixing:
  rms(total) = 0.86277E-02    rms(broyden)= 0.86241E-02
  rms(prec ) = 0.12161E-01
  weight for this iteration     100.00

 eigenvalues of (default mixing * dielectric matrix)
  average eigenvalue GAMMA=   1.5182
  0.8088  1.0398  2.4502  1.7739

 Free energy of the ion-electron system (eV)
  ---------------------------------------------------
  alpha Z        PSCENC =       284.68325965
  Ewald energy   TEWEN  =     -2495.27317690
  -Hartree energ DENC   =      -330.55776836
  -exchange      EXHF   =         0.00000000
  -V(xc)+E(xc)   XCENC  =        14.38011472
  PAW double counting   =      3066.40262215    -3102.89338958
  entropy T*S    EENTRO =         0.00776842
  eigenvalues    EBANDS =       153.85801229
  atomic energy  EATOM  =      2377.15350596
  Solvation  Ediel_sol  =         0.00000000
  ---------------------------------------------------
  free energy    TOTEN  =       -32.23905166 eV

  energy without entropy =      -32.24682008  energy(sigma->0) =      -32.24164113


--------------------------------------------------------------------------------------------------------




--------------------------------------- Iteration      1(  10)  ---------------------------------------


    POTLOK:  cpu time    0.0049: real time    0.0049
    SETDIJ:  cpu time    0.0040: real time    0.0040
     EDDAV:  cpu time    0.6950: real time    0.6951
       DOS:  cpu time    0.0051: real time    0.0051
    CHARGE:  cpu time    0.0321: real time    0.0321
    MIXING:  cpu time    0.0003: real time    0.0003
    --------------------------------------------
      LOOP:  cpu time    0.7414: real time    0.7415

 eigenvalue-minimisations  :  5064
 total energy-change (2. order) : 0.6447976E-04  (-0.3814437E-04)
 number of electron      32.0000446 magnetization 
 augmentation part       16.4302601 magnetization 

 Broyden mixing:
  rms(total) = 0.29413E-02    rms(broyden)= 0.29411E-02
  rms(prec ) = 0.37008E-02
  weight for this iteration     100.00

 eigenvalues of (default mixing * dielectric matrix)
  average eigenvalue GAMMA=   1.6661
  0.8088  0.9611  1.1530  2.7037  2.7037

 Free energy of the ion-electron system (eV)
  ---------------------------------------------------
  alpha Z        PSCENC =       284.68325965
  Ewald energy   TEWEN  =     -2495.27317690
  -Hartree energ DENC   =      -330.86508798
  -exchange      EXHF   =         0.00000000
  -V(xc)+E(xc)   XCENC  =        14.39237557
  PAW double counting   =      3057.23413707    -3093.36107780
  entropy T*S    EENTRO =         0.00776937
  eigenvalues    EBANDS =       153.78930787
  atomic energy  EATOM  =      2377.15350596
  Solvation  Ediel_sol  =         0.00000000
  ---------------------------------------------------
  free energy    TOTEN  =       -32.23898718 eV

  energy without entropy =      -32.24675655  energy(sigma->0) =      -32.24157697


--------------------------------------------------------------------------------------------------------




--------------------------------------- Iteration      1(  11)  ---------------------------------------


    POTLOK:  cpu time    0.0048: real time    0.0048
    SETDIJ:  cpu time    0.0038: real time    0.0038
     EDDAV:  cpu time    0.7328: real time    0.7328
       DOS:  cpu time    0.0052: real time    0.0052
    CHARGE:  cpu time    0.0327: real time    0.0327
    MIXING:  cpu time    0.0003: real time    0.0003
    --------------------------------------------
      LOOP:  cpu time    0.7797: real time    0.7797

 eigenvalue-minimisations  :  5448
 total energy-change (2. order) :-0.3440254E-05  (-0.4008246E-06)
 number of electron      32.0000446 magnetization 
 augmentation part       16.4296974 magnetization 

 Broyden mixing:
  rms(total) = 0.20045E-02    rms(broyden)= 0.20043E-02
  rms(prec ) = 0.32797E-02
  weight for this iteration     100.00

 eigenvalues of (default mixing * dielectric matrix)
  average eigenvalue GAMMA=   1.5320
  2.6170  2.4448  1.3608  0.8083  0.9284  1.0329

 Free energy of the ion-electron system (eV)
  ---------------------------------------------------
  alpha Z        PSCENC =       284.68325965
  Ewald energy   TEWEN  =     -2495.27317690
  -Hartree energ DENC   =      -331.02162966
  -exchange      EXHF   =         0.00000000
  -V(xc)+E(xc)   XCENC  =        14.39934583
  PAW double counting   =      3057.02291887    -3093.00010010
  entropy T*S    EENTRO =         0.00776877
  eigenvalues    EBANDS =       153.78911696
  atomic energy  EATOM  =      2377.15350596
  Solvation  Ediel_sol  =         0.00000000
  ---------------------------------------------------
  free energy    TOTEN  =       -32.23899062 eV

  energy without entropy =      -32.24675939  energy(sigma->0) =      -32.24158021


--------------------------------------------------------------------------------------------------------




--------------------------------------- Iteration      1(  12)  ---------------------------------------


    POTLOK:  cpu time    0.0048: real time    0.0048
    SETDIJ:  cpu time    0.0039: real time    0.0039
     EDDAV:  cpu time    0.6727: real time    0.6727
       DOS:  cpu time    0.0050: real time    0.0050
    CHARGE:  cpu time    0.0322: real time    0.0322
    MIXING:  cpu time    0.0003: real time    0.0003
    --------------------------------------------
      LOOP:  cpu time    0.7189: real time    0.7189

 eigenvalue-minimisations  :  4872
 total energy-change (2. order) :-0.3322698E-05  (-0.2047959E-06)
 number of electron      32.0000446 magnetization 
 augmentation part       16.4298311 magnetization 

 Broyden mixing:
  rms(total) = 0.27770E-03    rms(broyden)= 0.27759E-03
  rms(prec ) = 0.29119E-03
  weight for this iteration     100.00

 eigenvalues of (default mixing * dielectric matrix)
  average eigenvalue GAMMA=   1.5951
  2.6857  2.2960  2.2960  0.8088  1.1047  0.9873  0.9873

 Free energy of the ion-electron system (eV)
  ---------------------------------------------------
  alpha Z        PSCENC =       284.68325965
  Ewald energy   TEWEN  =     -2495.27317690
  -Hartree energ DENC   =      -330.92621345
  -exchange      EXHF   =         0.00000000
  -V(xc)+E(xc)   XCENC  =        14.39568935
  PAW double counting   =      3060.83013398    -3096.90621994
  entropy T*S    EENTRO =         0.00776496
  eigenvalues    EBANDS =       153.79626244
  atomic energy  EATOM  =      2377.15350596
  Solvation  Ediel_sol  =         0.00000000
  ---------------------------------------------------
  free energy    TOTEN  =       -32.23899394 eV

  energy without entropy =      -32.24675890  energy(sigma->0) =      -32.24158226


--------------------------------------------------------------------------------------------------------




--------------------------------------- Iteration      1(  13)  ---------------------------------------


    POTLOK:  cpu time    0.0048: real time    0.0048
    SETDIJ:  cpu time    0.0040: real time    0.0040
     EDDAV:  cpu time    0.4745: real time    0.4745
       DOS:  cpu time    0.0050: real time    0.0050
    --------------------------------------------
      LOOP:  cpu time    0.4884: real time    0.4884

 eigenvalue-minimisations  :  2640
 total energy-change (2. order) :-0.5863581E-06  (-0.6295694E-08)
 number of electron      32.0000446 magnetization 
 augmentation part       16.4298311 magnetization 

 Free energy of the ion-electron system (eV)
  ---------------------------------------------------
  alpha Z        PSCENC =       284.68325965
  Ewald energy   TEWEN  =     -2495.27317690
  -Hartree energ DENC   =      -330.92377892
  -exchange      EXHF   =         0.00000000
  -V(xc)+E(xc)   XCENC  =        14.39555951
  PAW double counting   =      3061.01423693    -3097.09210195
  entropy T*S    EENTRO =         0.00776473
  eigenvalues    EBANDS =       153.79573645
  atomic energy  EATOM  =      2377.15350596
  Solvation  Ediel_sol  =         0.00000000
  ---------------------------------------------------
  free energy    TOTEN  =       -32.23899453 eV

  energy without entropy =      -32.24675926  energy(sigma->0) =      -32.24158277


--------------------------------------------------------------------------------------------------------




 average (electrostatic) potential at core
  the test charge radii are     1.0103
  (the norm of the test charge is              1.0000)
       1 -42.1233       2 -42.1233       3 -42.1233       4 -42.1233
 
 
 
 E-fermi :   7.3992     XC(G=0): -14.0800     alpha+bet :-15.9618

 Fermi energy:         7.3991797361

 k-point     1 :       0.0000    0.0000    0.0000
  band No.  band energies     occupation 
      1      -1.7295      2.00000
      2       2.0966      2.00000
      3       2.0966      2.00000
      4       2.0966      2.00000
      5       2.8838      2.00000
      6       2.8838      2.00000
      7       2.8838      2.00000
      8       5.6495      2.00000
      9       5.6495      2.00000
     10       5.6495      2.00000
     11       7.3335      1.52400
     12       7.3335      1.52400
     13       8.4542     -0.00000
     14       8.4542     -0.00000
     15       8.4542     -0.00000
     16       8.7806     -0.00000
     17       8.7806     -0.00000
     18       8.7806     -0.00000
     19       8.7806     -0.00000
     20       8.7806     -0.00000
     21       8.7806     -0.00000
     22      10.8246     -0.00000
     23      10.8246     -0.00000
     24      10.8246     -0.00000
     25      19.7592      0.00000
     26      19.7592      0.00000
     27      19.7592      0.00000
     28      24.2601      0.00000
     29      24.2601      0.00000
     30      24.2601      0.00000
     31      24.2601      0.00000
     32      24.2601      0.00000
     33      24.2601      0.00000
     34      29.8917      0.00000
     35      29.8917      0.00000
     36      29.8917      0.00000
     37      31.1774      0.00000
     38      35.2229      0.00000
     39      35.2229      0.00000
     40      35.2229      0.00000

 k-point     2 :       0.0909    0.0000    0.0000
  band No.  band energies     occupation 
      1      -1.6065      2.00000
      2       2.1308      2.00000
      3       2.1742      2.00000
      4       2.1742      2.00000
      5       2.9325      2.00000
      6       2.9420      2.00000
      7       2.9420      2.00000
      8       5.5845      2.00000
      9       5.6961      2.00000
     10       5.6961      2.00000
     11       7.2729      1.86724
     12       7.3552      1.36260
     13       8.2802     -0.00000
     14       8.2802     -0.00000
     15       8.3748     -0.00000
     16       8.3748     -0.00000
     17       8.4303     -0.00000
     18       8.6898     -0.00000
     19       8.6898     -0.00000
     20       8.7807     -0.00000
     21       8.7807     -0.00000
     22      10.3354     -0.00000
     23      11.4061     -0.00000
     24      11.4061     -0.00000
     25      19.7518      0.00000
     26      19.7518      0.00000
     27      20.3877      0.00000
     28      23.7296      0.00000
     29      23.7296      0.00000
     30      23.9929      0.00000
     31      23.9929      0.00000
     32      24.4677      0.00000
     33      24.4677      0.00000
     34      29.9012      0.00000
     35      30.5216      0.00000
     36      30.5216      0.00000
     37      31.1117      0.00000
     38      35.2710      0.00000
     39      35.7855      0.00000
     40      35.7855      0.00000

 k-point     3 :       0.1818    0.0000    0.0000
  band No.  band energies     occupation 
      1      -1.2442      2.00000
      2       2.2111      2.00000
      3       2.3945      2.00000
      4       2.3945      2.00000
      5       3.0762      2.00000
      6       3.1163      2.00000
      7       3.1163      2.00000
      8       5.3971      2.00000
      9       5.8346      2.00000
     10       5.8346      2.00000
     11       7.0997      2.05552
     12       7.3954      1.03158
     13       7.3954      1.03158
     14       7.4187      0.83582
     15       8.1478     -0.00000
     16       8.1478     -0.00000
     17       8.3612     -0.00000
     18       8.4355     -0.00000
     19       8.4355     -0.00000
     20       8.7814     -0.00000
     21       8.7814     -0.00000
     22       9.2024     -0.00000
     23      12.5340     -0.00000
     24      12.5340     -0.00000
     25      19.7320      0.00000
     26      19.7320      0.00000
     27      21.9446      0.00000
     28      22.5354      0.00000
     29      22.5354      0.00000
     30      23.3658      0.00000
     31      23.3658      0.00000
     32      25.0701      0.00000
     33      25.0701      0.00000
     34      29.9305      0.00000
     35      30.9430      0.00000
     36      32.0333      0.00000
     37      32.0333      0.00000
     38      34.7516      0.00000
     39      35.1463      0.00000
     40      35.1465      0.00000

 k-point     4 :       0.2727    0.0000    0.0000
  band No.  band energies     occupation 
      1      -0.6647      2.00000
      2       2.2610      2.00000
      3       2.7170      2.00000
      4       2.7170      2.00000
      5       3.3071      2.00000
      6       3.4062      2.00000
      7       3.4062      2.00000
      8       5.1096      2.00000
      9       6.0613      2.00000
     10       6.0613      2.00000
     11       6.5043      2.00000
     12       6.5043      2.00000
     13       6.8433      2.00061
     14       7.5195      0.15839
     15       7.8129     -0.01272
     16       7.8129     -0.01272
     17       7.9439     -0.00081
     18       8.0632     -0.00003
     19       8.0632     -0.00003
     20       8.2530     -0.00000
     21       8.7818     -0.00000
     22       8.7818     -0.00000
     23      13.8278      0.00000
     24      13.8278      0.00000
     25      19.7048      0.00000
     26      19.7048      0.00000
     27      21.1102      0.00000
     28      21.1102      0.00000
     29      22.6839      0.00000
     30      22.6839      0.00000
     31      23.9314      0.00000
     32      26.0156      0.00000
     33      26.0156      0.00000
     34      29.9955      0.00000
     35      30.7294      0.00000
     36      33.1381      0.00000
     37      33.5592      0.00000
     38      33.5592      0.00000
     39      33.9763      0.00000
     40      33.9763      0.00000

 k-point     5 :       0.3636    0.0000    0.0000
  band No.  band energies     occupation 
      1       0.0862      2.00000
      2       2.1316      2.00000
      3       3.0614      2.00000
      4       3.0614      2.00000
      5       3.6119      2.00000
      6       3.8107      2.00000
      7       3.8107      2.00000
      8       4.7528      2.00000
      9       5.6824      2.00000
     10       5.6824      2.00000
     11       6.3691      2.00000
     12       6.3691      2.00000
     13       6.5614      2.00000
     14       6.9341      2.00488
     15       7.4519      0.57054
     16       7.4519      0.57054
     17       7.6267     -0.06830
     18       7.6267     -0.06830
     19       7.6499     -0.07067
     20       8.1157     -0.00000
     21       8.7823     -0.00000
     22       8.7823     -0.00000
     23      15.2062      0.00000
     24      15.2062      0.00000
     25      19.6165      0.00000
     26      19.6165      0.00000
     27      19.6751      0.00000
     28      19.6751      0.00000
     29      22.1529      0.00000
     30      22.1529      0.00000
     31      26.0380      0.00000
     32      27.2383      0.00000
     33      27.2383      0.00000
     34      30.0718      0.00000
     35      30.5084      0.00000
     36      31.5496      0.00000
     37      31.8921      0.00000
     38      31.8921      0.00000
     39      36.1965      0.00000
     40      36.1966      0.00000

 k-point     6 :       0.4545    0.0000    0.0000
  band No.  band energies     occupation 
      1       0.9191      2.00000
      2       1.6696      2.00000
      3       3.2985      2.00000
      4       3.2985      2.00000
      5       3.9719      2.00000
      6       4.3276      2.00000
      7       4.3276      2.00000
      8       4.3623      2.00000
      9       4.9534      2.00000
     10       4.9534      2.00000
     11       6.3577      2.00000
     12       6.4122      2.00000
     13       6.7462      2.00004
     14       6.7462      2.00004
     15       7.1743      2.06737
     16       7.1743      2.06737
     17       7.2032      2.04582
     18       7.2032      2.04582
     19       7.8007     -0.01559
     20       7.9601     -0.00053
     21       8.7827     -0.00000
     22       8.7827     -0.00000
     23      16.6436      0.00000
     24      16.6436      0.00000
     25      18.1210      0.00000
     26      18.1210      0.00000
     27      19.6600      0.00000
     28      19.6600      0.00000
     29      21.8719      0.00000
     30      21.8719      0.00000
     31      28.0549      0.00000
     32      28.6613      0.00000
     33      28.6613      0.00000
     34      29.8844      0.00000
     35      30.1765      0.00000
     36      30.2345      0.00000
     37      30.2345      0.00000
     38      30.3231      0.00000
     39      37.6164      0.00000
     40      38.6769      0.00000

 k-point     7 :       0.0909    0.0909    0.0000
  band No.  band energies     occupation 
      1      -1.4848      2.00000
      2       2.2095      2.00000
      3       2.2095      2.00000
      4       2.2495      2.00000
      5       2.9895      2.00000
      6       2.9895      2.00000
      7       2.9985      2.00000
      8       5.5467      2.00000
      9       5.7175      2.00000
     10       5.7369      2.00000
     11       7.2553      1.93278
     12       7.3401      1.47669
     13       7.9697     -0.00042
     14       8.1212     -0.00000
     15       8.1212     -0.00000
     16       8.3001     -0.00000
     17       8.3879     -0.00000
     18       8.3879     -0.00000
     19       8.6899     -0.00000
     20       8.6899     -0.00000
     21       8.7243     -0.00000
     22      10.9373     -0.00000
     23      10.9373     -0.00000
     24      11.8550     -0.00000
     25      19.7281      0.00000
     26      20.3919      0.00000
     27      20.3919      0.00000
     28      22.6077      0.00000
     29      23.9230      0.00000
     30      23.9230      0.00000
     31      24.1946      0.00000
     32      24.1946      0.00000
     33      24.6678      0.00000
     34      30.5549      0.00000
     35      30.5549      0.00000
     36      30.7428      0.00000
     37      30.9849      0.00000
     38      34.8136      0.00000
     39      35.8360      0.00000
     40      35.8360      0.00000

 k-point     8 :       0.1818    0.0909    0.0000
  band No.  band energies     occupation 
      1      -1.1262      2.00000
      2       2.2931      2.00000
      3       2.4333      2.00000
      4       2.4640      2.00000
      5       3.1297      2.00000
      6       3.1603      2.00000
      7       3.1670      2.00000
      8       5.3787      2.00000
      9       5.8424      2.00000
     10       5.8562      2.00000
     11       7.1068      2.05861
     12       7.2438      1.96779
     13       7.2459      1.96193
     14       7.3992      0.99987
     15       7.7421     -0.03582
     16       8.0856     -0.00001
     17       8.1546     -0.00000
     18       8.3255     -0.00000
     19       8.4350     -0.00000
     20       8.6895     -0.00000
     21       8.6932     -0.00000
     22       9.9098     -0.00000
     23      12.0255     -0.00000
     24      12.8565     -0.00000
     25      19.6087      0.00000
     26      20.4044      0.00000
     27      21.3468      0.00000
     28      21.9536      0.00000
     29      22.7084      0.00000
     30      23.5595      0.00000
     31      24.4771      0.00000
     32      24.6388      0.00000
     33      24.7893      0.00000
     34      30.6346      0.00000
     35      30.6406      0.00000
     36      31.6786      0.00000
     37      32.0731      0.00000
     38      33.1932      0.00000
     39      35.3596      0.00000
     40      36.0107      0.00000

 k-point     9 :       0.2727    0.0909    0.0000
  band No.  band energies     occupation 
      1      -0.5527      2.00000
      2       2.3477      2.00000
      3       2.7621      2.00000
      4       2.7807      2.00000
      5       3.3548      2.00000
      6       3.4433      2.00000
      7       3.4441      2.00000
      8       5.1038      2.00000
      9       6.0379      2.00000
     10       6.0649      2.00000
     11       6.3733      2.00000
     12       6.4302      2.00000
     13       6.8806      2.00151
     14       7.1598      2.07066
     15       7.5155      0.17689
     16       7.7675     -0.02575
     17       7.8241     -0.01048
     18       8.0620     -0.00003
     19       8.1595     -0.00000
     20       8.6859     -0.00000
     21       8.6890     -0.00000
     22       8.9177     -0.00000
     23      13.2261      0.00000
     24      14.0832      0.00000
     25      19.1244      0.00000
     26      20.4231      0.00000
     27      20.5071      0.00000
     28      21.2784      0.00000
     29      22.8913      0.00000
     30      23.8833      0.00000
     31      24.0203      0.00000
     32      25.3285      0.00000
     33      25.7739      0.00000
     34      30.1344      0.00000
     35      30.7849      0.00000
     36      31.6298      0.00000
     37      33.3782      0.00000
     38      34.0375      0.00000
     39      34.2086      0.00000
     40      35.0712      0.00000

 k-point    10 :       0.3636    0.0909    0.0000
  band No.  band energies     occupation 
      1       0.1906      2.00000
      2       2.2222      2.00000
      3       3.1163      2.00000
      4       3.1262      2.00000
      5       3.6518      2.00000
      6       3.8186      2.00000
      7       3.8393      2.00000
      8       4.7596      2.00000
      9       5.5762      2.00000
     10       5.6518      2.00000
     11       6.1939      2.00000
     12       6.3709      2.00000
     13       6.5263      2.00000
     14       6.7271      2.00002
     15       7.4240      0.79153
     16       7.4646      0.47791
     17       7.6257     -0.06795
     18       7.6698     -0.06669
     19       7.8010     -0.01553
     20       8.3340     -0.00000
     21       8.6845     -0.00000
     22       8.6880     -0.00000
     23      14.4632      0.00000
     24      15.4228      0.00000
     25      18.1057      0.00000
     26      19.7859      0.00000
     27      20.2856      0.00000
     28      20.4231      0.00000
     29      22.4382      0.00000
     30      23.2657      0.00000
     31      25.7382      0.00000
     32      26.3868      0.00000
     33      27.2328      0.00000
     34      29.4703      0.00000
     35      30.1496      0.00000
     36      31.0388      0.00000
     37      33.0479      0.00000
     38      33.1895      0.00000
     39      35.5114      0.00000
     40      36.2669      0.00000

 k-point    11 :       0.4545    0.0909    0.0000
  band No.  band energies     occupation 
      1       1.0160      2.00000
      2       1.7620      2.00000
      3       3.3649      2.00000
      4       3.3692      2.00000
      5       4.0020      2.00000
      6       4.2921      2.00000
      7       4.3430      2.00000
      8       4.3811      2.00000
      9       4.8778      2.00000
     10       4.9502      2.00000
     11       6.1454      2.00000
     12       6.1647      2.00000
     13       6.7466      2.00004
     14       6.9147      2.00325
     15       7.1737      2.06758
     16       7.1929      2.05620
     17       7.2085      2.03924
     18       7.3213      1.60663
     19       7.8518     -0.00625
     20       8.0592     -0.00003
     21       8.6853     -0.00000
     22       8.6867     -0.00000
     23      15.7033      0.00000
     24      16.8360      0.00000
     25      16.9247      0.00000
     26      18.2966      0.00000
     27      20.3018      0.00000
     28      20.3742      0.00000
     29      22.3526      0.00000
     30      22.6581      0.00000
     31      27.2929      0.00000
     32      27.5202      0.00000
     33      28.5922      0.00000
     34      28.7210      0.00000
     35      29.1489      0.00000
     36      31.1929      0.00000
     37      31.4419      0.00000
     38      32.0933      0.00000
     39      37.9262      0.00000
     40      38.1333      0.00000

 k-point    12 :       0.1818    0.1818    0.0000
  band No.  band energies     occupation 
      1      -0.7786      2.00000
      2       2.5272      2.00000
      3       2.5272      2.00000
      4       2.6627      2.00000
      5       3.2898      2.00000
      6       3.2898      2.00000
      7       3.3167      2.00000
      8       5.2792      2.00000
      9       5.9154      2.00000
     10       5.9176      2.00000
     11       6.8099      2.00025
     12       6.8657      2.00106
     13       6.8657      2.00106
     14       7.0528      2.03437
     15       7.4243      0.78893
     16       7.9049     -0.00204
     17       8.1179     -0.00000
     18       8.1179     -0.00000
     19       8.4333     -0.00000
     20       8.4333     -0.00000
     21       8.5579     -0.00000
     22      10.9345     -0.00000
     23      10.9345     -0.00000
     24      13.6742      0.00000
     25      18.8988      0.00000
     26      20.5142      0.00000
     27      21.9575      0.00000
     28      21.9575      0.00000
     29      23.2102      0.00000
     30      23.2102      0.00000
     31      24.1715      0.00000
     32      24.1715      0.00000
     33      25.8222      0.00000
     34      29.9218      0.00000
     35      31.4063      0.00000
     36      31.5461      0.00000
     37      32.2223      0.00000
     38      32.2223      0.00000
     39      35.6215      0.00000
     40      37.4973      0.00000

 k-point    13 :       0.2727    0.1818    0.0000
  band No.  band energies     occupation 
      1      -0.2232      2.00000
      2       2.5967      2.00000
      3       2.8750      2.00000
      4       2.9616      2.00000
      5       3.4972      2.00000
      6       3.5537      2.00000
      7       3.5550      2.00000
      8       5.0651      2.00000
      9       5.9950      2.00000
     10       6.0450      2.00000
     11       6.1020      2.00000
     12       6.2044      2.00000
     13       6.3698      2.00000
     14       6.9005      2.00238
     15       7.5743     -0.01386
     16       7.6311     -0.06948
     17       7.8068     -0.01410
     18       7.9726     -0.00039
     19       8.0594     -0.00003
     20       8.4307     -0.00000
     21       8.4788     -0.00000
     22       9.8328     -0.00000
     23      11.9958     -0.00000
     24      14.7700      0.00000
     25      17.6465      0.00000
     26      20.3992      0.00000
     27      21.7595      0.00000
     28      21.8555      0.00000
     29      23.6213      0.00000
     30      23.6644      0.00000
     31      23.9736      0.00000
     32      25.3873      0.00000
     33      25.9870      0.00000
     34      29.0277      0.00000
     35      30.0215      0.00000
     36      32.2503      0.00000
     37      32.4758      0.00000
     38      34.2229      0.00000
     39      35.4089      0.00000
     40      36.6557      0.00000

 k-point    14 :       0.3636    0.1818    0.0000
  band No.  band energies     occupation 
      1       0.4964      2.00000
      2       2.4827      2.00000
      3       3.2598      2.00000
      4       3.3083      2.00000
      5       3.7698      2.00000
      6       3.8482      2.00000
      7       3.9224      2.00000
      8       4.7691      2.00000
      9       5.3107      2.00000
     10       5.5552      2.00000
     11       5.9321      2.00000
     12       5.9955      2.00000
     13       6.3892      2.00000
     14       6.8268      2.00040
     15       7.3339      1.52144
     16       7.4588      0.51955
     17       7.6239     -0.06732
     18       7.6935     -0.05779
     19       7.8039     -0.01480
     20       8.4281     -0.00000
     21       8.4436     -0.00000
     22       8.9987     -0.00000
     23      13.0629      0.00000
     24      16.0235      0.00000
     25      16.3921      0.00000
     26      20.2709      0.00000
     27      20.5127      0.00000
     28      21.5239      0.00000
     29      23.6110      0.00000
     30      24.9178      0.00000
     31      24.9452      0.00000
     32      25.3841      0.00000
     33      27.3489      0.00000
     34      28.0518      0.00000
     35      28.6279      0.00000
     36      32.8575      0.00000
     37      34.1312      0.00000
     38      34.3973      0.00000
     39      34.7783      0.00000
     40      36.4832      0.00000

 k-point    15 :       0.4545    0.1818    0.0000
  band No.  band energies     occupation 
      1       1.2973      2.00000
      2       2.0281      2.00000
      3       3.5489      2.00000
      4       3.5726      2.00000
      5       4.0894      2.00000
      6       4.1967      2.00000
      7       4.3864      2.00000
      8       4.4322      2.00000
      9       4.6832      2.00000
     10       4.9370      2.00000
     11       5.7622      2.00000
     12       5.8557      2.00000
     13       6.7545      2.00005
     14       6.9916      2.01411
     15       7.1450      2.07030
     16       7.1756      2.06686
     17       7.1931      2.05600
     18       7.3245      1.58608
     19       8.0922     -0.00001
     20       8.4269     -0.00000
     21       8.4301     -0.00000
     22       8.4598     -0.00000
     23      14.1329      0.00000
     24      15.2296      0.00000
     25      17.3788      0.00000
     26      18.8011      0.00000
     27      20.7510      0.00000
     28      21.1024      0.00000
     29      23.9833      0.00000
     30      24.6222      0.00000
     31      25.9596      0.00000
     32      26.1298      0.00000
     33      27.0185      0.00000
     34      27.3449      0.00000
     35      29.6622      0.00000
     36      32.0467      0.00000
     37      33.3794      0.00000
     38      34.0427      0.00000
     39      36.4709      0.00000
     40      38.9419      0.00000

 k-point    16 :       0.2727    0.2727    0.0000
  band No.  band energies     occupation 
      1       0.3017      2.00000
      2       2.9722      2.00000
      3       2.9722      2.00000
      4       3.2332      2.00000
      5       3.7271      2.00000
      6       3.7316      2.00000
      7       3.7316      2.00000
      8       4.9515      2.00000
      9       5.6522      2.00000
     10       5.6522      2.00000
     11       5.8387      2.00000
     12       5.9511      2.00000
     13       6.2255      2.00000
     14       6.8077      2.00024
[...]
     34      30.3629      0.00000
     35      30.8274      0.00000
     36      32.1162      0.00000
     37      33.4790      0.00000
     38      33.4790      0.00000
     39      34.3690      0.00000
     40      37.3134      0.00000

 k-point    51 :       0.4545    0.3636    0.2727
  band No.  band energies     occupation 
      1       2.1806      2.00000
      2       2.5371      2.00000
      3       2.9100      2.00000
      4       2.9711      2.00000
      5       4.7869      2.00000
      6       4.8442      2.00000
      7       5.1556      2.00000
      8       5.4835      2.00000
      9       5.6545      2.00000
     10       5.6605      2.00000
     11       5.7850      2.00000
     12       5.8544      2.00000
     13       5.8546      2.00000
     14       5.9947      2.00000
     15       6.1078      2.00000
     16       6.1111      2.00000
     17       7.9848     -0.00028
     18       8.2981     -0.00000
     19       8.3493     -0.00000
     20       8.3515     -0.00000
     21       8.6126     -0.00000
     22       9.3262     -0.00000
     23      10.9049     -0.00000
     24      11.3530     -0.00000
     25      16.4124      0.00000
     26      16.8840      0.00000
     27      18.5891      0.00000
     28      19.6069      0.00000
     29      26.7514      0.00000
     30      27.2776      0.00000
     31      28.7465      0.00000
     32      29.6278      0.00000
     33      29.9980      0.00000
     34      30.5228      0.00000
     35      31.6383      0.00000
     36      33.2461      0.00000
     37      33.6072      0.00000
     38      34.4322      0.00000
     39      34.5630      0.00000
     40      36.0838      0.00000

 k-point    52 :       0.4545    0.4545    0.2727
  band No.  band energies     occupation 
      1       2.3838      2.00000
      2       2.6254      2.00000
      3       2.6254      2.00000
      4       2.7674      2.00000
      5       5.0568      2.00000
      6       5.2000      2.00000
      7       5.2000      2.00000
      8       5.4547      2.00000
      9       5.8045      2.00000
     10       5.8678      2.00000
     11       5.8678      2.00000
     12       5.8921      2.00000
     13       5.9398      2.00000
     14       5.9692      2.00000
     15       5.9692      2.00000
     16       6.0137      2.00000
     17       7.9906     -0.00024
     18       8.1838     -0.00000
     19       8.1838     -0.00000
     20       8.2321     -0.00000
     21       9.1466     -0.00000
     22       9.8804     -0.00000
     23       9.8804     -0.00000
     24      10.5568     -0.00000
     25      16.8494      0.00000
     26      17.5971      0.00000
     27      17.5971      0.00000
     28      18.5118      0.00000
     29      27.4220      0.00000
     30      28.1255      0.00000
     31      28.1255      0.00000
     32      28.8970      0.00000
     33      32.0439      0.00000
     34      32.0439      0.00000
     35      32.5156      0.00000
     36      33.0571      0.00000
     37      33.2754      0.00000
     38      34.6535      0.00000
     39      34.6535      0.00000
     40      35.4902      0.00000

 k-point    53 :       0.3636    0.3636    0.3636
  band No.  band energies     occupation 
      1       1.9887      2.00000
      2       2.7378      2.00000
      3       2.7378      2.00000
      4       2.7378      2.00000
      5       4.9736      2.00000
      6       4.9736      2.00000
      7       4.9736      2.00000
      8       5.7133      2.00000
      9       5.7133      2.00000
     10       5.9218      2.00000
     11       5.9805      2.00000
     12       5.9805      2.00000
     13       5.9805      2.00000
     14       5.9843      2.00000
     15       5.9843      2.00000
     16       5.9843      2.00000
     17       8.0795     -0.00002
     18       8.0795     -0.00002
     19       8.5124     -0.00000
     20       8.5124     -0.00000
     21       8.5124     -0.00000
     22      10.4020     -0.00000
     23      10.4020     -0.00000
     24      10.4020     -0.00000
     25      16.8209      0.00000
     26      16.8209      0.00000
     27      16.8209      0.00000
     28      19.4952      0.00000
     29      28.0273      0.00000
     30      28.0273      0.00000
     31      28.0273      0.00000
     32      30.4101      0.00000
     33      31.6801      0.00000
     34      31.6801      0.00000
     35      31.6801      0.00000
     36      32.7101      0.00000
     37      32.7101      0.00000
     38      32.7101      0.00000
     39      35.6167      0.00000
     40      35.6167      0.00000

 k-point    54 :       0.4545    0.3636    0.3636
  band No.  band energies     occupation 
      1       2.1914      2.00000
      2       2.4411      2.00000
      3       2.6599      2.00000
      4       2.6599      2.00000
      5       5.1033      2.00000
      6       5.1033      2.00000
      7       5.3245      2.00000
      8       5.5802      2.00000
      9       5.7089      2.00000
     10       5.8017      2.00000
     11       5.8664      2.00000
     12       5.8664      2.00000
     13       6.1743      2.00000
     14       6.2164      2.00000
     15       6.2557      2.00000
     16       6.2557      2.00000
     17       8.3285     -0.00000
     18       8.3649     -0.00000
     19       8.4503     -0.00000
     20       8.4503     -0.00000
     21       8.4774     -0.00000
     22       9.2119     -0.00000
     23      10.3882     -0.00000
     24      10.3882     -0.00000
     25      16.3652      0.00000
     26      16.3652      0.00000
     27      17.5130      0.00000
     28      18.4108      0.00000
     29      28.3165      0.00000
     30      28.3165      0.00000
     31      29.2727      0.00000
     32      29.9764      0.00000
     33      31.5941      0.00000
     34      31.5941      0.00000
     35      32.7736      0.00000
     36      33.8913      0.00000
     37      33.8913      0.00000
     38      34.0840      0.00000
     39      34.0930      0.00000
     40      35.9366      0.00000

 k-point    55 :       0.4545    0.4545    0.3636
  band No.  band energies     occupation 
      1       2.2678      2.00000
      2       2.4230      2.00000
      3       2.4230      2.00000
      4       2.4952      2.00000
      5       5.3009      2.00000
      6       5.3770      2.00000
      7       5.3770      2.00000
      8       5.5517      2.00000
      9       5.6381      2.00000
     10       5.7040      2.00000
     11       5.7040      2.00000
     12       5.7251      2.00000
     13       6.5935      2.00000
     14       6.5935      2.00000
     15       6.6016      2.00000
     16       6.6594      2.00000
     17       8.2625     -0.00000
     18       8.4087     -0.00000
     19       8.4087     -0.00000
     20       8.4164     -0.00000
     21       8.7343     -0.00000
     22       9.4047     -0.00000
     23       9.4047     -0.00000
     24       9.8253     -0.00000
     25      16.3536      0.00000
     26      16.7579      0.00000
     27      16.7579      0.00000
     28      17.4566      0.00000
     29      28.8713      0.00000
     30      29.2071      0.00000
     31      29.2071      0.00000
     32      29.7140      0.00000
     33      33.1201      0.00000
     34      33.1201      0.00000
     35      33.2076      0.00000
     36      33.7393      0.00000
     37      34.1645      0.00000
     38      34.6145      0.00000
     39      34.6145      0.00000
     40      35.8160      0.00000

 k-point    56 :       0.4545    0.4545    0.4545
  band No.  band energies     occupation 
      1       2.2417      2.00000
      2       2.3171      2.00000
      3       2.3171      2.00000
      4       2.3171      2.00000
      5       5.4828      2.00000
      6       5.4828      2.00000
      7       5.4828      2.00000
      8       5.5675      2.00000
      9       5.5675      2.00000
     10       5.5974      2.00000
     11       5.5974      2.00000
     12       5.5974      2.00000
     13       7.1649      2.06997
     14       7.1649      2.06997
     15       7.1649      2.06997
     16       7.3268      1.57001
     17       8.4346     -0.00000
     18       8.4346     -0.00000
     19       8.4875     -0.00000
     20       8.4875     -0.00000
     21       8.4875     -0.00000
     22       8.9583     -0.00000
     23       8.9583     -0.00000
     24       8.9583     -0.00000
     25      16.3406      0.00000
     26      16.3406      0.00000
     27      16.3406      0.00000
     28      16.7257      0.00000
     29      29.5572      0.00000
     30      29.5572      0.00000
     31      29.5572      0.00000
     32      29.7992      0.00000
     33      34.5872      0.00000
     34      34.5872      0.00000
     35      34.5872      0.00000
     36      34.6762      0.00000
     37      34.6762      0.00000
     38      34.6762      0.00000
     39      35.4745      0.00000
     40      35.4745      0.00000


--------------------------------------------------------------------------------------------------------


 soft charge-density along one line, spin component           1
         0         1         2         3         4         5         6         7         8         9
x    15.5702    0.0000    0.0000   -0.0000   -0.3378    0.0000    0.0000    0.0000   -0.1230    0.0000
x     0.0000    0.0000    0.0320    0.0000    0.0000    0.0000
y    15.5702    0.0000    0.0000   -0.0000   -0.3378    0.0000    0.0000    0.0000   -0.1230    0.0000
y     0.0000    0.0000    0.0320    0.0000    0.0000    0.0000
z    15.5702    0.0000    0.0000   -0.0000   -0.3378    0.0000    0.0000    0.0000   -0.1230    0.0000
z     0.0000    0.0000    0.0320    0.0000    0.0000    0.0000
 total charge-density along one line
x    32.0000    0.0000   -0.0000    0.0000    8.8253    0.0000   -0.0000    0.0000    0.9296   -0.0000
x     0.0000    0.0000   -0.0085    0.0000    0.0000    0.0000    0.0070    0.0000   -0.0000   -0.0000
x    -0.0002    0.0000    0.0000    0.0000   -0.0009    0.0000    0.0000   -0.0000    0.0011    0.0000
y    32.0000    0.0000    0.0000    0.0000    8.8253    0.0000   -0.0000    0.0000    0.9296   -0.0000
y     0.0000    0.0000   -0.0085   -0.0000    0.0000    0.0000    0.0070    0.0000   -0.0000    0.0000
y    -0.0002   -0.0000    0.0000    0.0000   -0.0009   -0.0000    0.0000    0.0000    0.0011    0.0000
z    32.0000    0.0000    0.0000    0.0000    8.8253    0.0000    0.0000    0.0000    0.9296    0.0000
z     0.0000    0.0000   -0.0085    0.0000    0.0000    0.0000    0.0070    0.0000    0.0000   -0.0000
z    -0.0002   -0.0000    0.0000   -0.0000   -0.0009    0.0000    0.0000   -0.0000    0.0011    0.0000
 
 pseudopotential strength for first ion, spin component:           1
 -4.117  -0.000   0.000   0.000   0.000  -4.690  -0.000   0.000
 -0.000  -4.117   0.000  -0.000  -0.000  -0.000  -4.690   0.000
  0.000   0.000  -4.100   0.000  -0.000   0.000   0.000  -4.673
  0.000  -0.000   0.000  -4.117  -0.000   0.000  -0.000   0.000
  0.000  -0.000  -0.000  -0.000  -4.100   0.000  -0.000  -0.000
 -4.690  -0.000   0.000   0.000   0.000  -5.219  -0.000   0.000
 -0.000  -4.690   0.000  -0.000  -0.000  -0.000  -5.219   0.000
  0.000   0.000  -4.673   0.000  -0.000   0.000   0.000  -5.203
  0.000  -0.000   0.000  -4.690  -0.000   0.000  -0.000   0.000
  0.000  -0.000  -0.000  -0.000  -4.673   0.000  -0.000  -0.000
  0.000  -0.000   0.000   0.000  -0.000   0.000  -0.000   0.000
  0.000  -0.000   0.000   0.000  -0.000   0.000  -0.000   0.000
  0.000   0.000   0.000   0.000  -0.000   0.000   0.000   0.000
  0.000   0.000   0.000   0.000  -0.000   0.000   0.000   0.000
 -0.000   0.000  -0.000   0.000   0.000  -0.000   0.000  -0.000
  0.000   0.000   0.000   0.000  -0.000   0.000   0.000   0.000
  0.000   0.000   0.000   0.000  -0.000   0.000   0.000   0.000
 -0.000   0.000  -0.000   0.000   0.000  -0.000   0.000  -0.000
 total augmentation occupancy for first ion, spin component:           1
  1.390   0.000  -0.000   0.000  -0.000  -0.890  -0.000   0.000   0.000   0.000   0.000   0.000  -0.000   0.000   0.000  -0.000
 -0.000   1.390  -0.000   0.000  -0.000   0.000  -0.890  -0.000   0.000   0.000   0.000   0.000  -0.000  -0.000  -0.000   0.000
  0.000  -0.000   2.456  -0.000  -0.000   0.000  -0.000  -1.515   0.000   0.000   0.000   0.000  -0.000   0.000  -0.000  -0.000
  0.000   0.000  -0.000   1.390   0.000   0.000  -0.000  -0.000  -0.890  -0.000  -0.000  -0.000   0.000   0.000   0.000   0.000
  0.000  -0.000   0.000   0.000   2.456   0.000   0.000   0.000   0.000  -1.515   0.000   0.000   0.000  -0.000  -0.000   0.000
 -0.890   0.000   0.000   0.000   0.000   1.730  -0.000   0.000   0.000  -0.000   0.000  -0.000   0.000  -0.000   0.000  -0.000
 -0.000  -0.890  -0.000  -0.000  -0.000  -0.000   1.730  -0.000   0.000   0.000   0.000   0.000   0.000  -0.000   0.000  -0.000
  0.000   0.000  -1.515   0.000  -0.000   0.000  -0.000   1.952   0.000   0.000  -0.000  -0.000   0.000  -0.000  -0.000   0.000
 -0.000   0.000   0.000  -0.890   0.000  -0.000   0.000   0.000   1.730  -0.000   0.000  -0.000  -0.000   0.000   0.000   0.000
  0.000   0.000   0.000  -0.000  -1.515  -0.000   0.000  -0.000  -0.000   1.952  -0.000  -0.000  -0.000  -0.000  -0.000   0.000
  0.000  -0.000  -0.000   0.000   0.000  -0.000   0.000   0.000   0.000  -0.000   2.819  -0.330   0.000   0.000   0.000  -0.000
 -0.000   0.000  -0.000  -0.000   0.000  -0.000  -0.000  -0.000  -0.000   0.000  -0.330   0.044   0.000   0.000  -0.000   0.000
 -0.000   0.000  -0.000  -0.000  -0.000  -0.000   0.000   0.000  -0.000   0.000   0.000   0.000   0.371  -0.000  -0.000  -0.031
  0.000   0.000  -0.000   0.000   0.000  -0.000   0.000   0.000  -0.000   0.000   0.000   0.000  -0.000   0.371  -0.000  -0.000
  0.000   0.000  -0.000   0.000   0.000  -0.000  -0.000   0.000  -0.000  -0.000   0.000  -0.000  -0.000   0.000   0.371   0.000
 -0.000   0.000   0.000  -0.000  -0.000   0.000   0.000   0.000  -0.000  -0.000  -0.000   0.000  -0.031   0.000   0.000   0.003
  0.000   0.000   0.000   0.000   0.000  -0.000   0.000  -0.000  -0.000   0.000  -0.000   0.000  -0.000  -0.031   0.000   0.000
 -0.000   0.000  -0.000  -0.000   0.000  -0.000  -0.000  -0.000  -0.000   0.000   0.000   0.000  -0.000   0.000  -0.031   0.000


------------------------ aborting loop because EDIFF is reached ----------------------------------------


    CHARGE:  cpu time    0.0325: real time    0.0325
    FORLOC:  cpu time    0.0004: real time    0.0004
    FORNL :  cpu time    0.2464: real time    0.2464
    STRESS:  cpu time    0.2662: real time    0.2662
    FORCOR:  cpu time    0.0052: real time    0.0052
    FORHAR:  cpu time    0.0012: real time    0.0012
    MIXING:  cpu time    0.0003: real time    0.0003

  FORCE on cell =-STRESS in cart. coord.  units (eV):
  Direction    XX          YY          ZZ          XY          YZ          ZX
  --------------------------------------------------------------------------------------
  Alpha Z   284.68326   284.68326   284.68326
  Ewald    -831.75809  -831.75809  -831.75809    -0.00000     0.00000     0.00000
  Hartree   110.30823   110.30823   110.30823    -0.00000    -0.00000    -0.00000
  E(xc)    -157.95376  -157.95376  -157.95376    -0.00000     0.00000    -0.00000
  Local     249.44545   249.44545   249.44545     0.00000     0.00000    -0.00000
  n-local  -105.31934  -104.77552   -99.43905     3.90078     1.04413     1.29460
  augment   151.34932   151.34932   151.34932    -0.00000     0.00000    -0.00000
  Kinetic   316.95057   297.18599   289.08316     1.65778     6.59871     5.19156
  Fock        0.00000     0.00000     0.00000     0.00000     0.00000     0.00000
  -------------------------------------------------------------------------------------
  Total       3.96968     3.96968     3.96968    -0.00000    -0.00000     0.00000
  in kB     163.73581   163.73581   163.73581    -0.00000    -0.00000     0.00000
  external pressure =      163.74 kB  Pullay stress =        0.00 kB


 VOLUME and BASIS-vectors are now :
 -----------------------------------------------------------------------------
  energy-cutoff  :      300.00
  volume of cell :       38.84
      direct lattice vectors                 reciprocal lattice vectors
     3.386680480  0.000000000  0.000000000     0.295274386  0.000000000  0.000000000
     0.000000000  3.386680480  0.000000000     0.000000000  0.295274386  0.000000000
     0.000000000  0.000000000  3.386680480     0.000000000  0.000000000  0.295274386

  length of vectors
     3.386680480  3.386680480  3.386680480     0.295274386  0.295274386  0.295274386


 FORCES acting on ions
    electron-ion (+dipol)            ewald-force                    non-local-force                 convergence-correction
 -----------------------------------------------------------------------------------------------
   -.575E-13 -.143E-13 -.161E-13   -.113E-13 -.294E-14 -.268E-14   0.119E-24 -.268E-24 -.515E-24   -.139E-13 0.124E-13 0.592E-14
   0.139E-12 0.177E-12 -.147E-13   0.240E-14 0.281E-14 -.247E-14   -.776E-24 0.532E-26 -.382E-24   -.214E-13 0.100E-13 0.944E-14
   0.130E-12 -.145E-13 0.166E-12   0.395E-14 -.118E-14 0.262E-14   -.128E-24 -.305E-24 0.247E-24   -.259E-13 -.111E-14 0.225E-14
   -.586E-13 0.178E-12 0.175E-12   0.410E-14 0.457E-14 0.282E-14   -.753E-24 0.517E-24 -.553E-24   -.218E-13 0.289E-14 -.883E-14
 -----------------------------------------------------------------------------------------------
   0.153E-12 0.326E-12 0.310E-12   -.869E-15 0.326E-14 0.281E-15   -.154E-23 -.508E-25 -.120E-23   -.830E-13 0.242E-13 0.877E-14
 
 
 POSITION                                       TOTAL-FORCE (eV/Angst)
 -----------------------------------------------------------------------------------
      0.00000      0.00000      0.00000        -0.000000      0.000000     -0.000000
      1.69334      1.69334      0.00000         0.000000     -0.000000      0.000000
      1.69334      0.00000      1.69334        -0.000000      0.000000      0.000000
      0.00000      1.69334      1.69334         0.000000     -0.000000     -0.000000
 -----------------------------------------------------------------------------------
    total drift:                                0.000000      0.000000      0.000000


--------------------------------------------------------------------------------------------------------



  FREE ENERGIE OF THE ION-ELECTRON SYSTEM (eV)
  ---------------------------------------------------
  free  energy   TOTEN  =       -32.23899453 eV

  energy  without entropy=      -32.24675926  energy(sigma->0) =      -32.24158277
 


--------------------------------------------------------------------------------------------------------


    POTLOK:  cpu time    0.0088: real time    0.0088


--------------------------------------------------------------------------------------------------------


 writing wavefunctions
     LOOP+:  cpu time   10.0234: real time   10.0451
    4ORBIT:  cpu time    0.0000: real time    0.0000

 total amount of memory used by VASP MPI-rank0    54390. kBytes
=======================================================================

   base      :      30000. kBytes
   nonl-proj :       3795. kBytes
   grid      :       1216. kBytes
   one-center:         62. kBytes
   wavefun   :      19317. kBytes
 
  
  
 General timing and accounting informations for this job:
 ========================================================
  
                  Total CPU time used (sec):       10.230
                            User time (sec):       10.182
                          System time (sec):        0.048
                         Elapsed time (sec):       10.240
  
                   Maximum memory used (kb):       60824.
                   Average memory used (kb):          N/A
  
                          Minor page faults:         8868
                          Major page faults:            0
                 Voluntary context switches:           26
