unknown system                          
   1.00000000000000     
     3.635000    0.000000    0.000000
     0.000000    3.635000    0.000000
     0.000000    0.000000    3.635000
   Cu
     4
Direct
  0.000000  0.000000  0.000000
  0.500000  0.500000  0.000000
  0.500000  0.000000  0.500000
  0.000000  0.500000  0.500000
 
   28   28   28
  841.99      779.49      616.81      413.36      230.45      105.10      42.187      21.412      13.961      10.330    
  8.9020      7.8908      7.3467      7.5984      7.8944      7.5984      7.3467      7.8908      8.9020      10.330    
  13.961      21.412      42.187      105.10      230.45      413.36      616.81      779.49      779.49      721.27    
  569.81      380.67      211.25      96.111      39.292      20.865      13.757      10.276      8.8635      7.8287    
  7.2192      7.3616      7.5984      7.3616      7.2192      7.8287      8.8635      10.276      13.757      20.865    
  39.292      96.111      211.25      380.67      569.81      721.27      616.81      569.81      447.79      296.23    
  162.27      73.785      32.466      19.455      13.196      10.154      8.8593      7.8851      7.2465      7.2192    
  7.3467      7.2192      7.2465      7.8851      8.8593      10.154      13.196      19.455      32.466      73.785    
  162.27      296.23      447.79      569.81      413.36      380.67      296.23      192.80      104.06      48.852    
  25.577      17.441      12.416      10.038      9.0318      8.3346      7.8851      7.8287      7.8908      7.8287    
  7.8851      8.3346      9.0318      10.038      12.416      17.441      25.577      48.852      104.06      192.80    
  296.23      380.67      230.45      211.25      162.27      104.06      57.055      30.862      20.826      15.186    
  11.616      9.9940      9.3662      9.0318      8.8593      8.8635      8.9020      8.8635      8.8593      9.0318    
  9.3662      9.9940      11.616      15.186      20.826      30.862      57.055      104.06      162.27      211.25    
  105.10      96.111      73.785      48.852      30.862      22.042      16.952      13.164      11.034      10.185    
  9.9940      10.038      10.154      10.276      10.330      10.276      10.154      10.038      9.9940      10.185    
  11.034      13.164      16.952      22.042      30.862      48.852      73.785      96.111      42.187      39.292    
  32.466      25.577      20.826      16.952      13.780      11.785      10.970      11.034      11.616      12.416    
  13.196      13.757      13.961      13.757      13.196      12.416      11.616      11.034      10.970      11.785    
  13.780      16.952      20.826      25.577      32.466      39.292      21.412      20.865      19.455      17.441    
  15.186      13.164      11.785      11.299      11.785      13.164      15.186      17.441      19.455      20.865    
  21.412      20.865      19.455      17.441      15.186      13.164      11.785      11.299      11.785      13.164    
  15.186      17.441      19.455      20.865      13.961      13.757      13.196      12.416      11.616      11.034    
  10.970      11.785      13.780      16.952      20.826      25.577      32.466      39.292      42.187      39.292    
  32.466      25.577      20.826      16.952      13.780      11.785      10.970      11.034      11.616      12.416    
  13.196      13.757      10.330      10.276      10.154      10.038      9.9940      10.185      11.034      13.164    
  16.952      22.042      30.862      48.852      73.785      96.111      105.10      96.111      73.785      48.852    
  30.862      22.042      16.952      13.164      11.034      10.185      9.9940      10.038      10.154      10.276    
  8.9020      8.8635      8.8593      9.0318      9.3662      9.9940      11.616      15.186      20.826      30.862    
  57.055      104.06      162.27      211.25      230.45      211.25      162.27      104.06      57.055      30.862    
  20.826      15.186      11.616      9.9940      9.3662      9.0318      8.8593      8.8635      7.8908      7.8287    
  7.8851      8.3346      9.0318      10.038      12.416      17.441      25.577      48.852      104.06      192.80    
  296.23      380.67      413.36      380.67      296.23      192.80      104.06      48.852      25.577      17.441    
  12.416      10.038      9.0318      8.3346      7.8851      7.8287      7.3467      7.2192      7.2465      7.8851    
  8.8593      10.154      13.196      19.455      32.466      73.785      162.27      296.23      447.79      569.81    
  616.81      569.81      447.79      296.23      162.27      73.785      32.466      19.455      13.196      10.154    
  8.8593      7.8851      7.2465      7.2192      7.5984      7.3616      7.2192      7.8287      8.8635      10.276    
  13.757      20.865      39.292      96.111      211.25      380.67      569.81      721.27      779.49      721.27    
  569.81      380.67      211.25      96.111      39.292      20.865      13.757      10.276      8.8635      7.8287    
  7.2192      7.3616      7.8944      7.5984      7.3467      7.8908      8.9020      10.330      13.961      21.412    
  42.187      105.10      230.45      413.36      616.81      779.49      841.99      779.49      616.81      413.36    
  230.45      105.10      42.187      21.412      13.961      10.330      8.9020      7.8908      7.3467      7.5984    
  7.5984      7.3616      7.2192      7.8287      8.8635      10.276      13.757      20.865      39.292      96.111    
  211.25      380.67      569.81      721.27      779.49      721.27      569.81      380.67      211.25      96.111    
  39.292      20.865      13.757      10.276      8.8635      7.8287      7.2192      7.3616      7.3467      7.2192    
  7.2465      7.8851      8.8593      10.154      13.196      19.455      32.466      73.785      162.27      296.23    
  447.79      569.81      616.81      569.81      447.79      296.23      162.27      73.785      32.466      19.455    
  13.196      10.154      8.8593      7.8851      7.2465      7.2192      7.8908      7.8287      7.8851      8.3346    
  9.0318      10.038      12.416      17.441      25.577      48.852      104.06      192.80      296.23      380.67    
  413.36      380.67      296.23      192.80      104.06      48.852      25.577      17.441      12.416      10.038    
  9.0318      8.3346      7.8851      7.8287      8.9020      8.8635      8.8593      9.0318      9.3662      9.9940    
  11.616      15.186      20.826      30.862      57.055      104.06      162.27      211.25      230.45      211.25    
  162.27      104.06      57.055      30.862      20.826      15.186      11.616      9.9940      9.3662      9.0318    
  8.8593      8.8635      10.330      10.276      10.154      10.038      9.9940      10.185      11.034      13.164    
  16.952      22.042      30.862      48.852      73.785      96.111      105.10      96.111      73.785      48.852    
  30.862      22.042      16.952      13.164      11.034      10.185      9.9940      10.038      10.154      10.276    
  13.961      13.757      13.196      12.416      11.616      11.034      10.970      11.785      13.780      16.952    
  20.826      25.577      32.466      39.292      42.187      39.292      32.466      25.577      20.826      16.952    
  13.780      11.785      10.970      11.034      11.616      12.416      13.196      13.757      21.412      20.865    
  19.455      17.441      15.186      13.164      11.785      11.299      11.785      13.164      15.186      17.441    
  19.455      20.865      21.412      20.865      19.455      17.441      15.186      13.164      11.785      11.299    
  11.785      13.164      15.186      17.441      19.455      20.865      42.187      39.292      32.466      25.577    
  20.826      16.952      13.780      11.785      10.970      11.034      11.616      12.416      13.196      13.757    
  13.961      13.757      13.196      12.416      11.616      11.034      10.970      11.785      13.780      16.952    
  20.826      25.577      32.466      39.292      105.10      96.111      73.785      48.852      30.862      22.042    
  16.952      13.164      11.034      10.185      9.9940      10.038      10.154      10.276      10.330      10.276    
  10.154      10.038      9.9940      10.185      11.034      13.164      16.952      22.042      30.862      48.852    
  73.785      96.111      230.45      211.25      162.27      104.06      57.055      30.862      20.826      15.186    
  11.616      9.9940      9.3662      9.0318      8.8593      8.8635      8.9020      8.8635      8.8593      9.0318    
  9.3662      9.9940      11.616      15.186      20.826      30.862      57.055      104.06      162.27      211.25    
  413.36      380.67      296.23      192.80      104.06      48.852      25.577      17.441      12.416      10.038    
  9.0318      8.3346      7.8851      7.8287      7.8908      7.8287      7.8851      8.3346      9.0318      10.038    
  12.416      17.441      25.577      48.852      104.06      192.80      296.23      380.67      616.81      569.81    
  447.79      296.23      162.27      73.785      32.466      19.455      13.196      10.154      8.8593      7.8851    
  7.2465      7.2192      7.3467      7.2192      7.2465      7.8851      8.8593      10.154      13.196      19.455    
  32.466      73.785      162.27      296.23      447.79      569.81      779.49      721.27      569.81      380.67    
  211.25      96.111      39.292      20.865      13.757      10.276      8.8635      7.8287      7.2192      7.3616    
  7.5984      7.3616      7.2192      7.8287      8.8635      10.276      13.757      20.865      39.292      96.111    
  211.25      380.67      569.81      721.27      779.49      721.27      569.81      380.67      211.25      96.111    
  39.292      20.865      13.757      10.276      8.8635      7.8287      7.2192      7.3616      7.5984      7.3616    
  7.2192      7.8287      8.8635      10.276      13.757      20.865      39.292      96.111      211.25      380.67    
  569.81      721.27      721.27      667.06      526.10      350.34      193.54      87.925      36.719      20.359    
  13.562      10.232      8.8431      7.7948      7.1319      7.1778      7.3616      7.1778      7.1319      7.7948    
  8.8431      10.232      13.562      20.359      36.719      87.925      193.54      350.34      526.10      667.06    
  569.81      526.10      412.67      272.11      148.47      67.673      30.677      19.005      13.025      10.131    
  8.8730      7.9013      7.2298      7.1319      7.2192      7.1319      7.2298      7.9013      8.8730      10.131    
  13.025      19.005      30.677      67.673      148.47      272.11      412.67      526.10      380.67      350.34    
  272.11      176.59      95.196      45.236      24.604      17.046      12.277      10.031      9.0639      8.3737    
  7.9013      7.7948      7.8287      7.7948      7.9013      8.3737      9.0639      10.031      12.277      17.046    
  24.604      45.236      95.196      176.59      272.11      350.34      211.25      193.54      148.47      95.196    
  52.595      29.264      20.273      14.873      11.509      9.9891      9.3940      9.0639      8.8730      8.8431    
  8.8635      8.8431      8.8730      9.0639      9.3940      9.9891      11.509      14.873      20.273      29.264    
  52.595      95.196      148.47      193.54      96.111      87.925      67.673      45.236      29.264      21.416    
  16.534      12.942      10.948      10.162      9.9891      10.031      10.131      10.232      10.276      10.232    
  10.131      10.031      9.9891      10.162      10.948      12.942      16.534      21.416      29.264      45.236    
  67.673      87.925      39.292      36.719      30.677      24.604      20.273      16.534      13.512      11.634    
  10.877      10.948      11.509      12.277      13.025      13.562      13.757      13.562      13.025      12.277    
  11.509      10.948      10.877      11.634      13.512      16.534      20.273      24.604      30.677      36.719    
  20.865      20.359      19.005      17.046      14.873      12.942      11.634      11.174      11.634      12.942    
  14.873      17.046      19.005      20.359      20.865      20.359      19.005      17.046      14.873      12.942    
  11.634      11.174      11.634      12.942      14.873      17.046      19.005      20.359      13.757      13.562    
  13.025      12.277      11.509      10.948      10.877      11.634      13.512      16.534      20.273      24.604    
  30.677      36.719      39.292      36.719      30.677      24.604      20.273      16.534      13.512      11.634    
  10.877      10.948      11.509      12.277      13.025      13.562      10.276      10.232      10.131      10.031    
  9.9891      10.162      10.948      12.942      16.534      21.416      29.264      45.236      67.673      87.925    
  96.111      87.925      67.673      45.236      29.264      21.416      16.534      12.942      10.948      10.162    
  9.9891      10.031      10.131      10.232      8.8635      8.8431      8.8730      9.0639      9.3940      9.9891    
  11.509      14.873      20.273      29.264      52.595      95.196      148.47      193.54      211.25      193.54    
  148.47      95.196      52.595      29.264      20.273      14.873      11.509      9.9891      9.3940      9.0639    
  8.8730      8.8431      7.8287      7.7948      7.9013      8.3737      9.0639      10.031      12.277      17.046    
  24.604      45.236      95.196      176.59      272.11      350.34      380.67      350.34      272.11      176.59    
  95.196      45.236      24.604      17.046      12.277      10.031      9.0639      8.3737      7.9013      7.7948    
  7.2192      7.1319      7.2298      7.9013      8.8730      10.131      13.025      19.005      30.677      67.673    
  148.47      272.11      412.67      526.10      569.81      526.10      412.67      272.11      148.47      67.673    
  30.677      19.005      13.025      10.131      8.8730      7.9013      7.2298      7.1319      7.3616      7.1778    
  7.1319      7.7948      8.8431      10.232      13.562      20.359      36.719      87.925      193.54      350.34    
  526.10      667.06      721.27      667.06      526.10      350.34      193.54      87.925      36.719      20.359    
  13.562      10.232      8.8431      7.7948      7.1319      7.1778      7.5984      7.3616      7.2192      7.8287    
  8.8635      10.276      13.757      20.865      39.292      96.111      211.25      380.67      569.81      721.27    
  779.49      721.27      569.81      380.67      211.25      96.111      39.292      20.865      13.757      10.276    
  8.8635      7.8287      7.2192      7.3616      7.3616      7.1778      7.1319      7.7948      8.8431      10.232    
  13.562      20.359      36.719      87.925      193.54      350.34      526.10      667.06      721.27      667.06    
  526.10      350.34      193.54      87.925      36.719      20.359      13.562      10.232      8.8431      7.7948    
  7.1319      7.1778      7.2192      7.1319      7.2298      7.9013      8.8730      10.131      13.025      19.005    
  30.677      67.673      148.47      272.11      412.67      526.10      569.81      526.10      412.67      272.11    
  148.47      67.673      30.677      19.005      13.025      10.131      8.8730      7.9013      7.2298      7.1319    
  7.8287      7.7948      7.9013      8.3737      9.0639      10.031      12.277      17.046      24.604      45.236    
  95.196      176.59      272.11      350.34      380.67      350.34      272.11      176.59      95.196      45.236    
  24.604      17.046      12.277      10.031      9.0639      8.3737      7.9013      7.7948      8.8635      8.8431    
  8.8730      9.0639      9.3940      9.9891      11.509      14.873      20.273      29.264      52.595      95.196    
  148.47      193.54      211.25      193.54      148.47      95.196      52.595      29.264      20.273      14.873    
  11.509      9.9891      9.3940      9.0639      8.8730      8.8431      10.276      10.232      10.131      10.031    
  9.9891      10.162      10.948      12.942      16.534      21.416      29.264      45.236      67.673      87.925    
  96.111      87.925      67.673      45.236      29.264      21.416      16.534      12.942      10.948      10.162    
  9.9891      10.031      10.131      10.232      13.757      13.562      13.025      12.277      11.509      10.948    
  10.877      11.634      13.512      16.534      20.273      24.604      30.677      36.719      39.292      36.719    
  30.677      24.604      20.273      16.534      13.512      11.634      10.877      10.948      11.509      12.277    
  13.025      13.562      20.865      20.359      19.005      17.046      14.873      12.942      11.634      11.174    
  11.634      12.942      14.873      17.046      19.005      20.359      20.865      20.359      19.005      17.046    
  14.873      12.942      11.634      11.174      11.634      12.942      14.873      17.046      19.005      20.359    
  39.292      36.719      30.677      24.604      20.273      16.534      13.512      11.634      10.877      10.948    
  11.509      12.277      13.025      13.562      13.757      13.562      13.025      12.277      11.509      10.948    
  10.877      11.634      13.512      16.534      20.273      24.604      30.677      36.719      96.111      87.925    
  67.673      45.236      29.264      21.416      16.534      12.942      10.948      10.162      9.9891      10.031    
  10.131      10.232      10.276      10.232      10.131      10.031      9.9891      10.162      10.948      12.942    
  16.534      21.416      29.264      45.236      67.673      87.925      211.25      193.54      148.47      95.196    
  52.595      29.264      20.273      14.873      11.509      9.9891      9.3940      9.0639      8.8730      8.8431    
  8.8635      8.8431      8.8730      9.0639      9.3940      9.9891      11.509      14.873      20.273      29.264    
  52.595      95.196      148.47      193.54      380.67      350.34      272.11      176.59      95.196      45.236    
  24.604      17.046      12.277      10.031      9.0639      8.3737      7.9013      7.7948      7.8287      7.7948    
  7.9013      8.3737      9.0639      10.031      12.277      17.046      24.604      45.236      95.196      176.59    
  272.11      350.34      569.81      526.10      412.67      272.11      148.47      67.673      30.677      19.005    
  13.025      10.131      8.8730      7.9013      7.2298      7.1319      7.2192      7.1319      7.2298      7.9013    
  8.8730      10.131      13.025      19.005      30.677      67.673      148.47      272.11      412.67      526.10    
  721.27      667.06      526.10      350.34      193.54      87.925      36.719      20.359      13.562      10.232    
  8.8431      7.7948      7.1319      7.1778      7.3616      7.1778      7.1319      7.7948      8.8431      10.232    
  13.562      20.359      36.719      87.925      193.54      350.34      526.10      667.06      616.81      569.81    
  447.79      296.23      162.27      73.785      32.466      19.455      13.196      10.154      8.8593      7.8851    
  7.2465      7.2192      7.3467      7.2192      7.2465      7.8851      8.8593      10.154      13.196      19.455    
  32.466      73.785      162.27      296.23      447.79      569.81      569.81      526.10      412.67      272.11    
  148.47      67.673      30.677      19.005      13.025      10.131      8.8730      7.9013      7.2298      7.1319    
  7.2192      7.1319      7.2298      7.9013      8.8730      10.131      13.025      19.005      30.677      67.673    
  148.47      272.11      412.67      526.10      447.79      412.67      321.84      210.16      113.63      52.725    
  26.515      17.751      12.553      10.074      8.9609      8.0811      7.4264      7.2298      7.2465      7.2298    
  7.4264      8.0811      8.9609      10.074      12.553      17.751      26.515      52.725      113.63      210.16    
  321.84      412.67      296.23      272.11      210.16      135.38      73.134      36.591      22.295      15.966    
  11.897      10.007      9.1690      8.5477      8.0811      7.9013      7.8851      7.9013      8.0811      8.5477    
  9.1690      10.007      11.897      15.966      22.295      36.591      73.134      135.38      210.16      272.11    
  162.27      148.47      113.63      73.134      41.817      25.527      18.748      14.037      11.224      9.9722    
  9.4689      9.1690      8.9609      8.8730      8.8593      8.8730      8.9609      9.1690      9.4689      9.9722    
  11.224      14.037      18.748      25.527      41.817      73.134      113.63      148.47      73.785      67.673    
  52.725      36.591      25.527      19.749      15.411      12.363      10.729      10.103      9.9722      10.007    
  10.074      10.131      10.154      10.131      10.074      10.007      9.9722      10.103      10.729      12.363    
  15.411      19.749      25.527      36.591      52.725      67.673      32.466      30.677      26.515      22.295    
  18.748      15.411      12.812      11.248      10.643      10.729      11.224      11.897      12.553      13.025    
  13.196      13.025      12.553      11.897      11.224      10.729      10.643      11.248      12.812      15.411    
  18.748      22.295      26.515      30.677      19.455      19.005      17.751      15.966      14.037      12.363    
  11.248      10.859      11.248      12.363      14.037      15.966      17.751      19.005      19.455      19.005    
  17.751      15.966      14.037      12.363      11.248      10.859      11.248      12.363      14.037      15.966    
  17.751      19.005      13.196      13.025      12.553      11.897      11.224      10.729      10.643      11.248    
  12.812      15.411      18.748      22.295      26.515      30.677      32.466      30.677      26.515      22.295    
  18.748      15.411      12.812      11.248      10.643      10.729      11.224      11.897      12.553      13.025    
  10.154      10.131      10.074      10.007      9.9722      10.103      10.729      12.363      15.411      19.749    
  25.527      36.591      52.725      67.673      73.785      67.673      52.725      36.591      25.527      19.749    
  15.411      12.363      10.729      10.103      9.9722      10.007      10.074      10.131      8.8593      8.8730    
  8.9609      9.1690      9.4689      9.9722      11.224      14.037      18.748      25.527      41.817      73.134    
  113.63      148.47      162.27      148.47      113.63      73.134      41.817      25.527      18.748      14.037    
  11.224      9.9722      9.4689      9.1690      8.9609      8.8730      7.8851      7.9013      8.0811      8.5477    
  9.1690      10.007      11.897      15.966      22.295      36.591      73.134      135.38      210.16      272.11    
  296.23      272.11      210.16      135.38      73.134      36.591      22.295      15.966      11.897      10.007    
  9.1690      8.5477      8.0811      7.9013      7.2465      7.2298      7.4264      8.0811      8.9609      10.074    
  12.553      17.751      26.515      52.725      113.63      210.16      321.84      412.67      447.79      412.67    
  321.84      210.16      113.63      52.725      26.515      17.751      12.553      10.074      8.9609      8.0811    
  7.4264      7.2298      7.2192      7.1319      7.2298      7.9013      8.8730      10.131      13.025      19.005    
  30.677      67.673      148.47      272.11      412.67      526.10      569.81      526.10      412.67      272.11    
  148.47      67.673      30.677      19.005      13.025      10.131      8.8730      7.9013      7.2298      7.1319    
  7.3467      7.2192      7.2465      7.8851      8.8593      10.154      13.196      19.455      32.466      73.785    
  162.27      296.23      447.79      569.81      616.81      569.81      447.79      296.23      162.27      73.785    
  32.466      19.455      13.196      10.154      8.8593      7.8851      7.2465      7.2192      7.2192      7.1319    
  7.2298      7.9013      8.8730      10.131      13.025      19.005      30.677      67.673      148.47      272.11    
  412.67      526.10      569.81      526.10      412.67      272.11      148.47      67.673      30.677      19.005    
  13.025      10.131      8.8730      7.9013      7.2298      7.1319      7.2465      7.2298      7.4264      8.0811    
  8.9609      10.074      12.553      17.751      26.515      52.725      113.63      210.16      321.84      412.67    
  447.79      412.67      321.84      210.16      113.63      52.725      26.515      17.751      12.553      10.074    
  8.9609      8.0811      7.4264      7.2298      7.8851      7.9013      8.0811      8.5477      9.1690      10.007    
  11.897      15.966      22.295      36.591      73.134      135.38      210.16      272.11      296.23      272.11    
  210.16      135.38      73.134      36.591      22.295      15.966      11.897      10.007      9.1690      8.5477    
  8.0811      7.9013      8.8593      8.8730      8.9609      9.1690      9.4689      9.9722      11.224      14.037    
  18.748      25.527      41.817      73.134      113.63      148.47      162.27      148.47      113.63      73.134    
  41.817      25.527      18.748      14.037      11.224      9.9722      9.4689      9.1690      8.9609      8.8730    
  10.154      10.131      10.074      10.007      9.9722      10.103      10.729      12.363      15.411      19.749    
  25.527      36.591      52.725      67.673      73.785      67.673      52.725      36.591      25.527      19.749    
  15.411      12.363      10.729      10.103      9.9722      10.007      10.074      10.131      13.196      13.025    
  12.553      11.897      11.224      10.729      10.643      11.248      12.812      15.411      18.748      22.295    
  26.515      30.677      32.466      30.677      26.515      22.295      18.748      15.411      12.812      11.248    
  10.643      10.729      11.224      11.897      12.553      13.025      19.455      19.005      17.751      15.966    
  14.037      12.363      11.248      10.859      11.248      12.363      14.037      15.966      17.751      19.005    
  19.455      19.005      17.751      15.966      14.037      12.363      11.248      10.859      11.248      12.363    
  14.037      15.966      17.751      19.005      32.466      30.677      26.515      22.295      18.748      15.411    
  12.812      11.248      10.643      10.729      11.224      11.897      12.553      13.025      13.196      13.025    
  12.553      11.897      11.224      10.729      10.643      11.248      12.812      15.411      18.748      22.295    
  26.515      30.677      73.785      67.673      52.725      36.591      25.527      19.749      15.411      12.363    
  10.729      10.103      9.9722      10.007      10.074      10.131      10.154      10.131      10.074      10.007    
  9.9722      10.103      10.729      12.363      15.411      19.749      25.527      36.591      52.725      67.673    
  162.27      148.47      113.63      73.134      41.817      25.527      18.748      14.037      11.224      9.9722    
  9.4689      9.1690      8.9609      8.8730      8.8593      8.8730      8.9609      9.1690      9.4689      9.9722    
  11.224      14.037      18.748      25.527      41.817      73.134      113.63      148.47      296.23      272.11    
  210.16      135.38      73.134      36.591      22.295      15.966      11.897      10.007      9.1690      8.5477    
  8.0811      7.9013      7.8851      7.9013      8.0811      8.5477      9.1690      10.007      11.897      15.966    
  22.295      36.591      73.134      135.38      210.16      272.11      447.79      412.67      321.84      210.16    
  113.63      52.725      26.515      17.751      12.553      10.074      8.9609      8.0811      7.4264      7.2298    
  7.2465      7.2298      7.4264      8.0811      8.9609      10.074      12.553      17.751      26.515      52.725    
  113.63      210.16      321.84      412.67      569.81      526.10      412.67      272.11      148.47      67.673    
  30.677      19.005      13.025      10.131      8.8730      7.9013      7.2298      7.1319      7.2192      7.1319    
  7.2298      7.9013      8.8730      10.131      13.025      19.005      30.677      67.673      148.47      272.11    
  412.67      526.10      413.36      380.67      296.23      192.80      104.06      48.852      25.577      17.441    
  12.416      10.038      9.0318      8.3346      7.8851      7.8287      7.8908      7.8287      7.8851      8.3346    
  9.0318      10.038      12.416      17.441      25.577      48.852      104.06      192.80      296.23      380.67    
  380.67      350.34      272.11      176.59      95.196      45.236      24.604      17.046      12.277      10.031    
  9.0639      8.3737      7.9013      7.7948      7.8287      7.7948      7.9013      8.3737      9.0639      10.031    
  12.277      17.046      24.604      45.236      95.196      176.59      272.11      350.34      296.23      272.11    
  210.16      135.38      73.134      36.591      22.295      15.966      11.897      10.007      9.1690      8.5477    
  8.0811      7.9013      7.8851      7.9013      8.0811      8.5477      9.1690      10.007      11.897      15.966    
  22.295      36.591      73.134      135.38      210.16      272.11      192.80      176.59      135.38      86.862    
  48.399      27.663      19.572      14.478      11.378      9.9694      9.3449      8.8975      8.5477      8.3737    