unknown system                          
   1.00000000000000     
     3.635000    0.000000    0.000000
     0.000000    3.635000    0.000000
     0.000000    0.000000    3.635000
   Cu
     4
Direct
  0.000000  0.000000  0.000000
  0.500000  0.500000  0.000000
  0.500000  0.000000  0.500000
  0.000000  0.500000  0.500000
 
   28   28   28
 0.84199177935E+03 0.77948605251E+03 0.61680842716E+03 0.41335762777E+03 0.23045260143E+03
 0.10510314103E+03 0.42187066694E+02 0.21412199027E+02 0.13961052505E+02 0.10330284014E+02
 0.89020441034E+01 0.78907721626E+01 0.73466706177E+01 0.75984209795E+01 0.78943733549E+01
 0.75984209795E+01 0.73466706177E+01 0.78907721626E+01 0.89020441034E+01 0.10330284014E+02
 0.13961052505E+02 0.21412199027E+02 0.42187066694E+02 0.10510314103E+03 0.23045260143E+03
 0.41335762777E+03 0.61680842716E+03 0.77948605251E+03 0.77948605251E+03 0.72126763538E+03
 0.56981332495E+03 0.38066647278E+03 0.21124783664E+03 0.96111035200E+02 0.39292410996E+02
 0.20865476316E+02 0.13757073418E+02 0.10276012156E+02 0.88634648697E+01 0.78287105359E+01
 0.72192115756E+01 0.73616129098E+01 0.75984209795E+01 0.73616129098E+01 0.72192115756E+01
 0.78287105359E+01 0.88634648697E+01 0.10276012156E+02 0.13757073418E+02 0.20865476316E+02
 0.39292410996E+02 0.96111035200E+02 0.21124783664E+03 0.38066647278E+03 0.56981332495E+03
 0.72126763538E+03 0.61680842716E+03 0.56981332495E+03 0.44778733579E+03 0.29623208473E+03
 0.16226695656E+03 0.73785376929E+02 0.32466459664E+02 0.19454814927E+02 0.13195860877E+02
 0.10153750300E+02 0.88592819549E+01 0.78850747197E+01 0.72464526902E+01 0.72192115756E+01
 0.73466706177E+01 0.72192115756E+01 0.72464526902E+01 0.78850747197E+01 0.88592819549E+01
 0.10153750300E+02 0.13195860877E+02 0.19454814927E+02 0.32466459664E+02 0.73785376929E+02
 0.16226695656E+03 0.29623208473E+03 0.44778733579E+03 0.56981332495E+03 0.41335762777E+03
 0.38066647278E+03 0.29623208473E+03 0.19280458117E+03 0.10406406263E+03 0.48851669664E+02
 0.25577290218E+02 0.17440657518E+02 0.12416341084E+02 0.10037746121E+02 0.90317634003E+01
 0.83345735924E+01 0.78850747197E+01 0.78287105359E+01 0.78907721626E+01 0.78287105359E+01
 0.78850747197E+01 0.83345735924E+01 0.90317634003E+01 0.10037746121E+02 0.12416341084E+02
 0.17440657518E+02 0.25577290218E+02 0.48851669664E+02 0.10406406263E+03 0.19280458117E+03
 0.29623208473E+03 0.38066647278E+03 0.23045260143E+03 0.21124783664E+03 0.16226695656E+03
 0.10406406263E+03 0.57055332084E+02 0.30862302654E+02 0.20826099071E+02 0.15185665492E+02
 0.11615824726E+02 0.99940135184E+01 0.93661646356E+01 0.90317634003E+01 0.88592819549E+01
 0.88634648697E+01 0.89020441034E+01 0.88634648697E+01 0.88592819549E+01 0.90317634003E+01
 0.93661646356E+01 0.99940135184E+01 0.11615824726E+02 0.15185665492E+02 0.20826099071E+02
 0.30862302654E+02 0.57055332084E+02 0.10406406263E+03 0.16226695656E+03 0.21124783664E+03
 0.10510314103E+03 0.96111035200E+02 0.73785376929E+02 0.48851669664E+02 0.30862302654E+02
 0.22041639563E+02 0.16951816199E+02 0.13164268739E+02 0.11033905773E+02 0.10184557346E+02
 0.99940135184E+01 0.10037746121E+02 0.10153750300E+02 0.10276012156E+02 0.10330284014E+02
 0.10276012156E+02 0.10153750300E+02 0.10037746121E+02 0.99940135184E+01 0.10184557346E+02
 0.11033905773E+02 0.13164268739E+02 0.16951816199E+02 0.22041639563E+02 0.30862302654E+02
 0.48851669664E+02 0.73785376929E+02 0.96111035200E+02 0.42187066694E+02 0.39292410996E+02
 0.32466459664E+02 0.25577290218E+02 0.20826099071E+02 0.16951816199E+02 0.13779509276E+02
 0.11785024819E+02 0.10970223320E+02 0.11033905773E+02 0.11615824726E+02 0.12416341084E+02
 0.13195860877E+02 0.13757073418E+02 0.13961052505E+02 0.13757073418E+02 0.13195860877E+02
 0.12416341084E+02 0.11615824726E+02 0.11033905773E+02 0.10970223320E+02 0.11785024819E+02
 0.13779509276E+02 0.16951816199E+02 0.20826099071E+02 0.25577290218E+02 0.32466459664E+02
 0.39292410996E+02 0.21412199027E+02 0.20865476316E+02 0.19454814927E+02 0.17440657518E+02
 0.15185665492E+02 0.13164268739E+02 0.11785024819E+02 0.11298566815E+02 0.11785024819E+02
 0.13164268739E+02 0.15185665492E+02 0.17440657518E+02 0.19454814927E+02 0.20865476316E+02
 0.21412199027E+02 0.20865476316E+02 0.19454814927E+02 0.17440657518E+02 0.15185665492E+02
 0.13164268739E+02 0.11785024819E+02 0.11298566815E+02 0.11785024819E+02 0.13164268739E+02
 0.15185665492E+02 0.17440657518E+02 0.19454814927E+02 0.20865476316E+02 0.13961052505E+02
 0.13757073418E+02 0.13195860877E+02 0.12416341084E+02 0.11615824726E+02 0.11033905773E+02
 0.10970223320E+02 0.11785024819E+02 0.13779509276E+02 0.16951816199E+02 0.20826099071E+02
 0.25577290218E+02 0.32466459664E+02 0.39292410996E+02 0.42187066694E+02 0.39292410996E+02
 0.32466459664E+02 0.25577290218E+02 0.20826099071E+02 0.16951816199E+02 0.13779509276E+02
 0.11785024819E+02 0.10970223320E+02 0.11033905773E+02 0.11615824726E+02 0.12416341084E+02
 0.13195860877E+02 0.13757073418E+02 0.10330284014E+02 0.10276012156E+02 0.10153750300E+02
 0.10037746121E+02 0.99940135184E+01 0.10184557346E+02 0.11033905773E+02 0.13164268739E+02
 0.16951816199E+02 0.22041639563E+02 0.30862302654E+02 0.48851669664E+02 0.73785376929E+02
 0.96111035200E+02 0.10510314103E+03 0.96111035200E+02 0.73785376929E+02 0.48851669664E+02
 0.30862302654E+02 0.22041639563E+02 0.16951816199E+02 0.13164268739E+02 0.11033905773E+02
 0.10184557346E+02 0.99940135184E+01 0.10037746121E+02 0.10153750300E+02 0.10276012156E+02
 0.89020441034E+01 0.88634648697E+01 0.88592819549E+01 0.90317634003E+01 0.93661646356E+01
 0.99940135184E+01 0.11615824726E+02 0.15185665492E+02 0.20826099071E+02 0.30862302654E+02
 0.57055332084E+02 0.10406406263E+03 0.16226695656E+03 0.21124783664E+03 0.23045260143E+03
 0.21124783664E+03 0.16226695656E+03 0.10406406263E+03 0.57055332084E+02 0.30862302654E+02
 0.20826099071E+02 0.15185665492E+02 0.11615824726E+02 0.99940135184E+01 0.93661646356E+01
 0.90317634003E+01 0.88592819549E+01 0.88634648697E+01 0.78907721626E+01 0.78287105359E+01
 0.78850747197E+01 0.83345735924E+01 0.90317634003E+01 0.10037746121E+02 0.12416341084E+02
 0.17440657518E+02 0.25577290218E+02 0.48851669664E+02 0.10406406263E+03 0.19280458117E+03
 0.29623208473E+03 0.38066647278E+03 0.41335762777E+03 0.38066647278E+03 0.29623208473E+03
 0.19280458117E+03 0.10406406263E+03 0.48851669664E+02 0.25577290218E+02 0.17440657518E+02
 0.12416341084E+02 0.10037746121E+02 0.90317634003E+01 0.83345735924E+01 0.78850747197E+01
 0.78287105359E+01 0.73466706177E+01 0.72192115756E+01 0.72464526902E+01 0.78850747197E+01
 0.88592819549E+01 0.10153750300E+02 0.13195860877E+02 0.19454814927E+02 0.32466459664E+02
 0.73785376929E+02 0.16226695656E+03 0.29623208473E+03 0.44778733579E+03 0.56981332495E+03
 0.61680842716E+03 0.56981332495E+03 0.44778733579E+03 0.29623208473E+03 0.16226695656E+03
 0.73785376929E+02 0.32466459664E+02 0.19454814927E+02 0.13195860877E+02 0.10153750300E+02
 0.88592819549E+01 0.78850747197E+01 0.72464526902E+01 0.72192115756E+01 0.75984209795E+01
 0.73616129098E+01 0.72192115756E+01 0.78287105359E+01 0.88634648697E+01 0.10276012156E+02
 0.13757073418E+02 0.20865476316E+02 0.39292410996E+02 0.96111035200E+02 0.21124783664E+03
 0.38066647278E+03 0.56981332495E+03 0.72126763538E+03 0.77948605251E+03 0.72126763538E+03
 0.56981332495E+03 0.38066647278E+03 0.21124783664E+03 0.96111035200E+02 0.39292410996E+02
 0.20865476316E+02 0.13757073418E+02 0.10276012156E+02 0.88634648697E+01 0.78287105359E+01
 0.72192115756E+01 0.73616129098E+01 0.78943733549E+01 0.75984209795E+01 0.73466706177E+01
 0.78907721626E+01 0.89020441034E+01 0.10330284014E+02 0.13961052505E+02 0.21412199027E+02
 0.42187066694E+02 0.10510314103E+03 0.23045260143E+03 0.41335762777E+03 0.61680842716E+03
 0.77948605251E+03 0.84199177935E+03 0.77948605251E+03 0.61680842716E+03 0.41335762777E+03
 0.23045260143E+03 0.10510314103E+03 0.42187066694E+02 0.21412199027E+02 0.13961052505E+02
 0.10330284014E+02 0.89020441034E+01 0.78907721626E+01 0.73466706177E+01 0.75984209795E+01
 0.75984209795E+01 0.73616129098E+01 0.72192115756E+01 0.78287105359E+01 0.88634648697E+01
 0.10276012156E+02 0.13757073418E+02 0.20865476316E+02 0.39292410996E+02 0.96111035200E+02
 0.21124783664E+03 0.38066647278E+03 0.56981332495E+03 0.72126763538E+03 0.77948605251E+03
 0.72126763538E+03 0.56981332495E+03 0.38066647278E+03 0.21124783664E+03 0.96111035200E+02
 0.39292410996E+02 0.20865476316E+02 0.13757073418E+02 0.10276012156E+02 0.88634648697E+01
 0.78287105359E+01 0.72192115756E+01 0.73616129098E+01 0.73466706177E+01 0.72192115756E+01
 0.72464526902E+01 0.78850747197E+01 0.88592819549E+01 0.10153750300E+02 0.13195860877E+02
 0.19454814927E+02 0.32466459664E+02 0.73785376929E+02 0.16226695656E+03 0.29623208473E+03
 0.44778733579E+03 0.56981332495E+03 0.61680842716E+03 0.56981332495E+03 0.44778733579E+03
 0.29623208473E+03 0.16226695656E+03 0.73785376929E+02 0.32466459664E+02 0.19454814927E+02
 0.13195860877E+02 0.10153750300E+02 0.88592819549E+01 0.78850747197E+01 0.72464526902E+01
 0.72192115756E+01 0.78907721626E+01 0.78287105359E+01 0.78850747197E+01 0.83345735924E+01
 0.90317634003E+01 0.10037746121E+02 0.12416341084E+02 0.17440657518E+02 0.25577290218E+02
 0.48851669664E+02 0.10406406263E+03 0.19280458117E+03 0.29623208473E+03 0.38066647278E+03
 0.41335762777E+03 0.38066647278E+03 0.29623208473E+03 0.19280458117E+03 0.10406406263E+03
 0.48851669664E+02 0.25577290218E+02 0.17440657518E+02 0.12416341084E+02 0.10037746121E+02
 0.90317634003E+01 0.83345735924E+01 0.78850747197E+01 0.78287105359E+01 0.89020441034E+01
 0.88634648697E+01 0.88592819549E+01 0.90317634003E+01 0.93661646356E+01 0.99940135184E+01
 0.11615824726E+02 0.15185665492E+02 0.20826099071E+02 0.30862302654E+02 0.57055332084E+02
 0.10406406263E+03 0.16226695656E+03 0.21124783664E+03 0.23045260143E+03 0.21124783664E+03
 0.16226695656E+03 0.10406406263E+03 0.57055332084E+02 0.30862302654E+02 0.20826099071E+02
 0.15185665492E+02 0.11615824726E+02 0.99940135184E+01 0.93661646356E+01 0.90317634003E+01
 0.88592819549E+01 0.88634648697E+01 0.10330284014E+02 0.10276012156E+02 0.10153750300E+02
 0.10037746121E+02 0.99940135184E+01 0.10184557346E+02 0.11033905773E+02 0.13164268739E+02
 0.16951816199E+02 0.22041639563E+02 0.30862302654E+02 0.48851669664E+02 0.73785376929E+02
 0.96111035200E+02 0.10510314103E+03 0.96111035200E+02 0.73785376929E+02 0.48851669664E+02
 0.30862302654E+02 0.22041639563E+02 0.16951816199E+02 0.13164268739E+02 0.11033905773E+02
 0.10184557346E+02 0.99940135184E+01 0.10037746121E+02 0.10153750300E+02 0.10276012156E+02
 0.13961052505E+02 0.13757073418E+02 0.13195860877E+02 0.12416341084E+02 0.11615824726E+02
 0.11033905773E+02 0.10970223320E+02 0.11785024819E+02 0.13779509276E+02 0.16951816199E+02
 0.20826099071E+02 0.25577290218E+02 0.32466459664E+02 0.39292410996E+02 0.42187066694E+02
 0.39292410996E+02 0.32466459664E+02 0.25577290218E+02 0.20826099071E+02 0.16951816199E+02
 0.13779509276E+02 0.11785024819E+02 0.10970223320E+02 0.11033905773E+02 0.11615824726E+02
 0.12416341084E+02 0.13195860877E+02 0.13757073418E+02 0.21412199027E+02 0.20865476316E+02
 0.19454814927E+02 0.17440657518E+02 0.15185665492E+02 0.13164268739E+02 0.11785024819E+02
 0.11298566815E+02 0.11785024819E+02 0.13164268739E+02 0.15185665492E+02 0.17440657518E+02
 0.19454814927E+02 0.20865476316E+02 0.21412199027E+02 0.20865476316E+02 0.19454814927E+02
 0.17440657518E+02 0.15185665492E+02 0.13164268739E+02 0.11785024819E+02 0.11298566815E+02
 0.11785024819E+02 0.13164268739E+02 0.15185665492E+02 0.17440657518E+02 0.19454814927E+02
 0.20865476316E+02 0.42187066694E+02 0.39292410996E+02 0.32466459664E+02 0.25577290218E+02
 0.20826099071E+02 0.16951816199E+02 0.13779509276E+02 0.11785024819E+02 0.10970223320E+02
 0.11033905773E+02 0.11615824726E+02 0.12416341084E+02 0.13195860877E+02 0.13757073418E+02
 0.13961052505E+02 0.13757073418E+02 0.13195860877E+02 0.12416341084E+02 0.11615824726E+02
 0.11033905773E+02 0.10970223320E+02 0.11785024819E+02 0.13779509276E+02 0.16951816199E+02
 0.20826099071E+02 0.25577290218E+02 0.32466459664E+02 0.39292410996E+02 0.10510314103E+03
 0.96111035200E+02 0.73785376929E+02 0.48851669664E+02 0.30862302654E+02 0.22041639563E+02
 0.16951816199E+02 0.13164268739E+02 0.11033905773E+02 0.10184557346E+02 0.99940135184E+01
 0.10037746121E+02 0.10153750300E+02 0.10276012156E+02 0.10330284014E+02 0.10276012156E+02
 0.10153750300E+02 0.10037746121E+02 0.99940135184E+01 0.10184557346E+02 0.11033905773E+02
 0.13164268739E+02 0.16951816199E+02 0.22041639563E+02 0.30862302654E+02 0.48851669664E+02
 0.73785376929E+02 0.96111035200E+02 0.23045260143E+03 0.21124783664E+03 0.16226695656E+03
 0.10406406263E+03 0.57055332084E+02 0.30862302654E+02 0.20826099071E+02 0.15185665492E+02
 0.11615824726E+02 0.99940135184E+01 0.93661646356E+01 0.90317634003E+01 0.88592819549E+01
 0.88634648697E+01 0.89020441034E+01 0.88634648697E+01 0.88592819549E+01 0.90317634003E+01
 0.93661646356E+01 0.99940135184E+01 0.11615824726E+02 0.15185665492E+02 0.20826099071E+02
 0.30862302654E+02 0.57055332084E+02 0.10406406263E+03 0.16226695656E+03 0.21124783664E+03
 0.41335762777E+03 0.38066647278E+03 0.29623208473E+03 0.19280458117E+03 0.10406406263E+03
 0.48851669664E+02 0.25577290218E+02 0.17440657518E+02 0.12416341084E+02 0.10037746121E+02
 0.90317634003E+01 0.83345735924E+01 0.78850747197E+01 0.78287105359E+01 0.78907721626E+01
 0.78287105359E+01 0.78850747197E+01 0.83345735924E+01 0.90317634003E+01 0.10037746121E+02
 0.12416341084E+02 0.17440657518E+02 0.25577290218E+02 0.48851669664E+02 0.10406406263E+03
 0.19280458117E+03 0.29623208473E+03 0.38066647278E+03 0.61680842716E+03 0.56981332495E+03
 0.44778733579E+03 0.29623208473E+03 0.16226695656E+03 0.73785376929E+02 0.32466459664E+02
 0.19454814927E+02 0.13195860877E+02 0.10153750300E+02 0.88592819549E+01 0.78850747197E+01
 0.72464526902E+01 0.72192115756E+01 0.73466706177E+01 0.72192115756E+01 0.72464526902E+01
 0.78850747197E+01 0.88592819549E+01 0.10153750300E+02 0.13195860877E+02 0.19454814927E+02
 0.32466459664E+02 0.73785376929E+02 0.16226695656E+03 0.29623208473E+03 0.44778733579E+03
 0.56981332495E+03 0.77948605251E+03 0.72126763538E+03 0.56981332495E+03 0.38066647278E+03
 0.21124783664E+03 0.96111035200E+02 0.39292410996E+02 0.20865476316E+02 0.13757073418E+02
 0.10276012156E+02 0.88634648697E+01 0.78287105359E+01 0.72192115756E+01 0.73616129098E+01
 0.75984209795E+01 0.73616129098E+01 0.72192115756E+01 0.78287105359E+01 0.88634648697E+01
 0.10276012156E+02 0.13757073418E+02 0.20865476316E+02 0.39292410996E+02 0.96111035200E+02
 0.21124783664E+03 0.38066647278E+03 0.56981332495E+03 0.72126763538E+03 0.77948605251E+03
 0.72126763538E+03 0.56981332495E+03 0.38066647278E+03 0.21124783664E+03 0.96111035200E+02
 0.39292410996E+02 0.20865476316E+02 0.13757073418E+02 0.10276012156E+02 0.88634648697E+01
 0.78287105359E+01 0.72192115756E+01 0.73616129098E+01 0.75984209795E+01 0.73616129098E+01
 0.72192115756E+01 0.78287105359E+01 0.88634648697E+01 0.10276012156E+02 0.13757073418E+02
 0.20865476316E+02 0.39292410996E+02 0.96111035200E+02 0.21124783664E+03 0.38066647278E+03
 0.56981332495E+03 0.72126763538E+03 0.72126763538E+03 0.66705581676E+03 0.52609706422E+03
 0.35033839478E+03 0.19354059808E+03 0.87924969107E+02 0.36718969424E+02 0.20359480303E+02
 0.13562004001E+02 0.10232102360E+02 0.88430522725E+01 0.77948200929E+01 0.71318710466E+01
 0.71778493819E+01 0.73616129098E+01 0.71778493819E+01 0.71318710466E+01 0.77948200929E+01
 0.88430522725E+01 0.10232102360E+02 0.13562004001E+02 0.20359480303E+02 0.36718969424E+02
 0.87924969107E+02 0.19354059808E+03 0.35033839478E+03 0.52609706422E+03 0.66705581676E+03
 0.56981332495E+03 0.52609706422E+03 0.41267331718E+03 0.27210735189E+03 0.14847473438E+03
 0.67672516619E+02 0.30676842974E+02 0.19004853333E+02 0.13024554475E+02 0.10131159910E+02
 0.88729631169E+01 0.79013374781E+01 0.72298474041E+01 0.71318710466E+01 0.72192115756E+01
 0.71318710466E+01 0.72298474041E+01 0.79013374781E+01 0.88729631169E+01 0.10131159910E+02
 0.13024554475E+02 0.19004853333E+02 0.30676842974E+02 0.67672516619E+02 0.14847473438E+03
 0.27210735189E+03 0.41267331718E+03 0.52609706422E+03 0.38066647278E+03 0.35033839478E+03
 0.27210735189E+03 0.17658943892E+03 0.95196174775E+02 0.45236327907E+02 0.24603938475E+02
 0.17045582762E+02 0.12276907316E+02 0.10030665503E+02 0.90638776147E+01 0.83736862436E+01
 0.79013374781E+01 0.77948200929E+01 0.78287105359E+01 0.77948200929E+01 0.79013374781E+01
 0.83736862436E+01 0.90638776147E+01 0.10030665503E+02 0.12276907316E+02 0.17045582762E+02
 0.24603938475E+02 0.45236327907E+02 0.95196174775E+02 0.17658943892E+03 0.27210735189E+03
 0.35033839478E+03 0.21124783664E+03 0.19354059808E+03 0.14847473438E+03 0.95196174775E+02
 0.52595345585E+02 0.29263733547E+02 0.20272664864E+02 0.14873012612E+02 0.11508563457E+02
 0.99890748798E+01 0.93940168267E+01 0.90638776147E+01 0.88729631169E+01 0.88430522725E+01
 0.88634648697E+01 0.88430522725E+01 0.88729631169E+01 0.90638776147E+01 0.93940168267E+01
 0.99890748798E+01 0.11508563457E+02 0.14873012612E+02 0.20272664864E+02 0.29263733547E+02
 0.52595345585E+02 0.95196174775E+02 0.14847473438E+03 0.19354059808E+03 0.96111035200E+02
 0.87924969107E+02 0.67672516619E+02 0.45236327907E+02 0.29263733547E+02 0.21416241355E+02
 0.16533573548E+02 0.12942479322E+02 0.10948145795E+02 0.10161515583E+02 0.99890748798E+01
 0.10030665503E+02 0.10131159910E+02 0.10232102360E+02 0.10276012156E+02 0.10232102360E+02
 0.10131159910E+02 0.10030665503E+02 0.99890748798E+01 0.10161515583E+02 0.10948145795E+02
 0.12942479322E+02 0.16533573548E+02 0.21416241355E+02 0.29263733547E+02 0.45236327907E+02
 0.67672516619E+02 0.87924969107E+02 0.39292410996E+02 0.36718969424E+02 0.30676842974E+02
 0.24603938475E+02 0.20272664864E+02 0.16533573548E+02 0.13512302985E+02 0.11633944932E+02
 0.10877018512E+02 0.10948145795E+02 0.11508563457E+02 0.12276907316E+02 0.13024554475E+02
 0.13562004001E+02 0.13757073418E+02 0.13562004001E+02 0.13024554475E+02 0.12276907316E+02
 0.11508563457E+02 0.10948145795E+02 0.10877018512E+02 0.11633944932E+02 0.13512302985E+02
 0.16533573548E+02 0.20272664864E+02 0.24603938475E+02 0.30676842974E+02 0.36718969424E+02
 0.20865476316E+02 0.20359480303E+02 0.19004853333E+02 0.17045582762E+02 0.14873012612E+02
 0.12942479322E+02 0.11633944932E+02 0.11174083952E+02 0.11633944932E+02 0.12942479322E+02
 0.14873012612E+02 0.17045582762E+02 0.19004853333E+02 0.20359480303E+02 0.20865476316E+02
 0.20359480303E+02 0.19004853333E+02 0.17045582762E+02 0.14873012612E+02 0.12942479322E+02
 0.11633944932E+02 0.11174083952E+02 0.11633944932E+02 0.12942479322E+02 0.14873012612E+02
 0.17045582762E+02 0.19004853333E+02 0.20359480303E+02 0.13757073418E+02 0.13562004001E+02
 0.13024554475E+02 0.12276907316E+02 0.11508563457E+02 0.10948145795E+02 0.10877018512E+02
 0.11633944932E+02 0.13512302985E+02 0.16533573548E+02 0.20272664864E+02 0.24603938475E+02
 0.30676842974E+02 0.36718969424E+02 0.39292410996E+02 0.36718969424E+02 0.30676842974E+02
 0.24603938475E+02 0.20272664864E+02 0.16533573548E+02 0.13512302985E+02 0.11633944932E+02
 0.10877018512E+02 0.10948145795E+02 0.11508563457E+02 0.12276907316E+02 0.13024554475E+02
 0.13562004001E+02 0.10276012156E+02 0.10232102360E+02 0.10131159910E+02 0.10030665503E+02
 0.99890748798E+01 0.10161515583E+02 0.10948145795E+02 0.12942479322E+02 0.16533573548E+02
 0.21416241355E+02 0.29263733547E+02 0.45236327907E+02 0.67672516619E+02 0.87924969107E+02
 0.96111035200E+02 0.87924969107E+02 0.67672516619E+02 0.45236327907E+02 0.29263733547E+02
 0.21416241355E+02 0.16533573548E+02 0.12942479322E+02 0.10948145795E+02 0.10161515583E+02
 0.99890748798E+01 0.10030665503E+02 0.10131159910E+02 0.10232102360E+02 0.88634648697E+01
 0.88430522725E+01 0.88729631169E+01 0.90638776147E+01 0.93940168267E+01 0.99890748798E+01
 0.11508563457E+02 0.14873012612E+02 0.20272664864E+02 0.29263733547E+02 0.52595345585E+02
 0.95196174775E+02 0.14847473438E+03 0.19354059808E+03 0.21124783664E+03 0.19354059808E+03
 0.14847473438E+03 0.95196174775E+02 0.52595345585E+02 0.29263733547E+02 0.20272664864E+02
 0.14873012612E+02 0.11508563457E+02 0.99890748798E+01 0.93940168267E+01 0.90638776147E+01
 0.88729631169E+01 0.88430522725E+01 0.78287105359E+01 0.77948200929E+01 0.79013374781E+01
 0.83736862436E+01 0.90638776147E+01 0.10030665503E+02 0.12276907316E+02 0.17045582762E+02
 0.24603938475E+02 0.45236327907E+02 0.95196174775E+02 0.17658943892E+03 0.27210735189E+03
 0.35033839478E+03 0.38066647278E+03 0.35033839478E+03 0.27210735189E+03 0.17658943892E+03
 0.95196174775E+02 0.45236327907E+02 0.24603938475E+02 0.17045582762E+02 0.12276907316E+02
 0.10030665503E+02 0.90638776147E+01 0.83736862436E+01 0.79013374781E+01 0.77948200929E+01
 0.72192115756E+01 0.71318710466E+01 0.72298474041E+01 0.79013374781E+01 0.88729631169E+01
 0.10131159910E+02 0.13024554475E+02 0.19004853333E+02 0.30676842974E+02 0.67672516619E+02
 0.14847473438E+03 0.27210735189E+03 0.41267331718E+03 0.52609706422E+03 0.56981332495E+03
 0.52609706422E+03 0.41267331718E+03 0.27210735189E+03 0.14847473438E+03 0.67672516619E+02
 0.30676842974E+02 0.19004853333E+02 0.13024554475E+02 0.10131159910E+02 0.88729631169E+01
 0.79013374781E+01 0.72298474041E+01 0.71318710466E+01 0.73616129098E+01 0.71778493819E+01
 0.71318710466E+01 0.77948200929E+01 0.88430522725E+01 0.10232102360E+02 0.13562004001E+02
 0.20359480303E+02 0.36718969424E+02 0.87924969107E+02 0.19354059808E+03 0.35033839478E+03
 0.52609706422E+03 0.66705581676E+03 0.72126763538E+03 0.66705581676E+03 0.52609706422E+03
 0.35033839478E+03 0.19354059808E+03 0.87924969107E+02 0.36718969424E+02 0.20359480303E+02
 0.13562004001E+02 0.10232102360E+02 0.88430522725E+01 0.77948200929E+01 0.71318710466E+01
 0.71778493819E+01 0.75984209795E+01 0.73616129098E+01 0.72192115756E+01 0.78287105359E+01
 0.88634648697E+01 0.10276012156E+02 0.13757073418E+02 0.20865476316E+02 0.39292410996E+02
 0.96111035200E+02 0.21124783664E+03 0.38066647278E+03 0.56981332495E+03 0.72126763538E+03
 0.77948605251E+03 0.72126763538E+03 0.56981332495E+03 0.38066647278E+03 0.21124783664E+03
 0.96111035200E+02 0.39292410996E+02 0.20865476316E+02 0.13757073418E+02 0.10276012156E+02
 0.88634648697E+01 0.78287105359E+01 0.72192115756E+01 0.73616129098E+01 0.73616129098E+01
 0.71778493819E+01 0.71318710466E+01 0.77948200929E+01 0.88430522725E+01 0.10232102360E+02
 0.13562004001E+02 0.20359480303E+02 0.36718969424E+02 0.87924969107E+02 0.19354059808E+03
 0.35033839478E+03 0.52609706422E+03 0.66705581676E+03 0.72126763538E+03 0.66705581676E+03
 0.52609706422E+03 0.35033839478E+03 0.19354059808E+03 0.87924969107E+02 0.36718969424E+02
 0.20359480303E+02 0.13562004001E+02 0.10232102360E+02 0.88430522725E+01 0.77948200929E+01
 0.71318710466E+01 0.71778493819E+01 0.72192115756E+01 0.71318710466E+01 0.72298474041E+01
 0.79013374781E+01 0.88729631169E+01 0.10131159910E+02 0.13024554475E+02 0.19004853333E+02
 0.30676842974E+02 0.67672516619E+02 0.14847473438E+03 0.27210735189E+03 0.41267331718E+03
 0.52609706422E+03 0.56981332495E+03 0.52609706422E+03 0.41267331718E+03 0.27210735189E+03
 0.14847473438E+03 0.67672516619E+02 0.30676842974E+02 0.19004853333E+02 0.13024554475E+02
 0.10131159910E+02 0.88729631169E+01 0.79013374781E+01 0.72298474041E+01 0.71318710466E+01
 0.78287105359E+01 0.77948200929E+01 0.79013374781E+01 0.83736862436E+01 0.90638776147E+01
 0.10030665503E+02 0.12276907316E+02 0.17045582762E+02 0.24603938475E+02 0.45236327907E+02
 0.95196174775E+02 0.17658943892E+03 0.27210735189E+03 0.35033839478E+03 0.38066647278E+03
 0.35033839478E+03 0.27210735189E+03 0.17658943892E+03 0.95196174775E+02 0.45236327907E+02
 0.24603938475E+02 0.17045582762E+02 0.12276907316E+02 0.10030665503E+02 0.90638776147E+01
 0.83736862436E+01 0.79013374781E+01 0.77948200929E+01 0.88634648697E+01 0.88430522725E+01
 0.88729631169E+01 0.90638776147E+01 0.93940168267E+01 0.99890748798E+01 0.11508563457E+02
 0.14873012612E+02 0.20272664864E+02 0.29263733547E+02 0.52595345585E+02 0.95196174775E+02
 0.14847473438E+03 0.19354059808E+03 0.21124783664E+03 0.19354059808E+03 0.14847473438E+03
 0.95196174775E+02 0.52595345585E+02 0.29263733547E+02 0.20272664864E+02 0.14873012612E+02
 0.11508563457E+02 0.99890748798E+01 0.93940168267E+01 0.90638776147E+01 0.88729631169E+01
 0.88430522725E+01 0.10276012156E+02 0.10232102360E+02 0.10131159910E+02 0.10030665503E+02
 0.99890748798E+01 0.10161515583E+02 0.10948145795E+02 0.12942479322E+02 0.16533573548E+02
 0.21416241355E+02 0.29263733547E+02 0.45236327907E+02 0.67672516619E+02 0.87924969107E+02
 0.96111035200E+02 0.87924969107E+02 0.67672516619E+02 0.45236327907E+02 0.29263733547E+02
 0.21416241355E+02 0.16533573548E+02 0.12942479322E+02 0.10948145795E+02 0.10161515583E+02
 0.99890748798E+01 0.10030665503E+02 0.10131159910E+02 0.10232102360E+02 0.13757073418E+02
 0.13562004001E+02 0.13024554475E+02 0.12276907316E+02 0.11508563457E+02 0.10948145795E+02
 0.10877018512E+02 0.11633944932E+02 0.13512302985E+02 0.16533573548E+02 0.20272664864E+02
 0.24603938475E+02 0.30676842974E+02 0.36718969424E+02 0.39292410996E+02 0.36718969424E+02
 0.30676842974E+02 0.24603938475E+02 0.20272664864E+02 0.16533573548E+02 0.13512302985E+02
 0.11633944932E+02 0.10877018512E+02 0.10948145795E+02 0.11508563457E+02 0.12276907316E+02
 0.13024554475E+02 0.13562004001E+02 0.20865476316E+02 0.20359480303E+02 0.19004853333E+02
 0.17045582762E+02 0.14873012612E+02 0.12942479322E+02 0.11633944932E+02 0.11174083952E+02
 0.11633944932E+02 0.12942479322E+02 0.14873012612E+02 0.17045582762E+02 0.19004853333E+02
 0.20359480303E+02 0.20865476316E+02 0.20359480303E+02 0.19004853333E+02 0.17045582762E+02
 0.14873012612E+02 0.12942479322E+02 0.11633944932E+02 0.11174083952E+02 0.11633944932E+02
 0.12942479322E+02 0.14873012612E+02 0.17045582762E+02 0.19004853333E+02 0.20359480303E+02
 0.39292410996E+02 0.36718969424E+02 0.30676842974E+02 0.24603938475E+02 0.20272664864E+02
 0.16533573548E+02 0.13512302985E+02 0.11633944932E+02 0.10877018512E+02 0.10948145795E+02
 0.11508563457E+02 0.12276907316E+02 0.13024554475E+02 0.13562004001E+02 0.13757073418E+02
 0.13562004001E+02 0.13024554475E+02 0.12276907316E+02 0.11508563457E+02 0.10948145795E+02
 0.10877018512E+02 0.11633944932E+02 0.13512302985E+02 0.16533573548E+02 0.20272664864E+02
 0.24603938475E+02 0.30676842974E+02 0.36718969424E+02 0.96111035200E+02 0.87924969107E+02
 0.67672516619E+02 0.45236327907E+02 0.29263733547E+02 0.21416241355E+02 0.16533573548E+02
 0.12942479322E+02 0.10948145795E+02 0.10161515583E+02 0.99890748798E+01 0.10030665503E+02
 0.10131159910E+02 0.10232102360E+02 0.10276012156E+02 0.10232102360E+02 0.10131159910E+02
 0.10030665503E+02 0.99890748798E+01 0.10161515583E+02 0.10948145795E+02 0.12942479322E+02
 0.16533573548E+02 0.21416241355E+02 0.29263733547E+02 0.45236327907E+02 0.67672516619E+02
 0.87924969107E+02 0.21124783664E+03 0.19354059808E+03 0.14847473438E+03 0.95196174775E+02
 0.52595345585E+02 0.29263733547E+02 0.20272664864E+02 0.14873012612E+02 0.11508563457E+02
 0.99890748798E+01 0.93940168267E+01 0.90638776147E+01 0.88729631169E+01 0.88430522725E+01
 0.88634648697E+01 0.88430522725E+01 0.88729631169E+01 0.90638776147E+01 0.93940168267E+01
 0.99890748798E+01 0.11508563457E+02 0.14873012612E+02 0.20272664864E+02 0.29263733547E+02
 0.52595345585E+02 0.95196174775E+02 0.14847473438E+03 0.19354059808E+03 0.38066647278E+03
 0.35033839478E+03 0.27210735189E+03 0.17658943892E+03 0.95196174775E+02 0.45236327907E+02
 0.24603938475E+02 0.17045582762E+02 0.12276907316E+02 0.10030665503E+02 0.90638776147E+01
 0.83736862436E+01 0.79013374781E+01 0.77948200929E+01 0.78287105359E+01 0.77948200929E+01
 0.79013374781E+01 0.83736862436E+01 0.90638776147E+01 0.10030665503E+02 0.12276907316E+02
 0.17045582762E+02 0.24603938475E+02 0.45236327907E+02 0.95196174775E+02 0.17658943892E+03
 0.27210735189E+03 0.35033839478E+03 0.56981332495E+03 0.52609706422E+03 0.41267331718E+03
 0.27210735189E+03 0.14847473438E+03 0.67672516619E+02 0.30676842974E+02 0.19004853333E+02
 0.13024554475E+02 0.10131159910E+02 0.88729631169E+01 0.79013374781E+01 0.72298474041E+01
 0.71318710466E+01 0.72192115756E+01 0.71318710466E+01 0.72298474041E+01 0.79013374781E+01
 0.88729631169E+01 0.10131159910E+02 0.13024554475E+02 0.19004853333E+02 0.30676842974E+02
 0.67672516619E+02 0.14847473438E+03 0.27210735189E+03 0.41267331718E+03 0.52609706422E+03
 0.72126763538E+03 0.66705581676E+03 0.52609706422E+03 0.35033839478E+03 0.19354059808E+03
 0.87924969107E+02 0.36718969424E+02 0.20359480303E+02 0.13562004001E+02 0.10232102360E+02
 0.88430522725E+01 0.77948200929E+01 0.71318710466E+01 0.71778493819E+01 0.73616129098E+01
 0.71778493819E+01 0.71318710466E+01 0.77948200929E+01 0.88430522725E+01 0.10232102360E+02
 0.13562004001E+02 0.20359480303E+02 0.36718969424E+02 0.87924969107E+02 0.19354059808E+03
 0.35033839478E+03 0.52609706422E+03 0.66705581676E+03 0.61680842716E+03 0.56981332495E+03
 0.44778733579E+03 0.29623208473E+03 0.16226695656E+03 0.73785376929E+02 0.32466459664E+02
 0.19454814927E+02 0.13195860877E+02 0.10153750300E+02 0.88592819549E+01 0.78850747197E+01
 0.72464526902E+01 0.72192115756E+01 0.73466706177E+01 0.72192115756E+01 0.72464526902E+01
 0.78850747197E+01 0.88592819549E+01 0.10153750300E+02 0.13195860877E+02 0.19454814927E+02
 0.32466459664E+02 0.73785376929E+02 0.16226695656E+03 0.29623208473E+03 0.44778733579E+03
 0.56981332495E+03 0.56981332495E+03 0.52609706422E+03 0.41267331718E+03 0.27210735189E+03
 0.14847473438E+03 0.67672516619E+02 0.30676842974E+02 0.19004853333E+02 0.13024554475E+02
 0.10131159910E+02 0.88729631169E+01 0.79013374781E+01 0.72298474041E+01 0.71318710466E+01
 0.72192115756E+01 0.71318710466E+01 0.72298474041E+01 0.79013374781E+01 0.88729631169E+01
 0.10131159910E+02 0.13024554475E+02 0.19004853333E+02 0.30676842974E+02 0.67672516619E+02
 0.14847473438E+03 0.27210735189E+03 0.41267331718E+03 0.52609706422E+03 0.44778733579E+03