unknown system                          
   1.00000000000000     
     3.445083    0.000000    0.000000
     0.000000    3.445083    0.000000
     0.000000    0.000000    3.445083
   Fe
     4
Direct
  0.000000  0.000000  0.000000
  0.500000  0.500000  0.000000
  0.500000  0.000000  0.500000
  0.000000  0.500000  0.500000
 
   24   24   24
  338.44      312.10      244.53      162.41      91.667      45.689      23.726      15.920      11.986      10.356    
  9.7328      8.9659      8.5167      8.9659      9.7328      10.356      11.986      15.920      23.726      45.689    
  91.667      162.41      244.53      312.10      312.10      287.81      225.48      149.75      84.641      42.612    
  22.818      15.736      11.992      10.498      9.9860      9.3488      8.9659      9.3488      9.9860      10.498    
  11.992      15.736      22.818      42.612      84.641      149.75      225.48      287.81      244.53      225.48    
  176.60      117.34      66.832      35.008      20.665      15.194      11.955      10.736      10.392      9.9860    
  9.7328      9.9860      10.392      10.736      11.955      15.194      20.665      35.008      66.832      117.34    
  176.60      225.48      162.41      149.75      117.34      78.383      45.962      26.584      18.392      14.404    
  11.911      10.989      10.736      10.498      10.356      10.498      10.736      10.989      11.911      14.404    
  18.392      26.584      45.962      78.383      117.34      149.75      91.667      84.641      66.832      45.962    
  29.500      20.508      16.474      13.715      12.278      11.911      11.955      11.992      11.986      11.992    
  11.955      11.911      12.278      13.715      16.474      20.508      29.500      45.962      66.832      84.641    
  45.689      42.612      35.008      26.584      20.508      17.171      14.871      13.705      13.715      14.404    
  15.194      15.736      15.920      15.736      15.194      14.404      13.715      13.705      14.871      17.171    
  20.508      26.584      35.008      42.612      23.726      22.818      20.665      18.392      16.474      14.871    
  14.229      14.871      16.474      18.392      20.665      22.818      23.726      22.818      20.665      18.392    
  16.474      14.871      14.229      14.871      16.474      18.392      20.665      22.818      15.920      15.736    
  15.194      14.404      13.715      13.705      14.871      17.171      20.508      26.584      35.008      42.612    
  45.689      42.612      35.008      26.584      20.508      17.171      14.871      13.705      13.715      14.404    
  15.194      15.736      11.986      11.992      11.955      11.911      12.278      13.715      16.474      20.508    
  29.500      45.962      66.832      84.641      91.667      84.641      66.832      45.962      29.500      20.508    
  16.474      13.715      12.278      11.911      11.955      11.992      10.356      10.498      10.736      10.989    
  11.911      14.404      18.392      26.584      45.962      78.383      117.34      149.75      162.41      149.75    
  117.34      78.383      45.962      26.584      18.392      14.404      11.911      10.989      10.736      10.498    
  9.7328      9.9860      10.392      10.736      11.955      15.194      20.665      35.008      66.832      117.34    
  176.60      225.48      244.53      225.48      176.60      117.34      66.832      35.008      20.665      15.194    
  11.955      10.736      10.392      9.9860      8.9659      9.3488      9.9860      10.498      11.992      15.736    
  22.818      42.612      84.641      149.75      225.48      287.81      312.10      287.81      225.48      149.75    
  84.641      42.612      22.818      15.736      11.992      10.498      9.9860      9.3488      8.5167      8.9659    
  9.7328      10.356      11.986      15.920      23.726      45.689      91.667      162.41      244.53      312.10    
  338.44      312.10      244.53      162.41      91.667      45.689      23.726      15.920      11.986      10.356    
  9.7328      8.9659      8.9659      9.3488      9.9860      10.498      11.992      15.736      22.818      42.612    
  84.641      149.75      225.48      287.81      312.10      287.81      225.48      149.75      84.641      42.612    
  22.818      15.736      11.992      10.498      9.9860      9.3488      9.7328      9.9860      10.392      10.736    
  11.955      15.194      20.665      35.008      66.832      117.34      176.60      225.48      244.53      225.48    
  176.60      117.34      66.832      35.008      20.665      15.194      11.955      10.736      10.392      9.9860    
  10.356      10.498      10.736      10.989      11.911      14.404      18.392      26.584      45.962      78.383    
  117.34      149.75      162.41      149.75      117.34      78.383      45.962      26.584      18.392      14.404    
  11.911      10.989      10.736      10.498      11.986      11.992      11.955      11.911      12.278      13.715    
  16.474      20.508      29.500      45.962      66.832      84.641      91.667      84.641      66.832      45.962    
  29.500      20.508      16.474      13.715      12.278      11.911      11.955      11.992      15.920      15.736    
  15.194      14.404      13.715      13.705      14.871      17.171      20.508      26.584      35.008      42.612    
  45.689      42.612      35.008      26.584      20.508      17.171      14.871      13.705      13.715      14.404    
  15.194      15.736      23.726      22.818      20.665      18.392      16.474      14.871      14.229      14.871    
  16.474      18.392      20.665      22.818      23.726      22.818      20.665      18.392      16.474      14.871    
  14.229      14.871      16.474      18.392      20.665      22.818      45.689      42.612      35.008      26.584    
  20.508      17.171      14.871      13.705      13.715      14.404      15.194      15.736      15.920      15.736    
  15.194      14.404      13.715      13.705      14.871      17.171      20.508      26.584      35.008      42.612    
  91.667      84.641      66.832      45.962      29.500      20.508      16.474      13.715      12.278      11.911    
  11.955      11.992      11.986      11.992      11.955      11.911      12.278      13.715      16.474      20.508    
  29.500      45.962      66.832      84.641      162.41      149.75      117.34      78.383      45.962      26.584    
  18.392      14.404      11.911      10.989      10.736      10.498      10.356      10.498      10.736      10.989    
  11.911      14.404      18.392      26.584      45.962      78.383      117.34      149.75      244.53      225.48    
  176.60      117.34      66.832      35.008      20.665      15.194      11.955      10.736      10.392      9.9860    
  9.7328      9.9860      10.392      10.736      11.955      15.194      20.665      35.008      66.832      117.34    
  176.60      225.48      312.10      287.81      225.48      149.75      84.641      42.612      22.818      15.736    
  11.992      10.498      9.9860      9.3488      8.9659      9.3488      9.9860      10.498      11.992      15.736    
  22.818      42.612      84.641      149.75      225.48      287.81      312.10      287.81      225.48      149.75    
  84.641      42.612      22.818      15.736      11.992      10.498      9.9860      9.3488      8.9659      9.3488    
  9.9860      10.498      11.992      15.736      22.818      42.612      84.641      149.75      225.48      287.81    
  287.81      265.40      207.89      138.06      78.178      39.818      22.014      15.555      11.992      10.618    
  10.199      9.6735      9.3488      9.6735      10.199      10.618      11.992      15.555      22.014      39.818    
  78.178      138.06      207.89      265.40      225.48      207.89      162.78      108.17      61.842      32.942    
  20.109      15.028      11.947      10.814      10.529      10.199      9.9860      10.199      10.529      10.814    
  11.947      15.028      20.109      32.942      61.842      108.17      162.78      207.89      149.75      138.06    
  108.17      72.383      42.824      25.394      18.078      14.269      11.900      11.034      10.814      10.618    
  10.498      10.618      10.814      11.034      11.900      14.269      18.078      25.394      42.824      72.383    
  108.17      138.06      84.641      78.178      61.842      42.824      27.994      20.002      16.258      13.615    
  12.249      11.900      11.947      11.992      11.992      11.992      11.947      11.900      12.249      13.615    
  16.258      20.002      27.994      42.824      61.842      78.178      42.612      39.818      32.942      25.394    
  20.002      16.935      14.723      13.608      13.615      14.269      15.028      15.555      15.736      15.555    
  15.028      14.269      13.615      13.608      14.723      16.935      20.002      25.394      32.942      39.818    
  22.818      22.014      20.109      18.078      16.258      14.723      14.111      14.723      16.258      18.078    
  20.109      22.014      22.818      22.014      20.109      18.078      16.258      14.723      14.111      14.723    
  16.258      18.078      20.109      22.014      15.736      15.555      15.028      14.269      13.615      13.608    
  14.723      16.935      20.002      25.394      32.942      39.818      42.612      39.818      32.942      25.394    
  20.002      16.935      14.723      13.608      13.615      14.269      15.028      15.555      11.992      11.992    
  11.947      11.900      12.249      13.615      16.258      20.002      27.994      42.824      61.842      78.178    
  84.641      78.178      61.842      42.824      27.994      20.002      16.258      13.615      12.249      11.900    
  11.947      11.992      10.498      10.618      10.814      11.034      11.900      14.269      18.078      25.394    
  42.824      72.383      108.17      138.06      149.75      138.06      108.17      72.383      42.824      25.394    
  18.078      14.269      11.900      11.034      10.814      10.618      9.9860      10.199      10.529      10.814    
  11.947      15.028      20.109      32.942      61.842      108.17      162.78      207.89      225.48      207.89    
  162.78      108.17      61.842      32.942      20.109      15.028      11.947      10.814      10.529      10.199    
  9.3488      9.6735      10.199      10.618      11.992      15.555      22.014      39.818      78.178      138.06    
  207.89      265.40      287.81      265.40      207.89      138.06      78.178      39.818      22.014      15.555    
  11.992      10.618      10.199      9.6735      8.9659      9.3488      9.9860      10.498      11.992      15.736    
  22.818      42.612      84.641      149.75      225.48      287.81      312.10      287.81      225.48      149.75    
  84.641      42.612      22.818      15.736      11.992      10.498      9.9860      9.3488      9.3488      9.6735    
  10.199      10.618      11.992      15.555      22.014      39.818      78.178      138.06      207.89      265.40    
  287.81      265.40      207.89      138.06      78.178      39.818      22.014      15.555      11.992      10.618    
  10.199      9.6735      9.9860      10.199      10.529      10.814      11.947      15.028      20.109      32.942    
  61.842      108.17      162.78      207.89      225.48      207.89      162.78      108.17      61.842      32.942    
  20.109      15.028      11.947      10.814      10.529      10.199      10.498      10.618      10.814      11.034    
  11.900      14.269      18.078      25.394      42.824      72.383      108.17      138.06      149.75      138.06    
  108.17      72.383      42.824      25.394      18.078      14.269      11.900      11.034      10.814      10.618    
  11.992      11.992      11.947      11.900      12.249      13.615      16.258      20.002      27.994      42.824    
  61.842      78.178      84.641      78.178      61.842      42.824      27.994      20.002      16.258      13.615    
  12.249      11.900      11.947      11.992      15.736      15.555      15.028      14.269      13.615      13.608    
  14.723      16.935      20.002      25.394      32.942      39.818      42.612      39.818      32.942      25.394    
  20.002      16.935      14.723      13.608      13.615      14.269      15.028      15.555      22.818      22.014    
  20.109      18.078      16.258      14.723      14.111      14.723      16.258      18.078      20.109      22.014    
  22.818      22.014      20.109      18.078      16.258      14.723      14.111      14.723      16.258      18.078    
  20.109      22.014      42.612      39.818      32.942      25.394      20.002      16.935      14.723      13.608    
  13.615      14.269      15.028      15.555      15.736      15.555      15.028      14.269      13.615      13.608    
  14.723      16.935      20.002      25.394      32.942      39.818      84.641      78.178      61.842      42.824    
  27.994      20.002      16.258      13.615      12.249      11.900      11.947      11.992      11.992      11.992    
  11.947      11.900      12.249      13.615      16.258      20.002      27.994      42.824      61.842      78.178    
  149.75      138.06      108.17      72.383      42.824      25.394      18.078      14.269      11.900      11.034    
  10.814      10.618      10.498      10.618      10.814      11.034      11.900      14.269      18.078      25.394    
  42.824      72.383      108.17      138.06      225.48      207.89      162.78      108.17      61.842      32.942    
  20.109      15.028      11.947      10.814      10.529      10.199      9.9860      10.199      10.529      10.814    
  11.947      15.028      20.109      32.942      61.842      108.17      162.78      207.89      287.81      265.40    
  207.89      138.06      78.178      39.818      22.014      15.555      11.992      10.618      10.199      9.6735    
  9.3488      9.6735      10.199      10.618      11.992      15.555      22.014      39.818      78.178      138.06    
  207.89      265.40      244.53      225.48      176.60      117.34      66.832      35.008      20.665      15.194    
  11.955      10.736      10.392      9.9860      9.7328      9.9860      10.392      10.736      11.955      15.194    
  20.665      35.008      66.832      117.34      176.60      225.48      225.48      207.89      162.78      108.17    
  61.842      32.942      20.109      15.028      11.947      10.814      10.529      10.199      9.9860      10.199    
  10.529      10.814      11.947      15.028      20.109      32.942      61.842      108.17      162.78      207.89    
  176.60      162.78      127.40      84.863      49.351      27.928      18.783      14.554      11.896      10.942    
  10.735      10.529      10.392      10.529      10.735      10.942      11.896      14.554      18.783      27.928    
  49.351      84.863      127.40      162.78      117.34      108.17      84.863      57.305      35.114      22.571    
  17.261      13.890      11.856      11.118      10.942      10.814      10.736      10.814      10.942      11.118    
  11.856      13.890      17.261      22.571      35.114      57.305      84.863      108.17      66.832      61.842    
  49.351      35.114      24.409      18.796      15.652      13.333      12.160      11.856      11.896      11.947    
  11.955      11.947      11.896      11.856      12.160      13.333      15.652      18.796      24.409      35.114    
  49.351      61.842      35.008      32.942      27.928      22.571      18.796      16.274      14.313      13.339    
  13.333      13.890      14.554      15.028      15.194      15.028      14.554      13.890      13.333      13.339    
  14.313      16.274      18.796      22.571      27.928      32.942      20.665      20.109      18.783      17.261    
  15.652      14.313      13.788      14.313      15.652      17.261      18.783      20.109      20.665      20.109    
  18.783      17.261      15.652      14.313      13.788      14.313      15.652      17.261      18.783      20.109    
  15.194      15.028      14.554      13.890      13.333      13.339      14.313      16.274      18.796      22.571    
  27.928      32.942      35.008      32.942      27.928      22.571      18.796      16.274      14.313      13.339    
  13.333      13.890      14.554      15.028      11.955      11.947      11.896      11.856      12.160      13.333    
  15.652      18.796      24.409      35.114      49.351      61.842      66.832      61.842      49.351      35.114    
  24.409      18.796      15.652      13.333      12.160      11.856      11.896      11.947      10.736      10.814    
  10.942      11.118      11.856      13.890      17.261      22.571      35.114      57.305      84.863      108.17    
  117.34      108.17      84.863      57.305      35.114      22.571      17.261      13.890      11.856      11.118    
  10.942      10.814      10.392      10.529      10.735      10.942      11.896      14.554      18.783      27.928    
  49.351      84.863      127.40      162.78      176.60      162.78      127.40      84.863      49.351      27.928    
  18.783      14.554      11.896      10.942      10.735      10.529      9.9860      10.199      10.529      10.814    
  11.947      15.028      20.109      32.942      61.842      108.17      162.78      207.89      225.48      207.89    
  162.78      108.17      61.842      32.942      20.109      15.028      11.947      10.814      10.529      10.199    
  9.7328      9.9860      10.392      10.736      11.955      15.194      20.665      35.008      66.832      117.34    
  176.60      225.48      244.53      225.48      176.60      117.34      66.832      35.008      20.665      15.194    
  11.955      10.736      10.392      9.9860      9.9860      10.199      10.529      10.814      11.947      15.028    
  20.109      32.942      61.842      108.17      162.78      207.89      225.48      207.89      162.78      108.17    
  61.842      32.942      20.109      15.028      11.947      10.814      10.529      10.199      10.392      10.529    
  10.735      10.942      11.896      14.554      18.783      27.928      49.351      84.863      127.40      162.78    
  176.60      162.78      127.40      84.863      49.351      27.928      18.783      14.554      11.896      10.942    
  10.735      10.529      10.736      10.814      10.942      11.118      11.856      13.890      17.261      22.571    
  35.114      57.305      84.863      108.17      117.34      108.17      84.863      57.305      35.114      22.571    
  17.261      13.890      11.856      11.118      10.942      10.814      11.955      11.947      11.896      11.856    
  12.160      13.333      15.652      18.796      24.409      35.114      49.351      61.842      66.832      61.842    
  49.351      35.114      24.409      18.796      15.652      13.333      12.160      11.856      11.896      11.947    
  15.194      15.028      14.554      13.890      13.333      13.339      14.313      16.274      18.796      22.571    
  27.928      32.942      35.008      32.942      27.928      22.571      18.796      16.274      14.313      13.339    
  13.333      13.890      14.554      15.028      20.665      20.109      18.783      17.261      15.652      14.313    
  13.788      14.313      15.652      17.261      18.783      20.109      20.665      20.109      18.783      17.261    
  15.652      14.313      13.788      14.313      15.652      17.261      18.783      20.109      35.008      32.942    
  27.928      22.571      18.796      16.274      14.313      13.339      13.333      13.890      14.554      15.028    
  15.194      15.028      14.554      13.890      13.333      13.339      14.313      16.274      18.796      22.571    
  27.928      32.942      66.832      61.842      49.351      35.114      24.409      18.796      15.652      13.333    
  12.160      11.856      11.896      11.947      11.955      11.947      11.896      11.856      12.160      13.333    
  15.652      18.796      24.409      35.114      49.351      61.842      117.34      108.17      84.863      57.305    
  35.114      22.571      17.261      13.890      11.856      11.118      10.942      10.814      10.736      10.814    
  10.942      11.118      11.856      13.890      17.261      22.571      35.114      57.305      84.863      108.17    
  176.60      162.78      127.40      84.863      49.351      27.928      18.783      14.554      11.896      10.942    
  10.735      10.529      10.392      10.529      10.735      10.942      11.896      14.554      18.783      27.928    
  49.351      84.863      127.40      162.78      225.48      207.89      162.78      108.17      61.842      32.942    
  20.109      15.028      11.947      10.814      10.529      10.199      9.9860      10.199      10.529      10.814    
  11.947      15.028      20.109      32.942      61.842      108.17      162.78      207.89      162.41      149.75    
  117.34      78.383      45.962      26.584      18.392      14.404      11.911      10.989      10.736      10.498    
  10.356      10.498      10.736      10.989      11.911      14.404      18.392      26.584      45.962      78.383    
  117.34      149.75      149.75      138.06      108.17      72.383      42.824      25.394      18.078      14.269    
  11.900      11.034      10.814      10.618      10.498      10.618      10.814      11.034      11.900      14.269    
  18.078      25.394      42.824      72.383      108.17      138.06      117.34      108.17      84.863      57.305    
  35.114      22.571      17.261      13.890      11.856      11.118      10.942      10.814      10.736      10.814    
  10.942      11.118      11.856      13.890      17.261      22.571      35.114      57.305      84.863      108.17    
  78.383      72.383      57.305      39.958      26.682      19.642      16.088      13.372      11.828      11.262    
  11.118      11.034      10.989      11.034      11.118      11.262      11.828      13.372      16.088      19.642    
  26.682      39.958      57.305      72.383      45.962      42.824      35.114      26.682      20.699      17.375    
  14.782      12.949      12.057      11.828      11.856      11.900      11.911      11.900      11.856      11.828    
  12.057      12.949      14.782      17.375      20.699      26.682      35.114      42.824      26.584      25.394    
  22.571      19.642      17.375      15.318      13.742      12.969      12.949      13.372      13.890      14.269    
  14.404      14.269      13.890      13.372      12.949      12.969      13.742      15.318      17.375      19.642    
  22.571      25.394      18.392      18.078      17.261      16.088      14.782      13.742      13.343      13.742    
  14.782      16.088      17.261      18.078      18.392      18.078      17.261      16.088      14.782      13.742    
  13.343      13.742      14.782      16.088      17.261      18.078      14.404      14.269      13.890      13.372    
  12.949      12.969      13.742      15.318      17.375      19.642      22.571      25.394      26.584      25.394    
  22.571      19.642      17.375      15.318      13.742      12.969      12.949      13.372      13.890      14.269    
  11.911      11.900      11.856      11.828      12.057      12.949      14.782      17.375      20.699      26.682    
  35.114      42.824      45.962      42.824      35.114      26.682      20.699      17.375      14.782      12.949    
  12.057      11.828      11.856      11.900      10.989      11.034      11.118      11.262      11.828      13.372    
  16.088      19.642      26.682      39.958      57.305      72.383      78.383      72.383      57.305      39.958    
  26.682      19.642      16.088      13.372      11.828      11.262      11.118      11.034      10.736      10.814    
  10.942      11.118      11.856      13.890      17.261      22.571      35.114      57.305      84.863      108.17    
  117.34      108.17      84.863      57.305      35.114      22.571      17.261      13.890      11.856      11.118    
  10.942      10.814      10.498      10.618      10.814      11.034      11.900      14.269      18.078      25.394    
  42.824      72.383      108.17      138.06      149.75      138.06      108.17      72.383      42.824      25.394    
  18.078      14.269      11.900      11.034      10.814      10.618      10.356      10.498      10.736      10.989    
  11.911      14.404      18.392      26.584      45.962      78.383      117.34      149.75      162.41      149.75    
  117.34      78.383      45.962      26.584      18.392      14.404      11.911      10.989      10.736      10.498    
  10.498      10.618      10.814      11.034      11.900      14.269      18.078      25.394      42.824      72.383    
  108.17      138.06      149.75      138.06      108.17      72.383      42.824      25.394      18.078      14.269    
  11.900      11.034      10.814      10.618      10.736      10.814      10.942      11.118      11.856      13.890    
  17.261      22.571      35.114      57.305      84.863      108.17      117.34      108.17      84.863      57.305    
  35.114      22.571      17.261      13.890      11.856      11.118      10.942      10.814      10.989      11.034    
  11.118      11.262      11.828      13.372      16.088      19.642      26.682      39.958      57.305      72.383    
  78.383      72.383      57.305      39.958      26.682      19.642      16.088      13.372      11.828      11.262    
  11.118      11.034      11.911      11.900      11.856      11.828      12.057      12.949      14.782      17.375    
  20.699      26.682      35.114      42.824      45.962      42.824      35.114      26.682      20.699      17.375    
  14.782      12.949      12.057      11.828      11.856      11.900      14.404      14.269      13.890      13.372    
  12.949      12.969      13.742      15.318      17.375      19.642      22.571      25.394      26.584      25.394    
  22.571      19.642      17.375      15.318      13.742      12.969      12.949      13.372      13.890      14.269    
  18.392      18.078      17.261      16.088      14.782      13.742      13.343      13.742      14.782      16.088    
  17.261      18.078      18.392      18.078      17.261      16.088      14.782      13.742      13.343      13.742    
  14.782      16.088      17.261      18.078      26.584      25.394      22.571      19.642      17.375      15.318    
  13.742      12.969      12.949      13.372      13.890      14.269      14.404      14.269      13.890      13.372    
  12.949      12.969      13.742      15.318      17.375      19.642      22.571      25.394      45.962      42.824    
  35.114      26.682      20.699      17.375      14.782      12.949      12.057      11.828      11.856      11.900    
  11.911      11.900      11.856      11.828      12.057      12.949      14.782      17.375      20.699      26.682    
  35.114      42.824      78.383      72.383      57.305      39.958      26.682      19.642      16.088      13.372    
  11.828      11.262      11.118      11.034      10.989      11.034      11.118      11.262      11.828      13.372    
  16.088      19.642      26.682      39.958      57.305      72.383      117.34      108.17      84.863      57.305    
  35.114      22.571      17.261      13.890      11.856      11.118      10.942      10.814      10.736      10.814    
  10.942      11.118      11.856      13.890      17.261      22.571      35.114      57.305      84.863      108.17    
  149.75      138.06      108.17      72.383      42.824      25.394      18.078      14.269      11.900      11.034    
  10.814      10.618      10.498      10.618      10.814      11.034      11.900      14.269      18.078      25.394    
  42.824      72.383      108.17      138.06      91.667      84.641      66.832      45.962      29.500      20.508    
  16.474      13.715      12.278      11.911      11.955      11.992      11.986      11.992      11.955      11.911    
  12.278      13.715      16.474      20.508      29.500      45.962      66.832      84.641      84.641      78.178    
  61.842      42.824      27.994      20.002      16.258      13.615      12.249      11.900      11.947      11.992    
  11.992      11.992      11.947      11.900      12.249      13.615      16.258      20.002      27.994      42.824    
  61.842      78.178      66.832      61.842      49.351      35.114      24.409      18.796      15.652      13.333    
  12.160      11.856      11.896      11.947      11.955      11.947      11.896      11.856      12.160      13.333    
  15.652      18.796      24.409      35.114      49.351      61.842      45.962      42.824      35.114      26.682    
  20.699      17.375      14.782      12.949      12.057      11.828      11.856      11.900      11.911      11.900    
  11.856      11.828      12.057      12.949      14.782      17.375      20.699      26.682      35.114      42.824    
  29.500      27.994      24.409      20.699      18.026      15.781      13.862      12.634      12.116      12.057    
  12.160      12.249      12.278      12.249      12.160      12.057      12.116      12.634      13.862      15.781    
  18.026      20.699      24.409      27.994      20.508      20.002      18.796      17.375      15.781      14.265    
  13.158      12.632      12.634      12.949      13.333      13.615      13.715      13.615      13.333      12.949    
  12.634      12.632      13.158      14.265      15.781      17.375      18.796      20.002      16.474      16.258    