unknown system                          
   1.00000000000000     
     3.445083    0.000000    0.000000
     0.000000    3.445083    0.000000
     0.000000    0.000000    3.445083
   Fe
     4
Direct
  0.000000  0.000000  0.000000
  0.500000  0.500000  0.000000
  0.500000  0.000000  0.500000
  0.000000  0.500000  0.500000
 
   24   24   24
 0.33844087538E+03 0.31210025230E+03 0.24452561071E+03 0.16241425062E+03 0.91667268861E+02
 0.45688548112E+02 0.23725736959E+02 0.15920177609E+02 0.11986009007E+02 0.10355750721E+02
 0.97327939812E+01 0.89658979900E+01 0.85166888298E+01 0.89658979900E+01 0.97327939812E+01
 0.10355750721E+02 0.11986009007E+02 0.15920177609E+02 0.23725736959E+02 0.45688548112E+02
 0.91667268861E+02 0.16241425062E+03 0.24452561071E+03 0.31210025230E+03 0.31210025230E+03
 0.28780863397E+03 0.22547735085E+03 0.14975102923E+03 0.84641165345E+02 0.42612287997E+02
 0.22818108937E+02 0.15735659780E+02 0.11992166752E+02 0.10498065523E+02 0.99859848750E+01
 0.93488060959E+01 0.89658979900E+01 0.93488060959E+01 0.99859848750E+01 0.10498065523E+02
 0.11992166752E+02 0.15735659780E+02 0.22818108937E+02 0.42612287997E+02 0.84641165345E+02
 0.14975102923E+03 0.22547735085E+03 0.28780863397E+03 0.24452561071E+03 0.22547735085E+03
 0.17660070531E+03 0.11733899043E+03 0.66831898651E+02 0.35007640631E+02 0.20665016263E+02
 0.15193635197E+02 0.11955486700E+02 0.10736026811E+02 0.10392193228E+02 0.99859848750E+01
 0.97327939812E+01 0.99859848750E+01 0.10392193228E+02 0.10736026811E+02 0.11955486700E+02
 0.15193635197E+02 0.20665016263E+02 0.35007640631E+02 0.66831898651E+02 0.11733899043E+03
 0.17660070531E+03 0.22547735085E+03 0.16241425062E+03 0.14975102923E+03 0.11733899043E+03
 0.78382933025E+02 0.45962451181E+02 0.26583916455E+02 0.18392269549E+02 0.14403859221E+02
 0.11910875923E+02 0.10989050763E+02 0.10736026811E+02 0.10498065523E+02 0.10355750721E+02
 0.10498065523E+02 0.10736026811E+02 0.10989050763E+02 0.11910875923E+02 0.14403859221E+02
 0.18392269549E+02 0.26583916455E+02 0.45962451181E+02 0.78382933025E+02 0.11733899043E+03
 0.14975102923E+03 0.91667268861E+02 0.84641165345E+02 0.66831898651E+02 0.45962451181E+02
 0.29499685528E+02 0.20507633852E+02 0.16473680231E+02 0.13715033473E+02 0.12277880987E+02
 0.11910875923E+02 0.11955486700E+02 0.11992166752E+02 0.11986009007E+02 0.11992166752E+02
 0.11955486700E+02 0.11910875923E+02 0.12277880987E+02 0.13715033473E+02 0.16473680231E+02
 0.20507633852E+02 0.29499685528E+02 0.45962451181E+02 0.66831898651E+02 0.84641165345E+02
 0.45688548112E+02 0.42612287997E+02 0.35007640631E+02 0.26583916455E+02 0.20507633852E+02
 0.17171266224E+02 0.14871053104E+02 0.13704888292E+02 0.13715033473E+02 0.14403859221E+02
 0.15193635197E+02 0.15735659780E+02 0.15920177609E+02 0.15735659780E+02 0.15193635197E+02
 0.14403859221E+02 0.13715033473E+02 0.13704888292E+02 0.14871053104E+02 0.17171266224E+02
 0.20507633852E+02 0.26583916455E+02 0.35007640631E+02 0.42612287997E+02 0.23725736959E+02
 0.22818108937E+02 0.20665016263E+02 0.18392269549E+02 0.16473680231E+02 0.14871053104E+02
 0.14228653025E+02 0.14871053104E+02 0.16473680231E+02 0.18392269549E+02 0.20665016263E+02
 0.22818108937E+02 0.23725736959E+02 0.22818108937E+02 0.20665016263E+02 0.18392269549E+02
 0.16473680231E+02 0.14871053104E+02 0.14228653025E+02 0.14871053104E+02 0.16473680231E+02
 0.18392269549E+02 0.20665016263E+02 0.22818108937E+02 0.15920177609E+02 0.15735659780E+02
 0.15193635197E+02 0.14403859221E+02 0.13715033473E+02 0.13704888292E+02 0.14871053104E+02
 0.17171266224E+02 0.20507633852E+02 0.26583916455E+02 0.35007640631E+02 0.42612287997E+02
 0.45688548112E+02 0.42612287997E+02 0.35007640631E+02 0.26583916455E+02 0.20507633852E+02
 0.17171266224E+02 0.14871053104E+02 0.13704888292E+02 0.13715033473E+02 0.14403859221E+02
 0.15193635197E+02 0.15735659780E+02 0.11986009007E+02 0.11992166752E+02 0.11955486700E+02
 0.11910875923E+02 0.12277880987E+02 0.13715033473E+02 0.16473680231E+02 0.20507633852E+02
 0.29499685528E+02 0.45962451181E+02 0.66831898651E+02 0.84641165345E+02 0.91667268861E+02
 0.84641165345E+02 0.66831898651E+02 0.45962451181E+02 0.29499685528E+02 0.20507633852E+02
 0.16473680231E+02 0.13715033473E+02 0.12277880987E+02 0.11910875923E+02 0.11955486700E+02
 0.11992166752E+02 0.10355750721E+02 0.10498065523E+02 0.10736026811E+02 0.10989050763E+02
 0.11910875923E+02 0.14403859221E+02 0.18392269549E+02 0.26583916455E+02 0.45962451181E+02
 0.78382933025E+02 0.11733899043E+03 0.14975102923E+03 0.16241425062E+03 0.14975102923E+03
 0.11733899043E+03 0.78382933025E+02 0.45962451181E+02 0.26583916455E+02 0.18392269549E+02
 0.14403859221E+02 0.11910875923E+02 0.10989050763E+02 0.10736026811E+02 0.10498065523E+02
 0.97327939812E+01 0.99859848750E+01 0.10392193228E+02 0.10736026811E+02 0.11955486700E+02
 0.15193635197E+02 0.20665016263E+02 0.35007640631E+02 0.66831898651E+02 0.11733899043E+03
 0.17660070531E+03 0.22547735085E+03 0.24452561071E+03 0.22547735085E+03 0.17660070531E+03
 0.11733899043E+03 0.66831898651E+02 0.35007640631E+02 0.20665016263E+02 0.15193635197E+02
 0.11955486700E+02 0.10736026811E+02 0.10392193228E+02 0.99859848750E+01 0.89658979900E+01
 0.93488060959E+01 0.99859848750E+01 0.10498065523E+02 0.11992166752E+02 0.15735659780E+02
 0.22818108937E+02 0.42612287997E+02 0.84641165345E+02 0.14975102923E+03 0.22547735085E+03
 0.28780863397E+03 0.31210025230E+03 0.28780863397E+03 0.22547735085E+03 0.14975102923E+03
 0.84641165345E+02 0.42612287997E+02 0.22818108937E+02 0.15735659780E+02 0.11992166752E+02
 0.10498065523E+02 0.99859848750E+01 0.93488060959E+01 0.85166888298E+01 0.89658979900E+01
 0.97327939812E+01 0.10355750721E+02 0.11986009007E+02 0.15920177609E+02 0.23725736959E+02
 0.45688548112E+02 0.91667268861E+02 0.16241425062E+03 0.24452561071E+03 0.31210025230E+03
 0.33844087538E+03 0.31210025230E+03 0.24452561071E+03 0.16241425062E+03 0.91667268861E+02
 0.45688548112E+02 0.23725736959E+02 0.15920177609E+02 0.11986009007E+02 0.10355750721E+02
 0.97327939812E+01 0.89658979900E+01 0.89658979900E+01 0.93488060959E+01 0.99859848750E+01
 0.10498065523E+02 0.11992166752E+02 0.15735659780E+02 0.22818108937E+02 0.42612287997E+02
 0.84641165345E+02 0.14975102923E+03 0.22547735085E+03 0.28780863397E+03 0.31210025230E+03
 0.28780863397E+03 0.22547735085E+03 0.14975102923E+03 0.84641165345E+02 0.42612287997E+02
 0.22818108937E+02 0.15735659780E+02 0.11992166752E+02 0.10498065523E+02 0.99859848750E+01
 0.93488060959E+01 0.97327939812E+01 0.99859848750E+01 0.10392193228E+02 0.10736026811E+02
 0.11955486700E+02 0.15193635197E+02 0.20665016263E+02 0.35007640631E+02 0.66831898651E+02
 0.11733899043E+03 0.17660070531E+03 0.22547735085E+03 0.24452561071E+03 0.22547735085E+03
 0.17660070531E+03 0.11733899043E+03 0.66831898651E+02 0.35007640631E+02 0.20665016263E+02
 0.15193635197E+02 0.11955486700E+02 0.10736026811E+02 0.10392193228E+02 0.99859848750E+01
 0.10355750721E+02 0.10498065523E+02 0.10736026811E+02 0.10989050763E+02 0.11910875923E+02
 0.14403859221E+02 0.18392269549E+02 0.26583916455E+02 0.45962451181E+02 0.78382933025E+02
 0.11733899043E+03 0.14975102923E+03 0.16241425062E+03 0.14975102923E+03 0.11733899043E+03
 0.78382933025E+02 0.45962451181E+02 0.26583916455E+02 0.18392269549E+02 0.14403859221E+02
 0.11910875923E+02 0.10989050763E+02 0.10736026811E+02 0.10498065523E+02 0.11986009007E+02
 0.11992166752E+02 0.11955486700E+02 0.11910875923E+02 0.12277880987E+02 0.13715033473E+02
 0.16473680231E+02 0.20507633852E+02 0.29499685528E+02 0.45962451181E+02 0.66831898651E+02
 0.84641165345E+02 0.91667268861E+02 0.84641165345E+02 0.66831898651E+02 0.45962451181E+02
 0.29499685528E+02 0.20507633852E+02 0.16473680231E+02 0.13715033473E+02 0.12277880987E+02
 0.11910875923E+02 0.11955486700E+02 0.11992166752E+02 0.15920177609E+02 0.15735659780E+02
 0.15193635197E+02 0.14403859221E+02 0.13715033473E+02 0.13704888292E+02 0.14871053104E+02
 0.17171266224E+02 0.20507633852E+02 0.26583916455E+02 0.35007640631E+02 0.42612287997E+02
 0.45688548112E+02 0.42612287997E+02 0.35007640631E+02 0.26583916455E+02 0.20507633852E+02
 0.17171266224E+02 0.14871053104E+02 0.13704888292E+02 0.13715033473E+02 0.14403859221E+02
 0.15193635197E+02 0.15735659780E+02 0.23725736959E+02 0.22818108937E+02 0.20665016263E+02
 0.18392269549E+02 0.16473680231E+02 0.14871053104E+02 0.14228653025E+02 0.14871053104E+02
 0.16473680231E+02 0.18392269549E+02 0.20665016263E+02 0.22818108937E+02 0.23725736959E+02
 0.22818108937E+02 0.20665016263E+02 0.18392269549E+02 0.16473680231E+02 0.14871053104E+02
 0.14228653025E+02 0.14871053104E+02 0.16473680231E+02 0.18392269549E+02 0.20665016263E+02
 0.22818108937E+02 0.45688548112E+02 0.42612287997E+02 0.35007640631E+02 0.26583916455E+02
 0.20507633852E+02 0.17171266224E+02 0.14871053104E+02 0.13704888292E+02 0.13715033473E+02
 0.14403859221E+02 0.15193635197E+02 0.15735659780E+02 0.15920177609E+02 0.15735659780E+02
 0.15193635197E+02 0.14403859221E+02 0.13715033473E+02 0.13704888292E+02 0.14871053104E+02
 0.17171266224E+02 0.20507633852E+02 0.26583916455E+02 0.35007640631E+02 0.42612287997E+02
 0.91667268861E+02 0.84641165345E+02 0.66831898651E+02 0.45962451181E+02 0.29499685528E+02
 0.20507633852E+02 0.16473680231E+02 0.13715033473E+02 0.12277880987E+02 0.11910875923E+02
 0.11955486700E+02 0.11992166752E+02 0.11986009007E+02 0.11992166752E+02 0.11955486700E+02
 0.11910875923E+02 0.12277880987E+02 0.13715033473E+02 0.16473680231E+02 0.20507633852E+02
 0.29499685528E+02 0.45962451181E+02 0.66831898651E+02 0.84641165345E+02 0.16241425062E+03
 0.14975102923E+03 0.11733899043E+03 0.78382933025E+02 0.45962451181E+02 0.26583916455E+02
 0.18392269549E+02 0.14403859221E+02 0.11910875923E+02 0.10989050763E+02 0.10736026811E+02
 0.10498065523E+02 0.10355750721E+02 0.10498065523E+02 0.10736026811E+02 0.10989050763E+02
 0.11910875923E+02 0.14403859221E+02 0.18392269549E+02 0.26583916455E+02 0.45962451181E+02
 0.78382933025E+02 0.11733899043E+03 0.14975102923E+03 0.24452561071E+03 0.22547735085E+03
 0.17660070531E+03 0.11733899043E+03 0.66831898651E+02 0.35007640631E+02 0.20665016263E+02
 0.15193635197E+02 0.11955486700E+02 0.10736026811E+02 0.10392193228E+02 0.99859848750E+01
 0.97327939812E+01 0.99859848750E+01 0.10392193228E+02 0.10736026811E+02 0.11955486700E+02
 0.15193635197E+02 0.20665016263E+02 0.35007640631E+02 0.66831898651E+02 0.11733899043E+03
 0.17660070531E+03 0.22547735085E+03 0.31210025230E+03 0.28780863397E+03 0.22547735085E+03
 0.14975102923E+03 0.84641165345E+02 0.42612287997E+02 0.22818108937E+02 0.15735659780E+02
 0.11992166752E+02 0.10498065523E+02 0.99859848750E+01 0.93488060959E+01 0.89658979900E+01
 0.93488060959E+01 0.99859848750E+01 0.10498065523E+02 0.11992166752E+02 0.15735659780E+02
 0.22818108937E+02 0.42612287997E+02 0.84641165345E+02 0.14975102923E+03 0.22547735085E+03
 0.28780863397E+03 0.31210025230E+03 0.28780863397E+03 0.22547735085E+03 0.14975102923E+03
 0.84641165345E+02 0.42612287997E+02 0.22818108937E+02 0.15735659780E+02 0.11992166752E+02
 0.10498065523E+02 0.99859848750E+01 0.93488060959E+01 0.89658979900E+01 0.93488060959E+01
 0.99859848750E+01 0.10498065523E+02 0.11992166752E+02 0.15735659780E+02 0.22818108937E+02
 0.42612287997E+02 0.84641165345E+02 0.14975102923E+03 0.22547735085E+03 0.28780863397E+03
 0.28780863397E+03 0.26539711078E+03 0.20788770228E+03 0.13805767961E+03 0.78178035773E+02
 0.39818087404E+02 0.22014040974E+02 0.15554654055E+02 0.11992101726E+02 0.10617515458E+02
 0.10198546404E+02 0.96734950035E+01 0.93488060959E+01 0.96734950035E+01 0.10198546404E+02
 0.10617515458E+02 0.11992101726E+02 0.15554654055E+02 0.22014040974E+02 0.39818087404E+02
 0.78178035773E+02 0.13805767961E+03 0.20788770228E+03 0.26539711078E+03 0.22547735085E+03
 0.20788770228E+03 0.16277619956E+03 0.10817168375E+03 0.61842426033E+02 0.32941521675E+02
 0.20109255430E+02 0.15027649919E+02 0.11946916278E+02 0.10813667286E+02 0.10529031059E+02
 0.10198546404E+02 0.99859848750E+01 0.10198546404E+02 0.10529031059E+02 0.10813667286E+02
 0.11946916278E+02 0.15027649919E+02 0.20109255430E+02 0.32941521675E+02 0.61842426033E+02
 0.10817168375E+03 0.16277619956E+03 0.20788770228E+03 0.14975102923E+03 0.13805767961E+03
 0.10817168375E+03 0.72383349467E+02 0.42823927411E+02 0.25393718254E+02 0.18077860000E+02
 0.14269256511E+02 0.11900187483E+02 0.11034477159E+02 0.10813667286E+02 0.10617515458E+02
 0.10498065523E+02 0.10617515458E+02 0.10813667286E+02 0.11034477159E+02 0.11900187483E+02
 0.14269256511E+02 0.18077860000E+02 0.25393718254E+02 0.42823927411E+02 0.72383349467E+02
 0.10817168375E+03 0.13805767961E+03 0.84641165345E+02 0.78178035773E+02 0.61842426033E+02
 0.42823927411E+02 0.27993728160E+02 0.20001608104E+02 0.16258358908E+02 0.13614611998E+02
 0.12248698694E+02 0.11900187483E+02 0.11946916278E+02 0.11992101726E+02 0.11992166752E+02
 0.11992101726E+02 0.11946916278E+02 0.11900187483E+02 0.12248698694E+02 0.13614611998E+02
 0.16258358908E+02 0.20001608104E+02 0.27993728160E+02 0.42823927411E+02 0.61842426033E+02
 0.78178035773E+02 0.42612287997E+02 0.39818087404E+02 0.32941521675E+02 0.25393718254E+02
 0.20001608104E+02 0.16935481234E+02 0.14722651734E+02 0.13608234424E+02 0.13614611998E+02
 0.14269256511E+02 0.15027649919E+02 0.15554654055E+02 0.15735659780E+02 0.15554654055E+02
 0.15027649919E+02 0.14269256511E+02 0.13614611998E+02 0.13608234424E+02 0.14722651734E+02
 0.16935481234E+02 0.20001608104E+02 0.25393718254E+02 0.32941521675E+02 0.39818087404E+02
 0.22818108937E+02 0.22014040974E+02 0.20109255430E+02 0.18077860000E+02 0.16258358908E+02
 0.14722651734E+02 0.14111055680E+02 0.14722651734E+02 0.16258358908E+02 0.18077860000E+02
 0.20109255430E+02 0.22014040974E+02 0.22818108937E+02 0.22014040974E+02 0.20109255430E+02
 0.18077860000E+02 0.16258358908E+02 0.14722651734E+02 0.14111055680E+02 0.14722651734E+02
 0.16258358908E+02 0.18077860000E+02 0.20109255430E+02 0.22014040974E+02 0.15735659780E+02
 0.15554654055E+02 0.15027649919E+02 0.14269256511E+02 0.13614611998E+02 0.13608234424E+02
 0.14722651734E+02 0.16935481234E+02 0.20001608104E+02 0.25393718254E+02 0.32941521675E+02
 0.39818087404E+02 0.42612287997E+02 0.39818087404E+02 0.32941521675E+02 0.25393718254E+02
 0.20001608104E+02 0.16935481234E+02 0.14722651734E+02 0.13608234424E+02 0.13614611998E+02
 0.14269256511E+02 0.15027649919E+02 0.15554654055E+02 0.11992166752E+02 0.11992101726E+02
 0.11946916278E+02 0.11900187483E+02 0.12248698694E+02 0.13614611998E+02 0.16258358908E+02
 0.20001608104E+02 0.27993728160E+02 0.42823927411E+02 0.61842426033E+02 0.78178035773E+02
 0.84641165345E+02 0.78178035773E+02 0.61842426033E+02 0.42823927411E+02 0.27993728160E+02
 0.20001608104E+02 0.16258358908E+02 0.13614611998E+02 0.12248698694E+02 0.11900187483E+02
 0.11946916278E+02 0.11992101726E+02 0.10498065523E+02 0.10617515458E+02 0.10813667286E+02
 0.11034477159E+02 0.11900187483E+02 0.14269256511E+02 0.18077860000E+02 0.25393718254E+02
 0.42823927411E+02 0.72383349467E+02 0.10817168375E+03 0.13805767961E+03 0.14975102923E+03
 0.13805767961E+03 0.10817168375E+03 0.72383349467E+02 0.42823927411E+02 0.25393718254E+02
 0.18077860000E+02 0.14269256511E+02 0.11900187483E+02 0.11034477159E+02 0.10813667286E+02
 0.10617515458E+02 0.99859848750E+01 0.10198546404E+02 0.10529031059E+02 0.10813667286E+02
 0.11946916278E+02 0.15027649919E+02 0.20109255430E+02 0.32941521675E+02 0.61842426033E+02
 0.10817168375E+03 0.16277619956E+03 0.20788770228E+03 0.22547735085E+03 0.20788770228E+03
 0.16277619956E+03 0.10817168375E+03 0.61842426033E+02 0.32941521675E+02 0.20109255430E+02
 0.15027649919E+02 0.11946916278E+02 0.10813667286E+02 0.10529031059E+02 0.10198546404E+02
 0.93488060959E+01 0.96734950035E+01 0.10198546404E+02 0.10617515458E+02 0.11992101726E+02
 0.15554654055E+02 0.22014040974E+02 0.39818087404E+02 0.78178035773E+02 0.13805767961E+03
 0.20788770228E+03 0.26539711078E+03 0.28780863397E+03 0.26539711078E+03 0.20788770228E+03
 0.13805767961E+03 0.78178035773E+02 0.39818087404E+02 0.22014040974E+02 0.15554654055E+02
 0.11992101726E+02 0.10617515458E+02 0.10198546404E+02 0.96734950035E+01 0.89658979900E+01
 0.93488060959E+01 0.99859848750E+01 0.10498065523E+02 0.11992166752E+02 0.15735659780E+02
 0.22818108937E+02 0.42612287997E+02 0.84641165345E+02 0.14975102923E+03 0.22547735085E+03
 0.28780863397E+03 0.31210025230E+03 0.28780863397E+03 0.22547735085E+03 0.14975102923E+03
 0.84641165345E+02 0.42612287997E+02 0.22818108937E+02 0.15735659780E+02 0.11992166752E+02
 0.10498065523E+02 0.99859848750E+01 0.93488060959E+01 0.93488060959E+01 0.96734950035E+01
 0.10198546404E+02 0.10617515458E+02 0.11992101726E+02 0.15554654055E+02 0.22014040974E+02
 0.39818087404E+02 0.78178035773E+02 0.13805767961E+03 0.20788770228E+03 0.26539711078E+03
 0.28780863397E+03 0.26539711078E+03 0.20788770228E+03 0.13805767961E+03 0.78178035773E+02
 0.39818087404E+02 0.22014040974E+02 0.15554654055E+02 0.11992101726E+02 0.10617515458E+02
 0.10198546404E+02 0.96734950035E+01 0.99859848750E+01 0.10198546404E+02 0.10529031059E+02
 0.10813667286E+02 0.11946916278E+02 0.15027649919E+02 0.20109255430E+02 0.32941521675E+02
 0.61842426033E+02 0.10817168375E+03 0.16277619956E+03 0.20788770228E+03 0.22547735085E+03
 0.20788770228E+03 0.16277619956E+03 0.10817168375E+03 0.61842426033E+02 0.32941521675E+02
 0.20109255430E+02 0.15027649919E+02 0.11946916278E+02 0.10813667286E+02 0.10529031059E+02
 0.10198546404E+02 0.10498065523E+02 0.10617515458E+02 0.10813667286E+02 0.11034477159E+02
 0.11900187483E+02 0.14269256511E+02 0.18077860000E+02 0.25393718254E+02 0.42823927411E+02
 0.72383349467E+02 0.10817168375E+03 0.13805767961E+03 0.14975102923E+03 0.13805767961E+03
 0.10817168375E+03 0.72383349467E+02 0.42823927411E+02 0.25393718254E+02 0.18077860000E+02
 0.14269256511E+02 0.11900187483E+02 0.11034477159E+02 0.10813667286E+02 0.10617515458E+02
 0.11992166752E+02 0.11992101726E+02 0.11946916278E+02 0.11900187483E+02 0.12248698694E+02
 0.13614611998E+02 0.16258358908E+02 0.20001608104E+02 0.27993728160E+02 0.42823927411E+02
 0.61842426033E+02 0.78178035773E+02 0.84641165345E+02 0.78178035773E+02 0.61842426033E+02
 0.42823927411E+02 0.27993728160E+02 0.20001608104E+02 0.16258358908E+02 0.13614611998E+02
 0.12248698694E+02 0.11900187483E+02 0.11946916278E+02 0.11992101726E+02 0.15735659780E+02
 0.15554654055E+02 0.15027649919E+02 0.14269256511E+02 0.13614611998E+02 0.13608234424E+02
 0.14722651734E+02 0.16935481234E+02 0.20001608104E+02 0.25393718254E+02 0.32941521675E+02
 0.39818087404E+02 0.42612287997E+02 0.39818087404E+02 0.32941521675E+02 0.25393718254E+02
 0.20001608104E+02 0.16935481234E+02 0.14722651734E+02 0.13608234424E+02 0.13614611998E+02
 0.14269256511E+02 0.15027649919E+02 0.15554654055E+02 0.22818108937E+02 0.22014040974E+02
 0.20109255430E+02 0.18077860000E+02 0.16258358908E+02 0.14722651734E+02 0.14111055680E+02
 0.14722651734E+02 0.16258358908E+02 0.18077860000E+02 0.20109255430E+02 0.22014040974E+02
 0.22818108937E+02 0.22014040974E+02 0.20109255430E+02 0.18077860000E+02 0.16258358908E+02
 0.14722651734E+02 0.14111055680E+02 0.14722651734E+02 0.16258358908E+02 0.18077860000E+02
 0.20109255430E+02 0.22014040974E+02 0.42612287997E+02 0.39818087404E+02 0.32941521675E+02
 0.25393718254E+02 0.20001608104E+02 0.16935481234E+02 0.14722651734E+02 0.13608234424E+02
 0.13614611998E+02 0.14269256511E+02 0.15027649919E+02 0.15554654055E+02 0.15735659780E+02
 0.15554654055E+02 0.15027649919E+02 0.14269256511E+02 0.13614611998E+02 0.13608234424E+02
 0.14722651734E+02 0.16935481234E+02 0.20001608104E+02 0.25393718254E+02 0.32941521675E+02
 0.39818087404E+02 0.84641165345E+02 0.78178035773E+02 0.61842426033E+02 0.42823927411E+02
 0.27993728160E+02 0.20001608104E+02 0.16258358908E+02 0.13614611998E+02 0.12248698694E+02
 0.11900187483E+02 0.11946916278E+02 0.11992101726E+02 0.11992166752E+02 0.11992101726E+02
 0.11946916278E+02 0.11900187483E+02 0.12248698694E+02 0.13614611998E+02 0.16258358908E+02
 0.20001608104E+02 0.27993728160E+02 0.42823927411E+02 0.61842426033E+02 0.78178035773E+02
 0.14975102923E+03 0.13805767961E+03 0.10817168375E+03 0.72383349467E+02 0.42823927411E+02
 0.25393718254E+02 0.18077860000E+02 0.14269256511E+02 0.11900187483E+02 0.11034477159E+02
 0.10813667286E+02 0.10617515458E+02 0.10498065523E+02 0.10617515458E+02 0.10813667286E+02
 0.11034477159E+02 0.11900187483E+02 0.14269256511E+02 0.18077860000E+02 0.25393718254E+02
 0.42823927411E+02 0.72383349467E+02 0.10817168375E+03 0.13805767961E+03 0.22547735085E+03
 0.20788770228E+03 0.16277619956E+03 0.10817168375E+03 0.61842426033E+02 0.32941521675E+02
 0.20109255430E+02 0.15027649919E+02 0.11946916278E+02 0.10813667286E+02 0.10529031059E+02
 0.10198546404E+02 0.99859848750E+01 0.10198546404E+02 0.10529031059E+02 0.10813667286E+02
 0.11946916278E+02 0.15027649919E+02 0.20109255430E+02 0.32941521675E+02 0.61842426033E+02
 0.10817168375E+03 0.16277619956E+03 0.20788770228E+03 0.28780863397E+03 0.26539711078E+03
 0.20788770228E+03 0.13805767961E+03 0.78178035773E+02 0.39818087404E+02 0.22014040974E+02
 0.15554654055E+02 0.11992101726E+02 0.10617515458E+02 0.10198546404E+02 0.96734950035E+01
 0.93488060959E+01 0.96734950035E+01 0.10198546404E+02 0.10617515458E+02 0.11992101726E+02
 0.15554654055E+02 0.22014040974E+02 0.39818087404E+02 0.78178035773E+02 0.13805767961E+03
 0.20788770228E+03 0.26539711078E+03 0.24452561071E+03 0.22547735085E+03 0.17660070531E+03
 0.11733899043E+03 0.66831898651E+02 0.35007640631E+02 0.20665016263E+02 0.15193635197E+02
 0.11955486700E+02 0.10736026811E+02 0.10392193228E+02 0.99859848750E+01 0.97327939812E+01
 0.99859848750E+01 0.10392193228E+02 0.10736026811E+02 0.11955486700E+02 0.15193635197E+02
 0.20665016263E+02 0.35007640631E+02 0.66831898651E+02 0.11733899043E+03 0.17660070531E+03
 0.22547735085E+03 0.22547735085E+03 0.20788770228E+03 0.16277619956E+03 0.10817168375E+03
 0.61842426033E+02 0.32941521675E+02 0.20109255430E+02 0.15027649919E+02 0.11946916278E+02
 0.10813667286E+02 0.10529031059E+02 0.10198546404E+02 0.99859848750E+01 0.10198546404E+02
 0.10529031059E+02 0.10813667286E+02 0.11946916278E+02 0.15027649919E+02 0.20109255430E+02
 0.32941521675E+02 0.61842426033E+02 0.10817168375E+03 0.16277619956E+03 0.20788770228E+03
 0.17660070531E+03 0.16277619956E+03 0.12739999471E+03 0.84863223712E+02 0.49350616238E+02
 0.27927879840E+02 0.18783018436E+02 0.14553861470E+02 0.11895925405E+02 0.10941770174E+02
 0.10734754783E+02 0.10529031059E+02 0.10392193228E+02 0.10529031059E+02 0.10734754783E+02
 0.10941770174E+02 0.11895925405E+02 0.14553861470E+02 0.18783018436E+02 0.27927879840E+02
 0.49350616238E+02 0.84863223712E+02 0.12739999471E+03 0.16277619956E+03 0.11733899043E+03
 0.10817168375E+03 0.84863223712E+02 0.57304990573E+02 0.35114343172E+02 0.22571330923E+02
 0.17261338569E+02 0.13890465162E+02 0.11856398180E+02 0.11117820913E+02 0.10941770174E+02
 0.10813667286E+02 0.10736026811E+02 0.10813667286E+02 0.10941770174E+02 0.11117820913E+02
 0.11856398180E+02 0.13890465162E+02 0.17261338569E+02 0.22571330923E+02 0.35114343172E+02
 0.57304990573E+02 0.84863223712E+02 0.10817168375E+03 0.66831898651E+02 0.61842426033E+02
 0.49350616238E+02 0.35114343172E+02 0.24408811230E+02 0.18796184812E+02 0.15652182805E+02
 0.13332776957E+02 0.12159930552E+02 0.11856398180E+02 0.11895925405E+02 0.11946916278E+02
 0.11955486700E+02 0.11946916278E+02 0.11895925405E+02 0.11856398180E+02 0.12159930552E+02
 0.13332776957E+02 0.15652182805E+02 0.18796184812E+02 0.24408811230E+02 0.35114343172E+02
 0.49350616238E+02 0.61842426033E+02 0.35007640631E+02 0.32941521675E+02 0.27927879840E+02
 0.22571330923E+02 0.18796184812E+02 0.16273791631E+02 0.14312644421E+02 0.13338804033E+02
 0.13332776957E+02 0.13890465162E+02 0.14553861470E+02 0.15027649919E+02 0.15193635197E+02
 0.15027649919E+02 0.14553861470E+02 0.13890465162E+02 0.13332776957E+02 0.13338804033E+02
 0.14312644421E+02 0.16273791631E+02 0.18796184812E+02 0.22571330923E+02 0.27927879840E+02
 0.32941521675E+02 0.20665016263E+02 0.20109255430E+02 0.18783018436E+02 0.17261338569E+02
 0.15652182805E+02 0.14312644421E+02 0.13788177960E+02 0.14312644421E+02 0.15652182805E+02
 0.17261338569E+02 0.18783018436E+02 0.20109255430E+02 0.20665016263E+02 0.20109255430E+02
 0.18783018436E+02 0.17261338569E+02 0.15652182805E+02 0.14312644421E+02 0.13788177960E+02
 0.14312644421E+02 0.15652182805E+02 0.17261338569E+02 0.18783018436E+02 0.20109255430E+02
 0.15193635197E+02 0.15027649919E+02 0.14553861470E+02 0.13890465162E+02 0.13332776957E+02
 0.13338804033E+02 0.14312644421E+02 0.16273791631E+02 0.18796184812E+02 0.22571330923E+02
 0.27927879840E+02 0.32941521675E+02 0.35007640631E+02 0.32941521675E+02 0.27927879840E+02
 0.22571330923E+02 0.18796184812E+02 0.16273791631E+02 0.14312644421E+02 0.13338804033E+02
 0.13332776957E+02 0.13890465162E+02 0.14553861470E+02 0.15027649919E+02 0.11955486700E+02
 0.11946916278E+02 0.11895925405E+02 0.11856398180E+02 0.12159930552E+02 0.13332776957E+02
 0.15652182805E+02 0.18796184812E+02 0.24408811230E+02 0.35114343172E+02 0.49350616238E+02
 0.61842426033E+02 0.66831898651E+02 0.61842426033E+02 0.49350616238E+02 0.35114343172E+02
 0.24408811230E+02 0.18796184812E+02 0.15652182805E+02 0.13332776957E+02 0.12159930552E+02
 0.11856398180E+02 0.11895925405E+02 0.11946916278E+02 0.10736026811E+02 0.10813667286E+02
 0.10941770174E+02 0.11117820913E+02 0.11856398180E+02 0.13890465162E+02 0.17261338569E+02
 0.22571330923E+02 0.35114343172E+02 0.57304990573E+02 0.84863223712E+02 0.10817168375E+03
 0.11733899043E+03 0.10817168375E+03 0.84863223712E+02 0.57304990573E+02 0.35114343172E+02
 0.22571330923E+02 0.17261338569E+02 0.13890465162E+02 0.11856398180E+02 0.11117820913E+02
 0.10941770174E+02 0.10813667286E+02 0.10392193228E+02 0.10529031059E+02 0.10734754783E+02
 0.10941770174E+02 0.11895925405E+02 0.14553861470E+02 0.18783018436E+02 0.27927879840E+02
 0.49350616238E+02 0.84863223712E+02 0.12739999471E+03 0.16277619956E+03 0.17660070531E+03
 0.16277619956E+03 0.12739999471E+03 0.84863223712E+02 0.49350616238E+02 0.27927879840E+02
 0.18783018436E+02 0.14553861470E+02 0.11895925405E+02 0.10941770174E+02 0.10734754783E+02
 0.10529031059E+02 0.99859848750E+01 0.10198546404E+02 0.10529031059E+02 0.10813667286E+02
 0.11946916278E+02 0.15027649919E+02 0.20109255430E+02 0.32941521675E+02 0.61842426033E+02
 0.10817168375E+03 0.16277619956E+03 0.20788770228E+03 0.22547735085E+03 0.20788770228E+03
 0.16277619956E+03 0.10817168375E+03 0.61842426033E+02 0.32941521675E+02 0.20109255430E+02
 0.15027649919E+02 0.11946916278E+02 0.10813667286E+02 0.10529031059E+02 0.10198546404E+02
 0.97327939812E+01 0.99859848750E+01 0.10392193228E+02 0.10736026811E+02 0.11955486700E+02
 0.15193635197E+02 0.20665016263E+02 0.35007640631E+02 0.66831898651E+02 0.11733899043E+03
 0.17660070531E+03 0.22547735085E+03 0.24452561071E+03 0.22547735085E+03 0.17660070531E+03
 0.11733899043E+03 0.66831898651E+02 0.35007640631E+02 0.20665016263E+02 0.15193635197E+02
 0.11955486700E+02 0.10736026811E+02 0.10392193228E+02 0.99859848750E+01 0.99859848750E+01
 0.10198546404E+02 0.10529031059E+02 0.10813667286E+02 0.11946916278E+02 0.15027649919E+02
 0.20109255430E+02 0.32941521675E+02 0.61842426033E+02 0.10817168375E+03 0.16277619956E+03
 0.20788770228E+03 0.22547735085E+03 0.20788770228E+03 0.16277619956E+03 0.10817168375E+03
 0.61842426033E+02 0.32941521675E+02 0.20109255430E+02 0.15027649919E+02 0.11946916278E+02
 0.10813667286E+02 0.10529031059E+02 0.10198546404E+02 0.10392193228E+02 0.10529031059E+02
 0.10734754783E+02 0.10941770174E+02 0.11895925405E+02 0.14553861470E+02 0.18783018436E+02
 0.27927879840E+02 0.49350616238E+02 0.84863223712E+02 0.12739999471E+03 0.16277619956E+03
 0.17660070531E+03 0.16277619956E+03 0.12739999471E+03 0.84863223712E+02 0.49350616238E+02
 0.27927879840E+02 0.18783018436E+02 0.14553861470E+02 0.11895925405E+02 0.10941770174E+02
 0.10734754783E+02 0.10529031059E+02 0.10736026811E+02 0.10813667286E+02 0.10941770174E+02
 0.11117820913E+02 0.11856398180E+02 0.13890465162E+02 0.17261338569E+02 0.22571330923E+02
 0.35114343172E+02 0.57304990573E+02 0.84863223712E+02 0.10817168375E+03 0.11733899043E+03
 0.10817168375E+03 0.84863223712E+02 0.57304990573E+02 0.35114343172E+02 0.22571330923E+02
 0.17261338569E+02 0.13890465162E+02 0.11856398180E+02 0.11117820913E+02 0.10941770174E+02
 0.10813667286E+02 0.11955486700E+02 0.11946916278E+02 0.11895925405E+02 0.11856398180E+02
 0.12159930552E+02 0.13332776957E+02 0.15652182805E+02 0.18796184812E+02 0.24408811230E+02
 0.35114343172E+02 0.49350616238E+02 0.61842426033E+02 0.66831898651E+02 0.61842426033E+02
 0.49350616238E+02 0.35114343172E+02 0.24408811230E+02 0.18796184812E+02 0.15652182805E+02
 0.13332776957E+02 0.12159930552E+02 0.11856398180E+02 0.11895925405E+02 0.11946916278E+02
 0.15193635197E+02 0.15027649919E+02 0.14553861470E+02 0.13890465162E+02 0.13332776957E+02
 0.13338804033E+02 0.14312644421E+02 0.16273791631E+02 0.18796184812E+02 0.22571330923E+02
 0.27927879840E+02 0.32941521675E+02 0.35007640631E+02 0.32941521675E+02 0.27927879840E+02
 0.22571330923E+02 0.18796184812E+02 0.16273791631E+02 0.14312644421E+02 0.13338804033E+02
 0.13332776957E+02 0.13890465162E+02 0.14553861470E+02 0.15027649919E+02 0.20665016263E+02
 0.20109255430E+02 0.18783018436E+02 0.17261338569E+02 0.15652182805E+02 0.14312644421E+02
 0.13788177960E+02 0.14312644421E+02 0.15652182805E+02 0.17261338569E+02 0.18783018436E+02
 0.20109255430E+02 0.20665016263E+02 0.20109255430E+02 0.18783018436E+02 0.17261338569E+02
 0.15652182805E+02 0.14312644421E+02 0.13788177960E+02 0.14312644421E+02 0.15652182805E+02
 0.17261338569E+02 0.18783018436E+02 0.20109255430E+02 0.35007640631E+02 0.32941521675E+02
 0.27927879840E+02 0.22571330923E+02 0.18796184812E+02 0.16273791631E+02 0.14312644421E+02
 0.13338804033E+02 0.13332776957E+02 0.13890465162E+02 0.14553861470E+02 0.15027649919E+02
 0.15193635197E+02 0.15027649919E+02 0.14553861470E+02 0.13890465162E+02 0.13332776957E+02