   4   4   0   0
  0.1022208E+02  0.3445083E-09  0.3445083E-09  0.3445083E-09  0.5000000E-15
  1.000000000000000E-004
  CAR 
 unknown system                          
     38.66347333     -4.04649608  301      6.55858582      1.00000000
     -4.046  0.0000E+00  0.0000E+00
     -3.904  0.0000E+00  0.0000E+00
     -3.762 -0.3094E-32 -0.4405E-33
     -3.619 -0.3432E-27 -0.4885E-28
     -3.477 -0.1370E-22 -0.1951E-23
     -3.335 -0.1966E-18 -0.2799E-19
     -3.192 -0.9802E-15 -0.1396E-15
     -3.050 -0.1786E-11 -0.2545E-12
     -2.908 -0.1151E-08 -0.1641E-09
     -2.765 -0.2587E-06 -0.3699E-07
     -2.623 -0.1977E-04 -0.2852E-05
     -2.480 -0.4797E-03 -0.7114E-04
     -2.338 -0.2813E-02 -0.4716E-03
     -2.196  0.6124E-02  0.4002E-03
     -2.053  0.4996E-01  0.7513E-02
     -1.911  0.5061E-01  0.1472E-01
     -1.769 -0.8592E-02  0.1349E-01
     -1.626  0.4605E-01  0.2005E-01
     -1.484  0.3166E+00  0.6512E-01
     -1.342  0.2953E+00  0.1072E+00
     -1.199  0.6590E-02  0.1081E+00
     -1.057  0.1941E+00  0.1357E+00
     -0.914  0.7237E+00  0.2388E+00
     -0.772  0.4520E+00  0.3031E+00
     -0.630  0.3981E-01  0.3088E+00
     -0.487  0.3338E+00  0.3563E+00
     -0.345  0.4501E+00  0.4204E+00
     -0.203  0.9090E-01  0.4333E+00
     -0.060  0.1337E+00  0.4524E+00
      0.082  0.3491E+00  0.5021E+00
      0.225  0.1061E+00  0.5172E+00
      0.367  0.3827E+00  0.5716E+00
      0.509  0.1376E+01  0.7675E+00
      0.652  0.1059E+01  0.9183E+00
      0.794  0.1134E+01  0.1080E+01
      0.936  0.1322E+01  0.1268E+01
      1.079  0.2868E+00  0.1309E+01
      1.221 -0.1166E+00  0.1292E+01
      1.363 -0.1355E+00  0.1273E+01
      1.506  0.6635E+00  0.1367E+01
      1.648  0.2661E+01  0.1746E+01
      1.791  0.2568E+01  0.2112E+01
      1.933  0.1904E+01  0.2383E+01
      2.075  0.3350E+01  0.2860E+01
      2.218  0.4892E+01  0.3556E+01
      2.360  0.4755E+01  0.4233E+01
      2.502  0.5168E+01  0.4969E+01
      2.645  0.3779E+01  0.5507E+01
      2.787  0.4080E+01  0.6088E+01
      2.929  0.7208E+01  0.7114E+01
      3.072  0.9076E+01  0.8406E+01
      3.214  0.5454E+01  0.9183E+01
      3.357  0.3538E+01  0.9686E+01
      3.499  0.6585E+01  0.1062E+02
      3.641  0.6403E+01  0.1154E+02
      3.784  0.3838E+01  0.1208E+02
      3.926  0.3555E+01  0.1259E+02
      4.068  0.6331E+01  0.1349E+02
      4.211  0.7379E+01  0.1454E+02
      4.353  0.4642E+01  0.1520E+02
      4.495  0.5261E+01  0.1595E+02
      4.638  0.1027E+02  0.1741E+02
      4.780  0.1068E+02  0.1893E+02
      4.923  0.8430E+01  0.2013E+02
      5.065  0.8848E+01  0.2139E+02
      5.207  0.9072E+01  0.2268E+02
      5.350  0.6164E+01  0.2356E+02
      5.492  0.5083E+01  0.2428E+02
      5.634  0.5952E+01  0.2513E+02
      5.777  0.7620E+01  0.2622E+02
      5.919  0.8939E+01  0.2749E+02
      6.062  0.9403E+01  0.2883E+02
      6.204  0.6319E+01  0.2973E+02
      6.346  0.3373E+01  0.3021E+02
      6.489  0.7377E+01  0.3126E+02
      6.631  0.1082E+02  0.3280E+02
      6.773  0.8180E+01  0.3396E+02
      6.916  0.2894E+01  0.3438E+02
      7.058  0.5163E+01  0.3511E+02
      7.200  0.9735E+01  0.3650E+02
      7.343  0.1002E+02  0.3792E+02
      7.485  0.1202E+02  0.3963E+02
      7.628  0.8861E+01  0.4090E+02
      7.770  0.4964E+01  0.4160E+02
      7.912  0.3886E+01  0.4216E+02
      8.055  0.2956E+01  0.4258E+02
      8.197  0.2007E+01  0.4286E+02
      8.339  0.7684E+00  0.4297E+02
      8.482 -0.2864E-01  0.4297E+02
      8.624 -0.1029E+00  0.4295E+02
      8.766  0.5797E-02  0.4295E+02
      8.909  0.8740E+00  0.4308E+02
      9.051  0.1326E+01  0.4327E+02
      9.194  0.9918E+00  0.4341E+02
      9.336  0.2586E+01  0.4378E+02
      9.478  0.2602E+01  0.4415E+02
      9.621  0.1612E+01  0.4438E+02
      9.763  0.7786E+00  0.4449E+02
      9.905  0.4688E+00  0.4455E+02
     10.048  0.1562E+01  0.4478E+02
     10.190  0.1091E+01  0.4493E+02
     10.333  0.4256E-01  0.4494E+02
     10.475 -0.9899E-01  0.4492E+02
     10.617 -0.5531E-01  0.4492E+02
     10.760  0.6211E+00  0.4500E+02
     10.902  0.1474E+01  0.4521E+02
     11.044  0.1361E+01  0.4541E+02
     11.187  0.1472E+01  0.4562E+02
     11.329  0.6025E+00  0.4570E+02
     11.471 -0.1514E-01  0.4570E+02
     11.614  0.4946E+00  0.4577E+02
     11.756  0.9957E+00  0.4591E+02
     11.899  0.8583E+00  0.4604E+02
     12.041  0.1251E+00  0.4605E+02
     12.183  0.5641E+00  0.4613E+02
     12.326  0.3636E+01  0.4665E+02
     12.468  0.3707E+01  0.4718E+02
     12.610  0.6086E+00  0.4727E+02
     12.753 -0.2356E+00  0.4723E+02
     12.895  0.1496E+00  0.4725E+02
     13.037  0.7175E+00  0.4736E+02
     13.180  0.4948E+00  0.4743E+02
     13.322  0.2073E-01  0.4743E+02
     13.465 -0.2797E-01  0.4742E+02
     13.607 -0.3455E-02  0.4742E+02
     13.749 -0.1135E-03  0.4742E+02
     13.892 -0.8382E-05  0.4742E+02
     14.034 -0.5359E-03  0.4742E+02
     14.176 -0.1285E-01  0.4742E+02
     14.319 -0.7787E-01  0.4741E+02
     14.461  0.1301E+00  0.4743E+02
     14.604  0.1377E+01  0.4763E+02
     14.746  0.1955E+01  0.4790E+02
     14.888  0.7489E+00  0.4801E+02
     15.031 -0.3113E-01  0.4801E+02
     15.173 -0.1122E+00  0.4799E+02
     15.315 -0.6204E-01  0.4798E+02
     15.458  0.9949E+00  0.4812E+02
     15.600  0.3090E+01  0.4856E+02
     15.742  0.3507E+01  0.4906E+02
     15.885  0.3056E+01  0.4950E+02
     16.027  0.2609E+01  0.4987E+02
     16.170  0.5496E+00  0.4995E+02
     16.312 -0.1494E+00  0.4993E+02
     16.454 -0.3823E-01  0.4992E+02
     16.597 -0.1322E-01  0.4992E+02
     16.739 -0.1782E-01  0.4992E+02
     16.881  0.1971E+00  0.4994E+02
     17.024  0.4643E+00  0.5001E+02
     17.166  0.1129E+00  0.5003E+02
     17.308  0.5544E+00  0.5010E+02
     17.451  0.2928E+01  0.5052E+02
     17.593  0.2969E+01  0.5094E+02
     17.736  0.8768E+00  0.5107E+02
     17.878  0.1203E+01  0.5124E+02
     18.020  0.1019E+01  0.5139E+02
     18.163  0.1870E-01  0.5139E+02
     18.305  0.2659E+00  0.5143E+02
     18.447  0.1281E+01  0.5161E+02
     18.590  0.1340E+01  0.5180E+02
     18.732  0.2440E+01  0.5215E+02
     18.875  0.2687E+01  0.5253E+02
     19.017  0.5965E+00  0.5261E+02
     19.159  0.2701E+00  0.5265E+02
     19.302  0.6817E+00  0.5275E+02
     19.444  0.9973E+00  0.5289E+02
     19.586  0.1507E+01  0.5311E+02
     19.729  0.1508E+01  0.5332E+02
     19.871  0.1363E+01  0.5352E+02
     20.013  0.2732E+00  0.5355E+02
     20.156 -0.8926E-01  0.5354E+02
     20.298  0.1163E+01  0.5371E+02
     20.441  0.2586E+01  0.5408E+02
     20.583  0.2861E+01  0.5448E+02
     20.725  0.2945E+01  0.5490E+02
     20.868  0.1361E+01  0.5510E+02
     21.010  0.1479E+00  0.5512E+02
     21.152  0.5517E+00  0.5519E+02
     21.295  0.1114E+01  0.5535E+02
     21.437  0.1848E+01  0.5562E+02
     21.579  0.8532E+00  0.5574E+02
     21.722  0.2887E+00  0.5578E+02
     21.864  0.3395E+01  0.5626E+02
     22.007  0.4767E+01  0.5694E+02
     22.149  0.1423E+01  0.5714E+02
     22.291 -0.2350E+00  0.5711E+02
     22.434 -0.3089E+00  0.5707E+02
     22.576  0.5995E+00  0.5715E+02
     22.718  0.3876E+01  0.5770E+02
     22.861  0.5072E+01  0.5843E+02
     23.003  0.3609E+01  0.5894E+02
     23.146  0.1553E+01  0.5916E+02
     23.288  0.6994E+00  0.5926E+02
     23.430  0.3309E+00  0.5931E+02
     23.573 -0.1153E+00  0.5929E+02
     23.715  0.8306E+00  0.5941E+02
     23.857  0.3161E+01  0.5986E+02
     24.000  0.3704E+01  0.6039E+02
     24.142  0.2818E+01  0.6079E+02
     24.284  0.2229E+01  0.6110E+02
     24.427  0.9491E+00  0.6124E+02
     24.569 -0.1212E+00  0.6122E+02
     24.712  0.5189E-01  0.6123E+02
     24.854  0.2168E+01  0.6154E+02
     24.996  0.3540E+01  0.6204E+02
     25.139  0.1250E+01  0.6222E+02
     25.281 -0.2440E+00  0.6219E+02
     25.423 -0.2544E+00  0.6215E+02
     25.566  0.1969E+01  0.6243E+02
     25.708  0.5179E+01  0.6317E+02
     25.850  0.2880E+01  0.6358E+02
     25.993  0.1008E-01  0.6358E+02
     26.135  0.2450E+00  0.6361E+02
     26.278  0.1485E+01  0.6382E+02
     26.420  0.1486E+01  0.6404E+02
     26.562  0.1859E+01  0.6430E+02
     26.705  0.2941E+01  0.6472E+02
     26.847  0.1540E+01  0.6494E+02
     26.989  0.1106E+01  0.6510E+02
     27.132  0.1249E+01  0.6527E+02
     27.274  0.2269E+00  0.6531E+02
     27.417 -0.1575E+00  0.6528E+02
     27.559  0.6095E-01  0.6529E+02
     27.701  0.1356E+01  0.6549E+02
     27.844  0.3176E+01  0.6594E+02
     27.986  0.3139E+01  0.6638E+02
     28.128  0.1811E+01  0.6664E+02
     28.271  0.1005E+01  0.6679E+02
     28.413  0.6887E+00  0.6688E+02
     28.555  0.3095E+01  0.6732E+02
     28.698  0.3057E+01  0.6776E+02
     28.840  0.3580E+00  0.6781E+02
     28.983 -0.3193E-01  0.6781E+02
     29.125  0.1044E+01  0.6795E+02
     29.267  0.1380E+01  0.6815E+02
     29.410  0.9683E+00  0.6829E+02
     29.552  0.1038E+01  0.6844E+02
     29.694  0.2033E+01  0.6873E+02
     29.837  0.3095E+01  0.6917E+02
     29.979  0.3134E+01  0.6961E+02
     30.121  0.1337E+01  0.6980E+02
     30.264  0.4214E+00  0.6986E+02
     30.406  0.1324E+01  0.7005E+02
     30.549  0.1666E+01  0.7029E+02
     30.691  0.7287E+00  0.7039E+02
     30.833  0.1215E+01  0.7057E+02
     30.976  0.1983E+01  0.7085E+02
     31.118  0.1609E+01  0.7108E+02
     31.260  0.2607E+01  0.7145E+02
     31.403  0.3320E+01  0.7192E+02
     31.545  0.2768E+01  0.7232E+02
     31.688  0.1960E+01  0.7259E+02
     31.830  0.2104E+01  0.7289E+02
     31.972  0.1746E+01  0.7314E+02
     32.115  0.3296E+00  0.7319E+02
     32.257  0.3747E-01  0.7319E+02
     32.399  0.2898E+01  0.7361E+02
     32.542  0.4328E+01  0.7422E+02
     32.684  0.1188E+01  0.7439E+02
     32.826 -0.2156E+00  0.7436E+02
     32.969 -0.1085E+00  0.7435E+02
     33.111 -0.5668E-01  0.7434E+02
     33.254  0.3628E+00  0.7439E+02
     33.396  0.1836E+01  0.7465E+02
     33.538  0.5234E+01  0.7540E+02
     33.681  0.6966E+01  0.7639E+02
     33.823  0.4895E+01  0.7709E+02
     33.965  0.1782E+01  0.7734E+02
     34.108  0.6221E+00  0.7743E+02
     34.250  0.2865E+00  0.7747E+02
     34.392  0.6517E+00  0.7756E+02
     34.535  0.4217E+00  0.7762E+02
     34.677 -0.2961E-01  0.7762E+02
     34.820  0.1260E+01  0.7780E+02
     34.962  0.3066E+01  0.7823E+02
     35.104  0.1969E+01  0.7851E+02
     35.247  0.7056E+00  0.7861E+02
     35.389  0.1342E+01  0.7880E+02
     35.531  0.9716E+00  0.7894E+02
     35.674 -0.3842E-01  0.7894E+02
     35.816  0.2096E+00  0.7897E+02
     35.959  0.1660E+01  0.7920E+02
     36.101  0.2094E+01  0.7950E+02
     36.243  0.8365E+00  0.7962E+02
     36.386 -0.6148E-01  0.7961E+02
     36.528  0.1651E+00  0.7964E+02
     36.670  0.1290E+01  0.7982E+02
     36.813  0.1202E+01  0.7999E+02
     36.955  0.1470E+00  0.8001E+02
     37.097 -0.6751E-01  0.8000E+02
     37.240 -0.1151E-01  0.8000E+02
     37.382 -0.4745E-03  0.8000E+02
     37.525 -0.6209E-05  0.8000E+02
     37.667 -0.2761E-07  0.8000E+02
     37.809 -0.4288E-10  0.8000E+02
     37.952 -0.2396E-13  0.8000E+02
     38.094  0.0000E+00  0.8000E+02
     38.236  0.0000E+00  0.8000E+02
     38.379  0.0000E+00  0.8000E+02
     38.521  0.0000E+00  0.8000E+02
     38.663  0.0000E+00  0.8000E+02
