    4    4    1    1
  0.1022208E+02  0.3445083E-09  0.3445083E-09  0.3445083E-09  0.5000000E-15
  1.000000000000000E-004
  CAR 
 unknown system                          
     32     10     40
 
  0.0000000E+00  0.0000000E+00  0.0000000E+00  0.8000000E-02
    1       -2.046496   1.000000
    2        1.766187   1.000000
    3        1.766187   1.000000
    4        1.766187   1.000000
    5        2.407129   1.000000
    6        2.407129   1.000000
    7        2.407129   1.000000
    8        4.887835   1.000000
    9        4.887835   1.000000
   10        4.887835   1.000000
   11        6.646808   0.163939
   12        6.646808   0.163939
   13        7.588374  -0.000000
   14        7.588374  -0.000000
   15        7.588374  -0.000000
   16        7.811383  -0.000000
   17        7.811383  -0.000000
   18        7.811383  -0.000000
   19        7.811383  -0.000000
   20        7.811383  -0.000000
   21        7.811383  -0.000000
   22       10.045185  -0.000000
   23       10.045185  -0.000000
   24       10.045185  -0.000000
   25       18.778779   0.000000
   26       18.778779   0.000000
   27       18.778779   0.000000
   28       23.047372   0.000000
   29       23.047372   0.000000
   30       23.047372   0.000000
   31       23.047372   0.000000
   32       23.047372   0.000000
   33       23.047372   0.000000
   34       29.084510   0.000000
   35       29.084510   0.000000
   36       29.084510   0.000000
   37       30.230912   0.000000
   38       33.504212   0.000000
   39       33.504212   0.000000
   40       33.504212   0.000000
 
  0.2000000E+00  0.0000000E+00  0.0000000E+00  0.4800000E-01
    1       -1.486916   1.000000
    2        1.894249   1.000000
    3        2.094065   1.000000
    4        2.094065   1.000000
    5        2.629791   1.000000
    6        2.682282   1.000000
    7        2.682282   1.000000
    8        4.621504   1.000000
    9        5.116338   1.000000
   10        5.116338   1.000000
   11        6.237732   1.022869
   12        6.386335   1.004101
   13        6.386335   1.004101
   14        6.755587  -0.023500
   15        7.118407  -0.000275
   16        7.118407  -0.000275
   17        7.464944  -0.000000
   18        7.464944  -0.000000
   19        7.487095  -0.000000
   20        7.828218  -0.000000
   21        7.828218  -0.000000
   22        8.206027  -0.000000
   23       11.832015  -0.000000
   24       11.832015  -0.000000
   25       18.753428   0.000000
   26       18.753428   0.000000
   27       21.119689   0.000000
   28       21.119689   0.000000
   29       21.406613   0.000000
   30       21.968050   0.000000
   31       21.968050   0.000000
   32       23.984233   0.000000
   33       23.984233   0.000000
   34       29.160171   0.000000
   35       29.955968   0.000000
   36       31.522358   0.000000
   37       31.522358   0.000000
   38       33.273459   0.000000
   39       33.528434   0.000000
   40       33.528453   0.000000
 
  0.4000000E+00  0.0000000E+00  0.0000000E+00  0.4800000E-01
    1        0.015283   1.000000
    2        1.536766   1.000000
    3        2.736550   1.000000
    4        2.736550   1.000000
    5        3.155813   1.000000
    6        3.403033   1.000000
    7        3.403033   1.000000
    8        3.962033   1.000000
    9        4.708769   1.000000
   10        4.708769   1.000000
   11        5.712772   1.000000
   12        5.779986   1.000000
   13        5.779986   1.000000
   14        5.872356   1.000007
   15        6.424002   0.950060
   16        6.424002   0.950060
   17        6.497486   0.745645
   18        6.497486   0.745645
   19        7.054178  -0.001277
   20        7.226968  -0.000012
   21        7.685576  -0.000000
   22        7.685576  -0.000000
   23       14.726597   0.000000
   24       14.726597   0.000000
   25       17.876342   0.000000
   26       17.876342   0.000000
   27       18.689650   0.000000
   28       18.689650   0.000000
   29       20.683450   0.000000
   30       20.683450   0.000000
   31       25.773161   0.000000
   32       26.412344   0.000000
   33       26.412344   0.000000
   34       29.111226   0.000000
   35       29.503982   0.000000
   36       29.944290   0.000000
   37       29.946450   0.000000
   38       29.946450   0.000000
   39       34.821529   0.000000
   40       36.022821   0.000000
 
  0.2000000E+00  0.2000000E+00  0.0000000E+00  0.9600000E-01
    1       -0.953607   1.000000
    2        2.242774   1.000000
    3        2.242774   1.000000
    4        2.333312   1.000000
    5        2.854947   1.000000
    6        2.869244   1.000000
    7        2.869244   1.000000
    8        4.532635   1.000000
    9        5.199647   1.000000
   10        5.204385   1.000000
   11        5.747615   1.000000
   12        5.888097   1.000011
   13        5.888097   1.000011
   14        6.139221   1.005775
   15        6.718521   0.010035
   16        6.775118  -0.031715
   17        7.184266  -0.000045
   18        7.184266  -0.000045
   19        7.370654  -0.000000
   20        7.370654  -0.000000
   21        7.519505  -0.000000
   22       10.008408  -0.000000
   23       10.008408  -0.000000
   24       13.003609   0.000000
   25       17.368751   0.000000
   26       19.201538   0.000000
   27       21.383087   0.000000
   28       21.383087   0.000000
   29       21.906057   0.000000
   30       21.906057   0.000000
   31       22.931167   0.000000
   32       22.931167   0.000000
   33       24.824428   0.000000
   34       28.548892   0.000000
   35       29.728231   0.000000
   36       30.308975   0.000000
   37       31.711497   0.000000
   38       31.711497   0.000000
   39       34.361961   0.000000
   40       36.098277   0.000000
 
  0.4000000E+00  0.2000000E+00  0.0000000E+00  0.1920000E+00
    1        0.473172   1.000000
    2        1.936262   1.000000
    3        2.999803   1.000000
    4        3.055317   1.000000
    5        3.345234   1.000000
    6        3.460587   1.000000
    7        3.643814   1.000000
    8        4.012146   1.000000
    9        4.438199   1.000000
   10        4.651696   1.000000
   11        5.027619   1.000000
   12        5.180596   1.000000
   13        5.785364   1.000000
   14        6.035456   1.000680
   15        6.358197   1.025328
   16        6.535129   0.598502
   17        6.549920   0.536631
   18        6.662049   0.120542
   19        7.119271  -0.000269
   20        7.471368  -0.000000
   21        7.500373  -0.000000
   22        7.915053  -0.000000
   23       12.288156   0.000000
   24       14.606321   0.000000
   25       15.651410   0.000000
   26       18.765539   0.000000
   27       19.496316   0.000000
   28       20.534421   0.000000
   29       22.911280   0.000000
   30       23.770656   0.000000
   31       24.096730   0.000000
   32       24.254412   0.000000
   33       26.235863   0.000000
   34       26.658949   0.000000
   35       27.001927   0.000000
   36       32.431769   0.000000
   37       32.442624   0.000000
   38       33.548220   0.000000
   39       33.707435   0.000000
   40       36.663473   0.000000
 
  0.4000000E+00  0.4000000E+00  0.0000000E+00  0.9600000E-01
    1        1.638723   1.000000
    2        2.892131   1.000000
    3        2.892131   1.000000
    4        3.344652   1.000000
    5        3.704298   1.000000
    6        3.861830   1.000000
    7        3.861830   1.000000
    8        4.043264   1.000000
    9        4.224622   1.000000
   10        4.224622   1.000000
   11        4.326464   1.000000
   12        4.862760   1.000000
   13        5.732793   1.000000
   14        6.043859   1.000828
   15        6.058362   1.001152
   16        6.058362   1.001152
   17        6.071608   1.001541
   18        6.626763   0.229261
   19        6.626763   0.229261
   20        6.983568  -0.005231
   21        7.928741  -0.000000
   22        9.586069  -0.000000
   23        9.586069  -0.000000
   24       11.632483  -0.000000
   25       17.835326   0.000000
   26       20.318182   0.000000
   27       20.690296   0.000000
   28       20.690296   0.000000
   29       21.847305   0.000000
   30       21.847305   0.000000
   31       23.249001   0.000000
   32       23.877877   0.000000
   33       28.141076   0.000000
   34       28.141076   0.000000
   35       29.377084   0.000000
   36       30.936430   0.000000
   37       33.318487   0.000000
   38       35.049329   0.000000
   39       35.935845   0.000000
   40       35.935845   0.000000
 
  0.2000000E+00  0.2000000E+00  0.2000000E+00  0.6400000E-01
    1       -0.464917   1.000000
    2        2.450263   1.000000
    3        2.450263   1.000000
    4        2.450263   1.000000
    5        3.055858   1.000000
    6        3.055858   1.000000
    7        3.055858   1.000000
    8        4.514932   1.000000
    9        5.192327   1.000000
   10        5.192327   1.000000
   11        5.416680   1.000000
   12        5.416680   1.000000
   13        5.416680   1.000000
   14        6.456188   0.876613
   15        6.456188   0.876613
   16        6.473946   0.825053
   17        6.473946   0.825053
   18        6.473946   0.825053
   19        7.709276  -0.000000
   20        7.709276  -0.000000
   21        7.709276  -0.000000
   22       10.832543  -0.000000
   23       10.832543  -0.000000
   24       10.832543  -0.000000
   25       18.418507   0.000000
   26       18.418507   0.000000
   27       18.418507   0.000000
   28       21.900872   0.000000
   29       21.900872   0.000000
   30       21.900872   0.000000
   31       25.638797   0.000000
   32       25.638797   0.000000
   33       25.638797   0.000000
   34       25.689080   0.000000
   35       30.481868   0.000000
   36       30.481868   0.000000
   37       30.481868   0.000000
   38       31.139988   0.000000
   39       34.915665   0.000000
   40       34.915665   0.000000
 
  0.4000000E+00  0.2000000E+00  0.2000000E+00  0.1920000E+00
    1        0.814456   1.000000
    2        2.151214   1.000000
    3        3.047917   1.000000
    4        3.047917   1.000000
    5        3.488923   1.000000
    6        3.488923   1.000000
    7        3.638029   1.000000
    8        4.171568   1.000000
    9        4.664053   1.000000
   10        4.664053   1.000000
   11        4.865898   1.000000
   12        5.078121   1.000000
   13        5.380268   1.000000
   14        5.863302   1.000005
   15        6.040656   1.000769
   16        6.040656   1.000769
   17        6.637350   0.193648
   18        7.031560  -0.002073
   19        7.385722  -0.000000
   20        7.428281  -0.000000
   21        7.428281  -0.000000
   22        8.114001  -0.000000
   23       12.345830   0.000000
   24       12.345830   0.000000
   25       15.906234   0.000000
   26       15.906234   0.000000
   27       20.362081   0.000000
   28       22.705612   0.000000
   29       22.705612   0.000000
   30       22.716062   0.000000
   31       24.918076   0.000000
   32       24.918076   0.000000
   33       26.620693   0.000000
   34       27.888489   0.000000
   35       29.675891   0.000000
   36       31.200587   0.000000
   37       31.324337   0.000000
   38       33.517435   0.000000
   39       33.517435   0.000000
   40       34.888310   0.000000
 
  0.4000000E+00  0.4000000E+00  0.2000000E+00  0.1920000E+00
    1        1.624792   1.000000
    2        2.467212   1.000000
    3        2.467212   1.000000
    4        2.777364   1.000000
    5        3.973028   1.000000
    6        4.142623   1.000000
    7        4.142623   1.000000
    8        4.529282   1.000000
    9        4.670918   1.000000
   10        4.670918   1.000000
   11        4.876343   1.000000
   12        4.937456   1.000000
   13        5.182854   1.000000
   14        5.521511   1.000000
   15        5.521511   1.000000
   16        5.613820   1.000000
   17        6.703026   0.032615
   18        7.130054  -0.000203
   19        7.130054  -0.000203
   20        7.280979  -0.000002
   21        7.656950  -0.000000
   22        9.318082  -0.000000
   23        9.318082  -0.000000
   24       11.115600  -0.000000
   25       15.640424   0.000000
   26       17.470747   0.000000
   27       17.470747   0.000000
   28       19.761442   0.000000
   29       23.881886   0.000000
   30       25.644108   0.000000
   31       25.644108   0.000000
   32       27.699293   0.000000
   33       28.553943   0.000000
   34       28.553943   0.000000
   35       29.877941   0.000000
   36       30.852442   0.000000
   37       32.429610   0.000000
   38       33.726271   0.000000
   39       33.726271   0.000000
   40       35.358991   0.000000
 
  0.4000000E+00  0.4000000E+00  0.4000000E+00  0.6400000E-01
    1        1.687674   1.000000
    2        2.130453   1.000000
    3        2.130453   1.000000
    4        2.130453   1.000000
    5        4.524835   1.000000
    6        4.524835   1.000000
    7        4.524835   1.000000
    8        4.847529   1.000000
    9        4.847529   1.000000
   10        5.041558   1.000000
   11        5.041558   1.000000
   12        5.041558   1.000000
   13        5.729693   1.000000
   14        5.729693   1.000000
   15        5.729693   1.000000
   16        5.857501   1.000004
   17        7.127003  -0.000220
   18        7.127003  -0.000220
   19        7.403541  -0.000000
   20        7.403541  -0.000000
   21        7.403541  -0.000000
   22        8.952249  -0.000000
   23        8.952249  -0.000000
   24        8.952249  -0.000000
   25       15.490816   0.000000
   26       15.490816   0.000000
   27       15.490816   0.000000
   28       16.961583   0.000000
   29       27.863092   0.000000
   30       27.863092   0.000000
   31       27.863092   0.000000
   32       29.149108   0.000000
   33       31.448593   0.000000
   34       31.448593   0.000000
   35       31.448593   0.000000
   36       31.888917   0.000000
   37       31.888917   0.000000
   38       31.888917   0.000000
   39       33.981891   0.000000
   40       33.981891   0.000000
