       N       E                     dE             d eps       ncg     rms          rms(c)
DAV:   1     0.929804537018E+02    0.92980E+02   -0.67097E+03   880   0.433E+02
DAV:   2    -0.332117646551E+02   -0.12619E+03   -0.10878E+03   864   0.131E+02
DAV:   3    -0.385424712550E+02   -0.53307E+01   -0.51408E+01   920   0.309E+01
DAV:   4    -0.385645426967E+02   -0.22071E-01   -0.22067E-01   840   0.217E+00
DAV:   5    -0.385646495020E+02   -0.10681E-03   -0.10681E-03   904   0.137E-01    0.311E+01
DAV:   6    -0.307285642181E+02    0.78361E+01   -0.14781E+01   824   0.395E+01    0.322E+00
DAV:   7    -0.305046267989E+02    0.22394E+00   -0.75749E-01   848   0.737E+00    0.144E+00
DAV:   8    -0.304812220220E+02    0.23405E-01   -0.56327E-03   880   0.434E-01    0.866E-01
DAV:   9    -0.304664027296E+02    0.14819E-01   -0.38428E-03   856   0.316E-01    0.627E-02
DAV:  10    -0.304662032289E+02    0.19950E-03   -0.13252E-04   896   0.487E-02    0.339E-02
DAV:  11    -0.304661217951E+02    0.81434E-04   -0.21548E-06   848   0.853E-03    0.716E-03
DAV:  12    -0.304661185267E+02    0.32683E-05   -0.17087E-07   448   0.489E-03    0.121E-03
DAV:  13    -0.304661189446E+02   -0.41790E-06   -0.55450E-08   448   0.120E-03
   1 F= -.30466119E+02 E0= -.30453122E+02  d E =-.389921E-01
