unknown system                          
   1.00000000000000     
     3.635000    0.000000    0.000000
     0.000000    3.635000    0.000000
     0.000000    0.000000    3.635000
   Cu
     4
Direct
  0.000000  0.000000  0.000000
  0.500000  0.500000  0.000000
  0.500000  0.000000  0.500000
  0.000000  0.500000  0.500000
 
   20   20   20
 0.57094575168E+03 0.49725036796E+03 0.32828299237E+03 0.16499566625E+03 0.71752654587E+02
 0.41290595723E+02 0.23523738949E+02 0.10096246719E+02 0.81996591080E+01 0.14161094885E+02
 0.17916362442E+02 0.14161094885E+02 0.81996591080E+01 0.10096246719E+02 0.23523738949E+02
 0.41290595723E+02 0.71752654587E+02 0.16499566625E+03 0.32828299237E+03 0.49725036796E+03
 0.49725036796E+03 0.43205618895E+03 0.28412457301E+03 0.14392097862E+03 0.65758430386E+02
 0.39568509889E+02 0.22209751887E+02 0.96559464282E+01 0.72285882938E+01 0.11406517854E+02
 0.14161094885E+02 0.11406517854E+02 0.72285882938E+01 0.96559464282E+01 0.22209751887E+02
 0.39568509889E+02 0.65758430386E+02 0.14392097862E+03 0.28412457301E+03 0.43205618895E+03
 0.32828299237E+03 0.28412457301E+03 0.18682139838E+03 0.99536920699E+02 0.53469165460E+02
 0.34358188437E+02 0.18489381369E+02 0.86480122555E+01 0.60185940177E+01 0.72285882938E+01
 0.81996591080E+01 0.72285882938E+01 0.60185940177E+01 0.86480122555E+01 0.18489381369E+02
 0.34358188437E+02 0.53469165460E+02 0.99536920699E+02 0.18682139838E+03 0.28412457301E+03
 0.16499566625E+03 0.14392097862E+03 0.99536920699E+02 0.62553629846E+02 0.42001346719E+02
 0.26182093054E+02 0.14027902805E+02 0.88999161482E+01 0.86480122555E+01 0.96559464282E+01
 0.10096246719E+02 0.96559464282E+01 0.86480122555E+01 0.88999161482E+01 0.14027902805E+02
 0.26182093054E+02 0.42001346719E+02 0.62553629846E+02 0.99536920699E+02 0.14392097862E+03
 0.71752654587E+02 0.65758430386E+02 0.53469165460E+02 0.42001346719E+02 0.29704515866E+02
 0.18155347677E+02 0.12707679506E+02 0.14027902805E+02 0.18489381369E+02 0.22209751887E+02
 0.23523738949E+02 0.22209751887E+02 0.18489381369E+02 0.14027902805E+02 0.12707679506E+02
 0.18155347677E+02 0.29704515866E+02 0.42001346719E+02 0.53469165460E+02 0.65758430386E+02
 0.41290595723E+02 0.39568509889E+02 0.34358188437E+02 0.26182093054E+02 0.18155347677E+02
 0.14756041485E+02 0.18155347677E+02 0.26182093054E+02 0.34358188437E+02 0.39568509889E+02
 0.41290595723E+02 0.39568509889E+02 0.34358188437E+02 0.26182093054E+02 0.18155347677E+02
 0.14756041485E+02 0.18155347677E+02 0.26182093054E+02 0.34358188437E+02 0.39568509889E+02
 0.23523738949E+02 0.22209751887E+02 0.18489381369E+02 0.14027902805E+02 0.12707679506E+02
 0.18155347677E+02 0.29704515866E+02 0.42001346719E+02 0.53469165460E+02 0.65758430386E+02
 0.71752654587E+02 0.65758430386E+02 0.53469165460E+02 0.42001346719E+02 0.29704515866E+02
 0.18155347677E+02 0.12707679506E+02 0.14027902805E+02 0.18489381369E+02 0.22209751887E+02
 0.10096246719E+02 0.96559464282E+01 0.86480122555E+01 0.88999161482E+01 0.14027902805E+02
 0.26182093054E+02 0.42001346719E+02 0.62553629846E+02 0.99536920699E+02 0.14392097862E+03
 0.16499566625E+03 0.14392097862E+03 0.99536920699E+02 0.62553629846E+02 0.42001346719E+02
 0.26182093054E+02 0.14027902805E+02 0.88999161482E+01 0.86480122555E+01 0.96559464282E+01
 0.81996591080E+01 0.72285882938E+01 0.60185940177E+01 0.86480122555E+01 0.18489381369E+02
 0.34358188437E+02 0.53469165460E+02 0.99536920699E+02 0.18682139838E+03 0.28412457301E+03
 0.32828299237E+03 0.28412457301E+03 0.18682139838E+03 0.99536920699E+02 0.53469165460E+02
 0.34358188437E+02 0.18489381369E+02 0.86480122555E+01 0.60185940177E+01 0.72285882938E+01
 0.14161094885E+02 0.11406517854E+02 0.72285882938E+01 0.96559464282E+01 0.22209751887E+02
 0.39568509889E+02 0.65758430386E+02 0.14392097862E+03 0.28412457301E+03 0.43205618895E+03
 0.49725036796E+03 0.43205618895E+03 0.28412457301E+03 0.14392097862E+03 0.65758430386E+02
 0.39568509889E+02 0.22209751887E+02 0.96559464282E+01 0.72285882938E+01 0.11406517854E+02
 0.17916362442E+02 0.14161094885E+02 0.81996591080E+01 0.10096246719E+02 0.23523738949E+02
 0.41290595723E+02 0.71752654587E+02 0.16499566625E+03 0.32828299237E+03 0.49725036796E+03
 0.57094575168E+03 0.49725036796E+03 0.32828299237E+03 0.16499566625E+03 0.71752654587E+02
 0.41290595723E+02 0.23523738949E+02 0.10096246719E+02 0.81996591080E+01 0.14161094885E+02
 0.14161094885E+02 0.11406517854E+02 0.72285882938E+01 0.96559464282E+01 0.22209751887E+02
 0.39568509889E+02 0.65758430386E+02 0.14392097862E+03 0.28412457301E+03 0.43205618895E+03
 0.49725036796E+03 0.43205618895E+03 0.28412457301E+03 0.14392097862E+03 0.65758430386E+02
 0.39568509889E+02 0.22209751887E+02 0.96559464282E+01 0.72285882938E+01 0.11406517854E+02
 0.81996591080E+01 0.72285882938E+01 0.60185940177E+01 0.86480122555E+01 0.18489381369E+02
 0.34358188437E+02 0.53469165460E+02 0.99536920699E+02 0.18682139838E+03 0.28412457301E+03
 0.32828299237E+03 0.28412457301E+03 0.18682139838E+03 0.99536920699E+02 0.53469165460E+02
 0.34358188437E+02 0.18489381369E+02 0.86480122555E+01 0.60185940177E+01 0.72285882938E+01
 0.10096246719E+02 0.96559464282E+01 0.86480122555E+01 0.88999161482E+01 0.14027902805E+02
 0.26182093054E+02 0.42001346719E+02 0.62553629846E+02 0.99536920699E+02 0.14392097862E+03
 0.16499566625E+03 0.14392097862E+03 0.99536920699E+02 0.62553629846E+02 0.42001346719E+02
 0.26182093054E+02 0.14027902805E+02 0.88999161482E+01 0.86480122555E+01 0.96559464282E+01
 0.23523738949E+02 0.22209751887E+02 0.18489381369E+02 0.14027902805E+02 0.12707679506E+02
 0.18155347677E+02 0.29704515866E+02 0.42001346719E+02 0.53469165460E+02 0.65758430386E+02
 0.71752654587E+02 0.65758430386E+02 0.53469165460E+02 0.42001346719E+02 0.29704515866E+02
 0.18155347677E+02 0.12707679506E+02 0.14027902805E+02 0.18489381369E+02 0.22209751887E+02
 0.41290595723E+02 0.39568509889E+02 0.34358188437E+02 0.26182093054E+02 0.18155347677E+02
 0.14756041485E+02 0.18155347677E+02 0.26182093054E+02 0.34358188437E+02 0.39568509889E+02
 0.41290595723E+02 0.39568509889E+02 0.34358188437E+02 0.26182093054E+02 0.18155347677E+02
 0.14756041485E+02 0.18155347677E+02 0.26182093054E+02 0.34358188437E+02 0.39568509889E+02
 0.71752654587E+02 0.65758430386E+02 0.53469165460E+02 0.42001346719E+02 0.29704515866E+02
 0.18155347677E+02 0.12707679506E+02 0.14027902805E+02 0.18489381369E+02 0.22209751887E+02
 0.23523738949E+02 0.22209751887E+02 0.18489381369E+02 0.14027902805E+02 0.12707679506E+02
 0.18155347677E+02 0.29704515866E+02 0.42001346719E+02 0.53469165460E+02 0.65758430386E+02
 0.16499566625E+03 0.14392097862E+03 0.99536920699E+02 0.62553629846E+02 0.42001346719E+02
 0.26182093054E+02 0.14027902805E+02 0.88999161482E+01 0.86480122555E+01 0.96559464282E+01
 0.10096246719E+02 0.96559464282E+01 0.86480122555E+01 0.88999161482E+01 0.14027902805E+02
 0.26182093054E+02 0.42001346719E+02 0.62553629846E+02 0.99536920699E+02 0.14392097862E+03
 0.32828299237E+03 0.28412457301E+03 0.18682139838E+03 0.99536920699E+02 0.53469165460E+02
 0.34358188437E+02 0.18489381369E+02 0.86480122555E+01 0.60185940177E+01 0.72285882938E+01
 0.81996591080E+01 0.72285882938E+01 0.60185940177E+01 0.86480122555E+01 0.18489381369E+02
 0.34358188437E+02 0.53469165460E+02 0.99536920699E+02 0.18682139838E+03 0.28412457301E+03
 0.49725036796E+03 0.43205618895E+03 0.28412457301E+03 0.14392097862E+03 0.65758430386E+02
 0.39568509889E+02 0.22209751887E+02 0.96559464282E+01 0.72285882938E+01 0.11406517854E+02
 0.14161094885E+02 0.11406517854E+02 0.72285882938E+01 0.96559464282E+01 0.22209751887E+02
 0.39568509889E+02 0.65758430386E+02 0.14392097862E+03 0.28412457301E+03 0.43205618895E+03
 0.49725036796E+03 0.43205618895E+03 0.28412457301E+03 0.14392097862E+03 0.65758430386E+02
 0.39568509889E+02 0.22209751887E+02 0.96559464282E+01 0.72285882938E+01 0.11406517854E+02
 0.14161094885E+02 0.11406517854E+02 0.72285882938E+01 0.96559464282E+01 0.22209751887E+02
 0.39568509889E+02 0.65758430386E+02 0.14392097862E+03 0.28412457301E+03 0.43205618895E+03
 0.43205618895E+03 0.37472137547E+03 0.24585583477E+03 0.12591225138E+03 0.60494885585E+02
 0.37679284692E+02 0.21010617407E+02 0.94915545355E+01 0.67624937024E+01 0.94857038527E+01
 0.11406517854E+02 0.94857038527E+01 0.67624937024E+01 0.94915545355E+01 0.21010617407E+02
 0.37679284692E+02 0.60494885585E+02 0.12591225138E+03 0.24585583477E+03 0.37472137547E+03
 0.28412457301E+03 0.24585583477E+03 0.16215363369E+03 0.88139727432E+02 0.49553587820E+02
 0.32169935489E+02 0.17635143854E+02 0.90014153481E+01 0.63988224866E+01 0.67624937024E+01
 0.72285882938E+01 0.67624937024E+01 0.63988224866E+01 0.90014153481E+01 0.17635143854E+02
 0.32169935489E+02 0.49553587820E+02 0.88139727432E+02 0.16215363369E+03 0.24585583477E+03
 0.14392097862E+03 0.12591225138E+03 0.88139727432E+02 0.56814638645E+02 0.38858889495E+02
 0.24192228435E+02 0.13567451503E+02 0.93176157911E+01 0.90014153481E+01 0.94915545355E+01
 0.96559464282E+01 0.94915545355E+01 0.90014153481E+01 0.93176157911E+01 0.13567451503E+02
 0.24192228435E+02 0.38858889495E+02 0.56814638645E+02 0.88139727432E+02 0.12591225138E+03
 0.65758430386E+02 0.60494885585E+02 0.49553587820E+02 0.38858889495E+02 0.27125805499E+02
 0.16793376472E+02 0.12196070191E+02 0.13567451503E+02 0.17635143854E+02 0.21010617407E+02
 0.22209751887E+02 0.21010617407E+02 0.17635143854E+02 0.13567451503E+02 0.12196070191E+02
 0.16793376472E+02 0.27125805499E+02 0.38858889495E+02 0.49553587820E+02 0.60494885585E+02
 0.39568509889E+02 0.37679284692E+02 0.32169935489E+02 0.24192228435E+02 0.16793376472E+02
 0.13744240952E+02 0.16793376472E+02 0.24192228435E+02 0.32169935489E+02 0.37679284692E+02
 0.39568509889E+02 0.37679284692E+02 0.32169935489E+02 0.24192228435E+02 0.16793376472E+02
 0.13744240952E+02 0.16793376472E+02 0.24192228435E+02 0.32169935489E+02 0.37679284692E+02
 0.22209751887E+02 0.21010617407E+02 0.17635143854E+02 0.13567451503E+02 0.12196070191E+02
 0.16793376472E+02 0.27125805499E+02 0.38858889495E+02 0.49553587820E+02 0.60494885585E+02
 0.65758430386E+02 0.60494885585E+02 0.49553587820E+02 0.38858889495E+02 0.27125805499E+02
 0.16793376472E+02 0.12196070191E+02 0.13567451503E+02 0.17635143854E+02 0.21010617407E+02
 0.96559464282E+01 0.94915545355E+01 0.90014153481E+01 0.93176157911E+01 0.13567451503E+02
 0.24192228435E+02 0.38858889495E+02 0.56814638645E+02 0.88139727432E+02 0.12591225138E+03
 0.14392097862E+03 0.12591225138E+03 0.88139727432E+02 0.56814638645E+02 0.38858889495E+02
 0.24192228435E+02 0.13567451503E+02 0.93176157911E+01 0.90014153481E+01 0.94915545355E+01
 0.72285882938E+01 0.67624937024E+01 0.63988224866E+01 0.90014153481E+01 0.17635143854E+02
 0.32169935489E+02 0.49553587820E+02 0.88139727432E+02 0.16215363369E+03 0.24585583477E+03
 0.28412457301E+03 0.24585583477E+03 0.16215363369E+03 0.88139727432E+02 0.49553587820E+02
 0.32169935489E+02 0.17635143854E+02 0.90014153481E+01 0.63988224866E+01 0.67624937024E+01
 0.11406517854E+02 0.94857038527E+01 0.67624937024E+01 0.94915545355E+01 0.21010617407E+02
 0.37679284692E+02 0.60494885585E+02 0.12591225138E+03 0.24585583477E+03 0.37472137547E+03
 0.43205618895E+03 0.37472137547E+03 0.24585583477E+03 0.12591225138E+03 0.60494885585E+02
 0.37679284692E+02 0.21010617407E+02 0.94915545355E+01 0.67624937024E+01 0.94857038527E+01
 0.14161094885E+02 0.11406517854E+02 0.72285882938E+01 0.96559464282E+01 0.22209751887E+02
 0.39568509889E+02 0.65758430386E+02 0.14392097862E+03 0.28412457301E+03 0.43205618895E+03
 0.49725036796E+03 0.43205618895E+03 0.28412457301E+03 0.14392097862E+03 0.65758430386E+02
 0.39568509889E+02 0.22209751887E+02 0.96559464282E+01 0.72285882938E+01 0.11406517854E+02
 0.11406517854E+02 0.94857038527E+01 0.67624937024E+01 0.94915545355E+01 0.21010617407E+02
 0.37679284692E+02 0.60494885585E+02 0.12591225138E+03 0.24585583477E+03 0.37472137547E+03
 0.43205618895E+03 0.37472137547E+03 0.24585583477E+03 0.12591225138E+03 0.60494885585E+02
 0.37679284692E+02 0.21010617407E+02 0.94915545355E+01 0.67624937024E+01 0.94857038527E+01
 0.72285882938E+01 0.67624937024E+01 0.63988224866E+01 0.90014153481E+01 0.17635143854E+02
 0.32169935489E+02 0.49553587820E+02 0.88139727432E+02 0.16215363369E+03 0.24585583477E+03
 0.28412457301E+03 0.24585583477E+03 0.16215363369E+03 0.88139727432E+02 0.49553587820E+02
 0.32169935489E+02 0.17635143854E+02 0.90014153481E+01 0.63988224866E+01 0.67624937024E+01
 0.96559464282E+01 0.94915545355E+01 0.90014153481E+01 0.93176157911E+01 0.13567451503E+02
 0.24192228435E+02 0.38858889495E+02 0.56814638645E+02 0.88139727432E+02 0.12591225138E+03
 0.14392097862E+03 0.12591225138E+03 0.88139727432E+02 0.56814638645E+02 0.38858889495E+02
 0.24192228435E+02 0.13567451503E+02 0.93176157911E+01 0.90014153481E+01 0.94915545355E+01
 0.22209751887E+02 0.21010617407E+02 0.17635143854E+02 0.13567451503E+02 0.12196070191E+02
 0.16793376472E+02 0.27125805499E+02 0.38858889495E+02 0.49553587820E+02 0.60494885585E+02
 0.65758430386E+02 0.60494885585E+02 0.49553587820E+02 0.38858889495E+02 0.27125805499E+02
 0.16793376472E+02 0.12196070191E+02 0.13567451503E+02 0.17635143854E+02 0.21010617407E+02
 0.39568509889E+02 0.37679284692E+02 0.32169935489E+02 0.24192228435E+02 0.16793376472E+02
 0.13744240952E+02 0.16793376472E+02 0.24192228435E+02 0.32169935489E+02 0.37679284692E+02
 0.39568509889E+02 0.37679284692E+02 0.32169935489E+02 0.24192228435E+02 0.16793376472E+02
 0.13744240952E+02 0.16793376472E+02 0.24192228435E+02 0.32169935489E+02 0.37679284692E+02
 0.65758430386E+02 0.60494885585E+02 0.49553587820E+02 0.38858889495E+02 0.27125805499E+02
 0.16793376472E+02 0.12196070191E+02 0.13567451503E+02 0.17635143854E+02 0.21010617407E+02
 0.22209751887E+02 0.21010617407E+02 0.17635143854E+02 0.13567451503E+02 0.12196070191E+02
 0.16793376472E+02 0.27125805499E+02 0.38858889495E+02 0.49553587820E+02 0.60494885585E+02
 0.14392097862E+03 0.12591225138E+03 0.88139727432E+02 0.56814638645E+02 0.38858889495E+02
 0.24192228435E+02 0.13567451503E+02 0.93176157911E+01 0.90014153481E+01 0.94915545355E+01
 0.96559464282E+01 0.94915545355E+01 0.90014153481E+01 0.93176157911E+01 0.13567451503E+02
 0.24192228435E+02 0.38858889495E+02 0.56814638645E+02 0.88139727432E+02 0.12591225138E+03
 0.28412457301E+03 0.24585583477E+03 0.16215363369E+03 0.88139727432E+02 0.49553587820E+02
 0.32169935489E+02 0.17635143854E+02 0.90014153481E+01 0.63988224866E+01 0.67624937024E+01
 0.72285882938E+01 0.67624937024E+01 0.63988224866E+01 0.90014153481E+01 0.17635143854E+02
 0.32169935489E+02 0.49553587820E+02 0.88139727432E+02 0.16215363369E+03 0.24585583477E+03
 0.43205618895E+03 0.37472137547E+03 0.24585583477E+03 0.12591225138E+03 0.60494885585E+02
 0.37679284692E+02 0.21010617407E+02 0.94915545355E+01 0.67624937024E+01 0.94857038527E+01
 0.11406517854E+02 0.94857038527E+01 0.67624937024E+01 0.94915545355E+01 0.21010617407E+02
 0.37679284692E+02 0.60494885585E+02 0.12591225138E+03 0.24585583477E+03 0.37472137547E+03
 0.32828299237E+03 0.28412457301E+03 0.18682139838E+03 0.99536920699E+02 0.53469165460E+02
 0.34358188437E+02 0.18489381369E+02 0.86480122555E+01 0.60185940177E+01 0.72285882938E+01
 0.81996591080E+01 0.72285882938E+01 0.60185940177E+01 0.86480122555E+01 0.18489381369E+02
 0.34358188437E+02 0.53469165460E+02 0.99536920699E+02 0.18682139838E+03 0.28412457301E+03
 0.28412457301E+03 0.24585583477E+03 0.16215363369E+03 0.88139727432E+02 0.49553587820E+02
 0.32169935489E+02 0.17635143854E+02 0.90014153481E+01 0.63988224866E+01 0.67624937024E+01
 0.72285882938E+01 0.67624937024E+01 0.63988224866E+01 0.90014153481E+01 0.17635143854E+02
 0.32169935489E+02 0.49553587820E+02 0.88139727432E+02 0.16215363369E+03 0.24585583477E+03
 0.18682139838E+03 0.16215363369E+03 0.10933855557E+03 0.64408528900E+02 0.40926672922E+02
 0.26486098409E+02 0.15291104498E+02 0.95317202796E+01 0.73658046402E+01 0.63988224866E+01
 0.60185940177E+01 0.63988224866E+01 0.73658046402E+01 0.95317202796E+01 0.15291104498E+02
 0.26486098409E+02 0.40926672922E+02 0.64408528900E+02 0.10933855557E+03 0.16215363369E+03
 0.99536920699E+02 0.88139727432E+02 0.64408528900E+02 0.44600945034E+02 0.31187003716E+02
 0.19550656431E+02 0.12475852676E+02 0.10043943890E+02 0.95317202796E+01 0.90014153481E+01
 0.86480122555E+01 0.90014153481E+01 0.95317202796E+01 0.10043943890E+02 0.12475852676E+02
 0.19550656431E+02 0.31187003716E+02 0.44600945034E+02 0.64408528900E+02 0.88139727432E+02
 0.53469165460E+02 0.49553587820E+02 0.40926672922E+02 0.31187003716E+02 0.21247240230E+02
 0.14012712664E+02 0.11298116770E+02 0.12475852676E+02 0.15291104498E+02 0.17635143854E+02
 0.18489381369E+02 0.17635143854E+02 0.15291104498E+02 0.12475852676E+02 0.11298116770E+02
 0.14012712664E+02 0.21247240230E+02 0.31187003716E+02 0.40926672922E+02 0.49553587820E+02
 0.34358188437E+02 0.32169935489E+02 0.26486098409E+02 0.19550656431E+02 0.14012712664E+02
 0.11914626742E+02 0.14012712664E+02 0.19550656431E+02 0.26486098409E+02 0.32169935489E+02
 0.34358188437E+02 0.32169935489E+02 0.26486098409E+02 0.19550656431E+02 0.14012712664E+02
 0.11914626742E+02 0.14012712664E+02 0.19550656431E+02 0.26486098409E+02 0.32169935489E+02
 0.18489381369E+02 0.17635143854E+02 0.15291104498E+02 0.12475852676E+02 0.11298116770E+02
 0.14012712664E+02 0.21247240230E+02 0.31187003716E+02 0.40926672922E+02 0.49553587820E+02
 0.53469165460E+02 0.49553587820E+02 0.40926672922E+02 0.31187003716E+02 0.21247240230E+02
 0.14012712664E+02 0.11298116770E+02 0.12475852676E+02 0.15291104498E+02 0.17635143854E+02
 0.86480122555E+01 0.90014153481E+01 0.95317202796E+01 0.10043943890E+02 0.12475852676E+02
 0.19550656431E+02 0.31187003716E+02 0.44600945034E+02 0.64408528900E+02 0.88139727432E+02
 0.99536920699E+02 0.88139727432E+02 0.64408528900E+02 0.44600945034E+02 0.31187003716E+02
 0.19550656431E+02 0.12475852676E+02 0.10043943890E+02 0.95317202796E+01 0.90014153481E+01
 0.60185940177E+01 0.63988224866E+01 0.73658046402E+01 0.95317202796E+01 0.15291104498E+02
 0.26486098409E+02 0.40926672922E+02 0.64408528900E+02 0.10933855557E+03 0.16215363369E+03
 0.18682139838E+03 0.16215363369E+03 0.10933855557E+03 0.64408528900E+02 0.40926672922E+02
 0.26486098409E+02 0.15291104498E+02 0.95317202796E+01 0.73658046402E+01 0.63988224866E+01
 0.72285882938E+01 0.67624937024E+01 0.63988224866E+01 0.90014153481E+01 0.17635143854E+02
 0.32169935489E+02 0.49553587820E+02 0.88139727432E+02 0.16215363369E+03 0.24585583477E+03
 0.28412457301E+03 0.24585583477E+03 0.16215363369E+03 0.88139727432E+02 0.49553587820E+02
 0.32169935489E+02 0.17635143854E+02 0.90014153481E+01 0.63988224866E+01 0.67624937024E+01
 0.81996591080E+01 0.72285882938E+01 0.60185940177E+01 0.86480122555E+01 0.18489381369E+02
 0.34358188437E+02 0.53469165460E+02 0.99536920699E+02 0.18682139838E+03 0.28412457301E+03
 0.32828299237E+03 0.28412457301E+03 0.18682139838E+03 0.99536920699E+02 0.53469165460E+02
 0.34358188437E+02 0.18489381369E+02 0.86480122555E+01 0.60185940177E+01 0.72285882938E+01
 0.72285882938E+01 0.67624937024E+01 0.63988224866E+01 0.90014153481E+01 0.17635143854E+02
 0.32169935489E+02 0.49553587820E+02 0.88139727432E+02 0.16215363369E+03 0.24585583477E+03
 0.28412457301E+03 0.24585583477E+03 0.16215363369E+03 0.88139727432E+02 0.49553587820E+02
 0.32169935489E+02 0.17635143854E+02 0.90014153481E+01 0.63988224866E+01 0.67624937024E+01
 0.60185940177E+01 0.63988224866E+01 0.73658046402E+01 0.95317202796E+01 0.15291104498E+02
 0.26486098409E+02 0.40926672922E+02 0.64408528900E+02 0.10933855557E+03 0.16215363369E+03
 0.18682139838E+03 0.16215363369E+03 0.10933855557E+03 0.64408528900E+02 0.40926672922E+02
 0.26486098409E+02 0.15291104498E+02 0.95317202796E+01 0.73658046402E+01 0.63988224866E+01
 0.86480122555E+01 0.90014153481E+01 0.95317202796E+01 0.10043943890E+02 0.12475852676E+02
 0.19550656431E+02 0.31187003716E+02 0.44600945034E+02 0.64408528900E+02 0.88139727432E+02
 0.99536920699E+02 0.88139727432E+02 0.64408528900E+02 0.44600945034E+02 0.31187003716E+02
 0.19550656431E+02 0.12475852676E+02 0.10043943890E+02 0.95317202796E+01 0.90014153481E+01
 0.18489381369E+02 0.17635143854E+02 0.15291104498E+02 0.12475852676E+02 0.11298116770E+02
 0.14012712664E+02 0.21247240230E+02 0.31187003716E+02 0.40926672922E+02 0.49553587820E+02
 0.53469165460E+02 0.49553587820E+02 0.40926672922E+02 0.31187003716E+02 0.21247240230E+02
 0.14012712664E+02 0.11298116770E+02 0.12475852676E+02 0.15291104498E+02 0.17635143854E+02
 0.34358188437E+02 0.32169935489E+02 0.26486098409E+02 0.19550656431E+02 0.14012712664E+02
 0.11914626742E+02 0.14012712664E+02 0.19550656431E+02 0.26486098409E+02 0.32169935489E+02
 0.34358188437E+02 0.32169935489E+02 0.26486098409E+02 0.19550656431E+02 0.14012712664E+02
 0.11914626742E+02 0.14012712664E+02 0.19550656431E+02 0.26486098409E+02 0.32169935489E+02
 0.53469165460E+02 0.49553587820E+02 0.40926672922E+02 0.31187003716E+02 0.21247240230E+02
 0.14012712664E+02 0.11298116770E+02 0.12475852676E+02 0.15291104498E+02 0.17635143854E+02
 0.18489381369E+02 0.17635143854E+02 0.15291104498E+02 0.12475852676E+02 0.11298116770E+02
 0.14012712664E+02 0.21247240230E+02 0.31187003716E+02 0.40926672922E+02 0.49553587820E+02
 0.99536920699E+02 0.88139727432E+02 0.64408528900E+02 0.44600945034E+02 0.31187003716E+02
 0.19550656431E+02 0.12475852676E+02 0.10043943890E+02 0.95317202796E+01 0.90014153481E+01
 0.86480122555E+01 0.90014153481E+01 0.95317202796E+01 0.10043943890E+02 0.12475852676E+02
 0.19550656431E+02 0.31187003716E+02 0.44600945034E+02 0.64408528900E+02 0.88139727432E+02
 0.18682139838E+03 0.16215363369E+03 0.10933855557E+03 0.64408528900E+02 0.40926672922E+02
 0.26486098409E+02 0.15291104498E+02 0.95317202796E+01 0.73658046402E+01 0.63988224866E+01
 0.60185940177E+01 0.63988224866E+01 0.73658046402E+01 0.95317202796E+01 0.15291104498E+02
 0.26486098409E+02 0.40926672922E+02 0.64408528900E+02 0.10933855557E+03 0.16215363369E+03
 0.28412457301E+03 0.24585583477E+03 0.16215363369E+03 0.88139727432E+02 0.49553587820E+02
 0.32169935489E+02 0.17635143854E+02 0.90014153481E+01 0.63988224866E+01 0.67624937024E+01
 0.72285882938E+01 0.67624937024E+01 0.63988224866E+01 0.90014153481E+01 0.17635143854E+02
 0.32169935489E+02 0.49553587820E+02 0.88139727432E+02 0.16215363369E+03 0.24585583477E+03
 0.16499566625E+03 0.14392097862E+03 0.99536920699E+02 0.62553629846E+02 0.42001346719E+02
 0.26182093054E+02 0.14027902805E+02 0.88999161482E+01 0.86480122555E+01 0.96559464282E+01
 0.10096246719E+02 0.96559464282E+01 0.86480122555E+01 0.88999161482E+01 0.14027902805E+02
 0.26182093054E+02 0.42001346719E+02 0.62553629846E+02 0.99536920699E+02 0.14392097862E+03
 0.14392097862E+03 0.12591225138E+03 0.88139727432E+02 0.56814638645E+02 0.38858889495E+02
 0.24192228435E+02 0.13567451503E+02 0.93176157911E+01 0.90014153481E+01 0.94915545355E+01
 0.96559464282E+01 0.94915545355E+01 0.90014153481E+01 0.93176157911E+01 0.13567451503E+02
 0.24192228435E+02 0.38858889495E+02 0.56814638645E+02 0.88139727432E+02 0.12591225138E+03
 0.99536920699E+02 0.88139727432E+02 0.64408528900E+02 0.44600945034E+02 0.31187003716E+02
 0.19550656431E+02 0.12475852676E+02 0.10043943890E+02 0.95317202796E+01 0.90014153481E+01
 0.86480122555E+01 0.90014153481E+01 0.95317202796E+01 0.10043943890E+02 0.12475852676E+02
 0.19550656431E+02 0.31187003716E+02 0.44600945034E+02 0.64408528900E+02 0.88139727432E+02
 0.62553629846E+02 0.56814638645E+02 0.44600945034E+02 0.32941844868E+02 0.22479288020E+02
 0.14949280316E+02 0.11396779831E+02 0.10462014439E+02 0.10043943890E+02 0.93176157911E+01
 0.88999161482E+01 0.93176157911E+01 0.10043943890E+02 0.10462014439E+02 0.11396779831E+02
 0.14949280316E+02 0.22479288020E+02 0.32941844868E+02 0.44600945034E+02 0.56814638645E+02
 0.42001346719E+02 0.38858889495E+02 0.31187003716E+02 0.22479288020E+02 0.15777616887E+02
 0.12145669371E+02 0.11019588913E+02 0.11396779831E+02 0.12475852676E+02 0.13567451503E+02
 0.14027902805E+02 0.13567451503E+02 0.12475852676E+02 0.11396779831E+02 0.11019588913E+02
 0.12145669371E+02 0.15777616887E+02 0.22479288020E+02 0.31187003716E+02 0.38858889495E+02
 0.26182093054E+02 0.24192228435E+02 0.19550656431E+02 0.14949280316E+02 0.12145669371E+02
 0.11291727155E+02 0.12145669371E+02 0.14949280316E+02 0.19550656431E+02 0.24192228435E+02
 0.26182093054E+02 0.24192228435E+02 0.19550656431E+02 0.14949280316E+02 0.12145669371E+02
 0.11291727155E+02 0.12145669371E+02 0.14949280316E+02 0.19550656431E+02 0.24192228435E+02
 0.14027902805E+02 0.13567451503E+02 0.12475852676E+02 0.11396779831E+02 0.11019588913E+02
 0.12145669371E+02 0.15777616887E+02 0.22479288020E+02 0.31187003716E+02 0.38858889495E+02
 0.42001346719E+02 0.38858889495E+02 0.31187003716E+02 0.22479288020E+02 0.15777616887E+02
 0.12145669371E+02 0.11019588913E+02 0.11396779831E+02 0.12475852676E+02 0.13567451503E+02
 0.88999161482E+01 0.93176157911E+01 0.10043943890E+02 0.10462014439E+02 0.11396779831E+02
 0.14949280316E+02 0.22479288020E+02 0.32941844868E+02 0.44600945034E+02 0.56814638645E+02
 0.62553629846E+02 0.56814638645E+02 0.44600945034E+02 0.32941844868E+02 0.22479288020E+02
 0.14949280316E+02 0.11396779831E+02 0.10462014439E+02 0.10043943890E+02 0.93176157911E+01
 0.86480122555E+01 0.90014153481E+01 0.95317202796E+01 0.10043943890E+02 0.12475852676E+02
 0.19550656431E+02 0.31187003716E+02 0.44600945034E+02 0.64408528900E+02 0.88139727432E+02
 0.99536920699E+02 0.88139727432E+02 0.64408528900E+02 0.44600945034E+02 0.31187003716E+02
 0.19550656431E+02 0.12475852676E+02 0.10043943890E+02 0.95317202796E+01 0.90014153481E+01
 0.96559464282E+01 0.94915545355E+01 0.90014153481E+01 0.93176157911E+01 0.13567451503E+02
 0.24192228435E+02 0.38858889495E+02 0.56814638645E+02 0.88139727432E+02 0.12591225138E+03
 0.14392097862E+03 0.12591225138E+03 0.88139727432E+02 0.56814638645E+02 0.38858889495E+02
 0.24192228435E+02 0.13567451503E+02 0.93176157911E+01 0.90014153481E+01 0.94915545355E+01
 0.10096246719E+02 0.96559464282E+01 0.86480122555E+01 0.88999161482E+01 0.14027902805E+02
 0.26182093054E+02 0.42001346719E+02 0.62553629846E+02 0.99536920699E+02 0.14392097862E+03
 0.16499566625E+03 0.14392097862E+03 0.99536920699E+02 0.62553629846E+02 0.42001346719E+02
 0.26182093054E+02 0.14027902805E+02 0.88999161482E+01 0.86480122555E+01 0.96559464282E+01
 0.96559464282E+01 0.94915545355E+01 0.90014153481E+01 0.93176157911E+01 0.13567451503E+02
 0.24192228435E+02 0.38858889495E+02 0.56814638645E+02 0.88139727432E+02 0.12591225138E+03
 0.14392097862E+03 0.12591225138E+03 0.88139727432E+02 0.56814638645E+02 0.38858889495E+02
 0.24192228435E+02 0.13567451503E+02 0.93176157911E+01 0.90014153481E+01 0.94915545355E+01
 0.86480122555E+01 0.90014153481E+01 0.95317202796E+01 0.10043943890E+02 0.12475852676E+02
 0.19550656431E+02 0.31187003716E+02 0.44600945034E+02 0.64408528900E+02 0.88139727432E+02
 0.99536920699E+02 0.88139727432E+02 0.64408528900E+02 0.44600945034E+02 0.31187003716E+02
 0.19550656431E+02 0.12475852676E+02 0.10043943890E+02 0.95317202796E+01 0.90014153481E+01
 0.88999161482E+01 0.93176157911E+01 0.10043943890E+02 0.10462014439E+02 0.11396779831E+02
 0.14949280316E+02 0.22479288020E+02 0.32941844868E+02 0.44600945034E+02 0.56814638645E+02
 0.62553629846E+02 0.56814638645E+02 0.44600945034E+02 0.32941844868E+02 0.22479288020E+02
 0.14949280316E+02 0.11396779831E+02 0.10462014439E+02 0.10043943890E+02 0.93176157911E+01
 0.14027902805E+02 0.13567451503E+02 0.12475852676E+02 0.11396779831E+02 0.11019588913E+02
 0.12145669371E+02 0.15777616887E+02 0.22479288020E+02 0.31187003716E+02 0.38858889495E+02
 0.42001346719E+02 0.38858889495E+02 0.31187003716E+02 0.22479288020E+02 0.15777616887E+02
 0.12145669371E+02 0.11019588913E+02 0.11396779831E+02 0.12475852676E+02 0.13567451503E+02
 0.26182093054E+02 0.24192228435E+02 0.19550656431E+02 0.14949280316E+02 0.12145669371E+02
 0.11291727155E+02 0.12145669371E+02 0.14949280316E+02 0.19550656431E+02 0.24192228435E+02
 0.26182093054E+02 0.24192228435E+02 0.19550656431E+02 0.14949280316E+02 0.12145669371E+02
 0.11291727155E+02 0.12145669371E+02 0.14949280316E+02 0.19550656431E+02 0.24192228435E+02
 0.42001346719E+02 0.38858889495E+02 0.31187003716E+02 0.22479288020E+02 0.15777616887E+02
 0.12145669371E+02 0.11019588913E+02 0.11396779831E+02 0.12475852676E+02 0.13567451503E+02
 0.14027902805E+02 0.13567451503E+02 0.12475852676E+02 0.11396779831E+02 0.11019588913E+02
 0.12145669371E+02 0.15777616887E+02 0.22479288020E+02 0.31187003716E+02 0.38858889495E+02
 0.62553629846E+02 0.56814638645E+02 0.44600945034E+02 0.32941844868E+02 0.22479288020E+02
 0.14949280316E+02 0.11396779831E+02 0.10462014439E+02 0.10043943890E+02 0.93176157911E+01
 0.88999161482E+01 0.93176157911E+01 0.10043943890E+02 0.10462014439E+02 0.11396779831E+02
 0.14949280316E+02 0.22479288020E+02 0.32941844868E+02 0.44600945034E+02 0.56814638645E+02
 0.99536920699E+02 0.88139727432E+02 0.64408528900E+02 0.44600945034E+02 0.31187003716E+02
 0.19550656431E+02 0.12475852676E+02 0.10043943890E+02 0.95317202796E+01 0.90014153481E+01
 0.86480122555E+01 0.90014153481E+01 0.95317202796E+01 0.10043943890E+02 0.12475852676E+02
 0.19550656431E+02 0.31187003716E+02 0.44600945034E+02 0.64408528900E+02 0.88139727432E+02
 0.14392097862E+03 0.12591225138E+03 0.88139727432E+02 0.56814638645E+02 0.38858889495E+02
 0.24192228435E+02 0.13567451503E+02 0.93176157911E+01 0.90014153481E+01 0.94915545355E+01
 0.96559464282E+01 0.94915545355E+01 0.90014153481E+01 0.93176157911E+01 0.13567451503E+02
 0.24192228435E+02 0.38858889495E+02 0.56814638645E+02 0.88139727432E+02 0.12591225138E+03
 0.71752654587E+02 0.65758430386E+02 0.53469165460E+02 0.42001346719E+02 0.29704515866E+02
 0.18155347677E+02 0.12707679506E+02 0.14027902805E+02 0.18489381369E+02 0.22209751887E+02
 0.23523738949E+02 0.22209751887E+02 0.18489381369E+02 0.14027902805E+02 0.12707679506E+02
 0.18155347677E+02 0.29704515866E+02 0.42001346719E+02 0.53469165460E+02 0.65758430386E+02
 0.65758430386E+02 0.60494885585E+02 0.49553587820E+02 0.38858889495E+02 0.27125805499E+02