   4   4   0   0
  0.1200752E+02  0.3635000E-09  0.3635000E-09  0.3635000E-09  0.5000000E-15
  1.000000000000000E-004
  CAR 
 unknown system                          
     24.95255887    -16.76513021  301      9.72685491      1.00000000
    -16.765  0.0000E+00  0.0000E+00
    -16.626  0.0000E+00  0.0000E+00
    -16.487 -0.5403E-32 -0.7514E-33
    -16.348 -0.4859E-27 -0.6757E-28
    -16.209 -0.1648E-22 -0.2292E-23
    -16.070 -0.2109E-18 -0.2932E-19
    -15.931 -0.9786E-15 -0.1361E-15
    -15.792 -0.1778E-11 -0.2474E-12
    -15.653 -0.1199E-08 -0.1670E-09
    -15.514 -0.3019E-06 -0.4215E-07
    -15.375 -0.2810E-04 -0.3950E-05
    -15.235 -0.9426E-03 -0.1350E-03
    -15.096 -0.1035E-01 -0.1574E-02
    -14.957 -0.1854E-01 -0.4153E-02
    -14.818  0.1518E+00  0.1696E-01
    -14.679  0.4891E+00  0.8497E-01
    -14.540  0.4780E+00  0.1514E+00
    -14.401  0.3980E+00  0.2068E+00
    -14.262  0.2419E+00  0.2404E+00
    -14.123  0.1538E-01  0.2426E+00
    -13.984 -0.1590E-01  0.2403E+00
    -13.845 -0.2420E-02  0.2400E+00
    -13.706 -0.5411E-03  0.2399E+00
    -13.567 -0.1017E-01  0.2385E+00
    -13.428 -0.6961E-01  0.2288E+00
    -13.289  0.3486E-01  0.2337E+00
    -13.150  0.1171E+01  0.3965E+00
    -13.011  0.2148E+01  0.6952E+00
    -12.871  0.9676E+00  0.8298E+00
    -12.732 -0.3247E-01  0.8252E+00
    -12.593 -0.5978E-01  0.8169E+00
    -12.454 -0.6508E-02  0.8160E+00
    -12.315 -0.2634E-03  0.8160E+00
    -12.176 -0.1800E-02  0.8157E+00
    -12.037 -0.1970E-01  0.8130E+00
    -11.898 -0.2466E-01  0.8096E+00
    -11.759  0.3026E+00  0.8516E+00
    -11.620  0.7731E+00  0.9592E+00
    -11.481  0.6985E+00  0.1056E+01
    -11.342  0.5205E+00  0.1129E+01
    -11.203  0.1926E+00  0.1155E+01
    -11.064 -0.4542E-01  0.1149E+01
    -10.925 -0.1490E+00  0.1128E+01
    -10.786  0.3795E+00  0.1181E+01
    -10.647  0.2540E+01  0.1534E+01
    -10.507  0.3197E+01  0.1979E+01
    -10.368  0.9430E+00  0.2110E+01
    -10.229  0.1116E+01  0.2265E+01
    -10.090  0.3448E+01  0.2745E+01
     -9.951  0.2938E+01  0.3153E+01
     -9.812  0.1175E+01  0.3317E+01
     -9.673  0.2126E+01  0.3612E+01
     -9.534  0.4076E+01  0.4179E+01
     -9.395  0.2872E+01  0.4578E+01
     -9.256  0.1363E+01  0.4768E+01
     -9.117  0.1572E+01  0.4987E+01
     -8.978  0.2337E+01  0.5311E+01
     -8.839  0.2829E+01  0.5705E+01
     -8.700  0.1591E+01  0.5926E+01
     -8.561  0.1262E+01  0.6102E+01
     -8.422  0.2700E+01  0.6477E+01
     -8.283  0.2947E+01  0.6887E+01
     -8.143  0.2971E+01  0.7300E+01
     -8.004  0.2768E+01  0.7685E+01
     -7.865  0.1915E+01  0.7951E+01
     -7.726  0.2147E+01  0.8250E+01
     -7.587  0.1408E+01  0.8445E+01
     -7.448  0.1516E+01  0.8656E+01
     -7.309  0.3746E+01  0.9177E+01
     -7.170  0.3576E+01  0.9674E+01
     -7.031  0.2532E+01  0.1003E+02
     -6.892  0.1903E+01  0.1029E+02
     -6.753  0.6775E+00  0.1039E+02
     -6.614  0.7648E+00  0.1049E+02
     -6.475  0.2159E+01  0.1079E+02
     -6.336  0.2577E+01  0.1115E+02
     -6.197  0.1207E+01  0.1132E+02
     -6.058  0.1149E-01  0.1132E+02
     -5.919 -0.1374E+00  0.1130E+02
     -5.779  0.5151E+00  0.1137E+02
     -5.640  0.1438E+01  0.1157E+02
     -5.501  0.9266E+00  0.1170E+02
     -5.362  0.1009E+01  0.1184E+02
     -5.223  0.1388E+01  0.1203E+02
     -5.084  0.3369E+00  0.1208E+02
     -4.945 -0.9624E-01  0.1207E+02
     -4.806  0.1177E+01  0.1223E+02
     -4.667  0.3299E+01  0.1269E+02
     -4.528  0.2695E+01  0.1306E+02
     -4.389  0.3596E+00  0.1311E+02
     -4.250 -0.2791E-01  0.1311E+02
     -4.111  0.1530E+01  0.1332E+02
     -3.972  0.2125E+01  0.1362E+02
     -3.833  0.5797E+00  0.1370E+02
     -3.694 -0.1043E+00  0.1369E+02
     -3.555 -0.6254E-01  0.1368E+02
     -3.415 -0.1331E+00  0.1366E+02
     -3.276  0.2022E+00  0.1369E+02
     -3.137  0.2336E+01  0.1401E+02
     -2.998  0.3505E+01  0.1450E+02
     -2.859  0.1180E+01  0.1466E+02
     -2.720 -0.1022E+00  0.1465E+02
     -2.581  0.1297E+01  0.1483E+02
     -2.442  0.3066E+01  0.1526E+02
     -2.303  0.1802E+01  0.1551E+02
     -2.164  0.7459E-02  0.1551E+02
     -2.025  0.7386E+00  0.1561E+02
     -1.886  0.3910E+01  0.1615E+02
     -1.747  0.5782E+01  0.1696E+02
     -1.608  0.3540E+01  0.1745E+02
     -1.469  0.1446E+01  0.1765E+02
     -1.330  0.7072E+00  0.1775E+02
     -1.191  0.5789E-01  0.1776E+02
     -1.051  0.7639E+00  0.1786E+02
     -0.912  0.1649E+01  0.1809E+02
     -0.773  0.8487E+00  0.1821E+02
     -0.634  0.1789E+01  0.1846E+02
     -0.495  0.3671E+01  0.1897E+02
     -0.356  0.1913E+01  0.1924E+02
     -0.217  0.2064E+00  0.1926E+02
     -0.078  0.1070E+01  0.1941E+02
      0.061  0.1467E+01  0.1962E+02
      0.200  0.1456E+01  0.1982E+02
      0.339  0.1119E+01  0.1998E+02
      0.478  0.1901E+00  0.2000E+02
      0.617  0.8744E+00  0.2012E+02
      0.756  0.2160E+01  0.2042E+02
      0.895  0.1945E+01  0.2069E+02
      1.034  0.9747E+00  0.2083E+02
      1.173  0.9171E+00  0.2096E+02
      1.313  0.2459E+01  0.2130E+02
      1.452  0.2876E+01  0.2170E+02
      1.591  0.8991E+00  0.2182E+02
      1.730  0.2279E+01  0.2214E+02
      1.869  0.4868E+01  0.2282E+02
      2.008  0.2943E+01  0.2323E+02
      2.147  0.2040E+01  0.2351E+02
      2.286  0.2867E+01  0.2391E+02
      2.425  0.2326E+01  0.2423E+02
      2.564  0.1094E+01  0.2439E+02
      2.703  0.6872E+00  0.2448E+02
      2.842  0.6740E+00  0.2457E+02
      2.981  0.6363E+00  0.2466E+02
      3.120  0.2286E+01  0.2498E+02
      3.259  0.2612E+01  0.2534E+02
      3.398  0.3822E+00  0.2540E+02
      3.537  0.5266E+00  0.2547E+02
      3.677  0.3707E+01  0.2599E+02
      3.816  0.3892E+01  0.2653E+02
      3.955  0.1095E+01  0.2668E+02
      4.094  0.5011E-01  0.2669E+02
      4.233  0.6644E+00  0.2678E+02
      4.372  0.1643E+01  0.2701E+02
      4.511  0.1945E+01  0.2728E+02
      4.650  0.2302E+01  0.2760E+02
      4.789  0.3461E+01  0.2808E+02
      4.928  0.4511E+01  0.2871E+02
      5.067  0.3625E+01  0.2921E+02
      5.206  0.1961E+01  0.2948E+02
      5.345  0.1870E+01  0.2974E+02
      5.484  0.1651E+01  0.2997E+02
      5.623  0.3056E+00  0.3002E+02
      5.762  0.5791E+00  0.3010E+02
      5.901  0.4635E+01  0.3074E+02
      6.041  0.5707E+01  0.3153E+02
      6.180  0.3623E+01  0.3204E+02
      6.319  0.2934E+01  0.3245E+02
      6.458  0.2711E+01  0.3282E+02
      6.597  0.3021E+01  0.3324E+02
      6.736  0.2949E+01  0.3365E+02
      6.875  0.5389E+01  0.3440E+02
      7.014  0.7518E+01  0.3545E+02
      7.153  0.4871E+01  0.3613E+02
      7.292  0.1509E+01  0.3633E+02
      7.431  0.3165E+01  0.3677E+02
      7.570  0.4682E+01  0.3743E+02
      7.709  0.2933E+01  0.3783E+02
      7.848  0.2940E+01  0.3824E+02
      7.987  0.2276E+01  0.3856E+02
      8.126  0.9440E+00  0.3869E+02
      8.265  0.2083E+01  0.3898E+02
      8.405  0.3964E+01  0.3953E+02
      8.544  0.4874E+01  0.4021E+02
      8.683  0.4121E+01  0.4078E+02
      8.822  0.4241E+01  0.4137E+02
      8.961  0.3339E+01  0.4184E+02
      9.100  0.2407E+01  0.4217E+02
      9.239  0.3503E+01  0.4266E+02
      9.378  0.4442E+01  0.4328E+02
      9.517  0.2370E+01  0.4361E+02
      9.656  0.1739E+01  0.4385E+02
      9.795  0.2005E+01  0.4413E+02
      9.934  0.8026E+00  0.4424E+02
     10.073  0.5079E+00  0.4431E+02
     10.212  0.2400E+01  0.4464E+02
     10.351  0.3264E+01  0.4510E+02
     10.490  0.2630E+01  0.4546E+02
     10.629  0.3328E+01  0.4592E+02
     10.769  0.1899E+01  0.4619E+02
     10.908  0.2396E-01  0.4619E+02
     11.047 -0.1398E+00  0.4617E+02
     11.186  0.3185E+00  0.4622E+02
     11.325  0.7338E+00  0.4632E+02
     11.464  0.2238E+00  0.4635E+02
     11.603  0.2391E+00  0.4638E+02
     11.742  0.2259E+01  0.4670E+02
     11.881  0.3131E+01  0.4713E+02
     12.020  0.2325E+01  0.4746E+02
     12.159  0.2991E+01  0.4787E+02
     12.298  0.3887E+01  0.4841E+02
     12.437  0.2329E+01  0.4874E+02
     12.576  0.5369E-01  0.4874E+02
     12.715  0.8556E+00  0.4886E+02
     12.854  0.5004E+01  0.4956E+02
     12.993  0.5733E+01  0.5036E+02
     13.133  0.3768E+01  0.5088E+02
     13.272  0.3219E+01  0.5133E+02
     13.411  0.1055E+01  0.5147E+02
     13.550 -0.2845E+00  0.5143E+02
     13.689  0.9266E+00  0.5156E+02
     13.828  0.3620E+01  0.5207E+02
     13.967  0.2979E+01  0.5248E+02
     14.106  0.2085E+01  0.5277E+02
     14.245  0.5152E+01  0.5349E+02
     14.384  0.4963E+01  0.5418E+02
     14.523  0.1118E+01  0.5433E+02
     14.662 -0.2894E+00  0.5429E+02
     14.801 -0.1064E+00  0.5428E+02
     14.940  0.7062E+00  0.5438E+02
     15.079  0.1611E+01  0.5460E+02
     15.218  0.2101E+01  0.5489E+02
     15.357  0.2128E+01  0.5519E+02
     15.497  0.1533E+01  0.5540E+02
     15.636  0.1858E+01  0.5566E+02
     15.775  0.9749E+00  0.5580E+02
     15.914  0.1007E+01  0.5594E+02
     16.053  0.3717E+01  0.5645E+02
     16.192  0.5618E+01  0.5723E+02
     16.331  0.4531E+01  0.5786E+02
     16.470  0.2685E+01  0.5824E+02
     16.609  0.1659E+01  0.5847E+02
     16.748  0.4279E+00  0.5853E+02
     16.887 -0.6817E-01  0.5852E+02
     17.026 -0.4143E-01  0.5851E+02
     17.165 -0.5441E-01  0.5850E+02
     17.304 -0.1535E-01  0.5850E+02
     17.443  0.7658E+00  0.5861E+02
     17.582  0.1670E+01  0.5884E+02
     17.721  0.1779E+01  0.5909E+02
     17.861  0.1259E+01  0.5926E+02
     18.000  0.1983E+00  0.5929E+02
     18.139 -0.3435E-01  0.5929E+02
     18.278  0.2448E+00  0.5932E+02
     18.417  0.2634E+00  0.5936E+02
     18.556  0.4313E-01  0.5936E+02
     18.695 -0.1505E-01  0.5936E+02
     18.834 -0.3311E-02  0.5936E+02
     18.973 -0.3636E-03  0.5936E+02
     19.112 -0.5747E-02  0.5936E+02
     19.251 -0.5008E-01  0.5935E+02
     19.390 -0.2426E-02  0.5935E+02
     19.529  0.8326E+00  0.5947E+02
     19.668  0.1507E+01  0.5968E+02
     19.807  0.5724E+00  0.5976E+02
     19.946 -0.5439E-01  0.5975E+02
     20.085 -0.3516E-01  0.5974E+02
     20.225 -0.2966E-02  0.5974E+02
     20.364 -0.7700E-04  0.5974E+02
     20.503 -0.6947E-06  0.5974E+02
     20.642 -0.2268E-08  0.5974E+02
     20.781 -0.2730E-11  0.5974E+02
     20.920 -0.1226E-14  0.5974E+02
     21.059  0.0000E+00  0.5974E+02
     21.198  0.0000E+00  0.5974E+02
     21.337 -0.1930E-27  0.5974E+02
     21.476 -0.8219E-23  0.5974E+02
     21.615 -0.1319E-18  0.5974E+02
     21.754 -0.7964E-15  0.5974E+02
     21.893 -0.1740E-11  0.5974E+02
     22.032 -0.1455E-08  0.5974E+02
     22.171 -0.4483E-06  0.5974E+02
     22.310 -0.5002E-04  0.5974E+02
     22.449 -0.1940E-02  0.5974E+02
     22.589 -0.2318E-01  0.5974E+02
     22.728 -0.3686E-01  0.5974E+02
     22.867  0.3770E+00  0.5979E+02
     23.006  0.1004E+01  0.5993E+02
     23.145  0.5600E+00  0.6001E+02
     23.284 -0.2448E-03  0.6001E+02
     23.423 -0.3368E-01  0.6000E+02
     23.562 -0.3897E-02  0.6000E+02
     23.701 -0.1303E-03  0.6000E+02
     23.840 -0.1491E-05  0.6000E+02
     23.979 -0.6130E-08  0.6000E+02
     24.118 -0.9262E-11  0.6000E+02
     24.257 -0.5314E-14  0.6000E+02
     24.396  0.0000E+00  0.6000E+02
     24.535  0.0000E+00  0.6000E+02
     24.674  0.0000E+00  0.6000E+02
     24.813  0.0000E+00  0.6000E+02
     24.953  0.0000E+00  0.6000E+02
