    4    4    1    1
  0.1200752E+02  0.3635000E-09  0.3635000E-09  0.3635000E-09  0.5000000E-15
  1.000000000000000E-004
  CAR 
 unknown system                          
     44     10     30
 
  0.0000000E+00  0.0000000E+00  0.0000000E+00  0.8000000E-02
    1      -14.765130   1.000000
    2      -14.765130   1.000000
    3      -14.765130   1.000000
    4      -11.371673   1.000000
    5      -11.371673   1.000000
    6      -11.371673   1.000000
    7       -8.606414   1.000000
    8       -8.606414   1.000000
    9       -8.606414   1.000000
   10       -2.829298   1.000000
   11        7.822819   1.000000
   12        7.822819   1.000000
   13        7.822819   1.000000
   14        9.235269   1.001395
   15        9.235269   1.001395
   16        9.235269   1.001395
   17        9.235269   1.001395
   18        9.235269   1.001395
   19        9.235269   1.001395
   20        9.706527   0.585524
   21        9.706527   0.585524
   22        9.706527   0.585524
   23       13.799226  -0.000000
   24       13.799226  -0.000000
   25       13.799226  -0.000000
   26       18.278299   0.000000
   27       18.278299   0.000000
   28       18.278299   0.000000
   29       18.278299   0.000000
   30       18.278299   0.000000
 
  0.2000000E+00  0.0000000E+00  0.0000000E+00  0.4800000E-01
    1      -14.680659   1.000000
    2      -13.145753   1.000000
    3      -13.145753   1.000000
    4      -11.456585   1.000000
    5      -10.589231   1.000000
    6      -10.589231   1.000000
    7       -8.542292   1.000000
    8       -2.392868   1.000000
    9       -0.995961   1.000000
   10        1.067842   1.000000
   11        1.067842   1.000000
   12        1.749098   1.000000
   13        1.749098   1.000000
   14        4.508915   1.000000
   15        7.365523   1.000000
   16        7.365523   1.000000
   17        7.656637   1.000000
   18        7.656637   1.000000
   19        8.671667   1.000000
   20        8.671667   1.000000
   21        9.327313   1.008054
   22        9.327313   1.008054
   23       10.126131  -0.008089
   24       10.126131  -0.008089
   25       12.228500  -0.000000
   26       13.899292  -0.000000
   27       15.495623   0.000000
   28       15.495623   0.000000
   29       16.319751   0.000000
   30       16.319751   0.000000
 
  0.4000000E+00  0.0000000E+00  0.0000000E+00  0.4800000E-01
    1      -14.428662   1.000000
    2       -9.827007   1.000000
    3       -8.959584   1.000000
    4       -8.345847   1.000000
    5       -6.720469   1.000000
    6       -6.460967   1.000000
    7       -3.175040   1.000000
    8       -3.175040   1.000000
    9       -1.989541   1.000000
   10       -1.989541   1.000000
   11       -0.993198   1.000000
   12        1.308968   1.000000
   13        2.780562   1.000000
   14        2.780562   1.000000
   15        6.797021   1.000000
   16        6.797021   1.000000
   17        8.166834   1.000000
   18        8.166834   1.000000
   19        9.545606   1.012464
   20        9.545606   1.012464
   21       11.258718  -0.000000
   22       11.258718  -0.000000
   23       12.828608  -0.000000
   24       12.828608  -0.000000
   25       13.862191  -0.000000
   26       13.862191  -0.000000
   27       14.130363  -0.000000
   28       14.130363  -0.000000
   29       16.558314   0.000000
   30       16.558314   0.000000
 
  0.2000000E+00  0.2000000E+00  0.0000000E+00  0.9600000E-01
    1      -13.061960   1.000000
    2      -13.061960   1.000000
    3      -11.682689   1.000000
    4      -10.680774   1.000000
    5      -10.680774   1.000000
    6      -10.001704   1.000000
    7       -8.784170   1.000000
    8       -6.946513   1.000000
    9       -1.956164   1.000000
   10       -1.509394   1.000000
   11        0.216958   1.000000
   12        0.655955   1.000000
   13        0.655955   1.000000
   14        0.798099   1.000000
   15        4.922174   1.000000
   16        4.922174   1.000000
   17        7.098522   1.000000
   18        7.098522   1.000000
   19        7.514586   1.000000
   20        7.514586   1.000000
   21        8.236069   1.000000
   22        8.737154   1.000000
   23        9.181354   1.000395
   24       10.461102  -0.000001
   25       12.199821  -0.000000
   26       14.285228  -0.000000
   27       14.285228  -0.000000
   28       15.244656   0.000000
   29       16.011407   0.000000
   30       16.011407   0.000000
 
  0.4000000E+00  0.2000000E+00  0.0000000E+00  0.1920000E+00
    1      -10.576245   1.000000
    2       -9.641554   1.000000
    3       -8.951719   1.000000
    4       -7.256660   1.000000
    5       -7.036381   1.000000
    6       -5.689813   1.000000
    7       -4.635477   1.000000
    8       -0.539363   1.000000
    9        1.760794   1.000000
   10        2.368500   1.000000
   11        3.152306   1.000000
   12        4.290003   1.000000
   13        4.520955   1.000000
   14        5.213896   1.000000
   15        6.253759   1.000000
   16        7.486435   1.000000
   17        7.808652   1.000000
   18        8.534312   1.000000
   19        8.773510   1.000000
   20       10.237647  -0.000907
   21       10.279510  -0.000330
   22       11.964376  -0.000000
   23       12.133197  -0.000000
   24       12.799478  -0.000000
   25       13.210593  -0.000000
   26       13.811328  -0.000000
   27       15.609908   0.000000
   28       15.983040   0.000000
   29       16.441144   0.000000
   30       17.497024   0.000000
 
  0.4000000E+00  0.4000000E+00  0.0000000E+00  0.9600000E-01
    1       -9.993710   1.000000
    2       -9.514657   1.000000
    3       -9.514657   1.000000
    4       -9.381763   1.000000
    5       -8.883798   1.000000
    6       -6.522871   1.000000
    7       -6.522871   1.000000
    8       -4.061782   1.000000
    9        0.182656   1.000000
   10        0.845030   1.000000
   11        1.382792   1.000000
   12        1.382792   1.000000
   13        3.117273   1.000000
   14        3.117273   1.000000
   15        4.952802   1.000000
   16        6.186973   1.000000
   17        6.788051   1.000000
   18        6.788051   1.000000
   19        7.008534   1.000000
   20        7.844139   1.000000
   21        7.900508   1.000000
   22        9.084182   1.000027
   23        9.688600   0.658632
   24        9.688600   0.658632
   25       12.271448  -0.000000
   26       13.192063  -0.000000
   27       14.299626  -0.000000
   28       14.299626  -0.000000
   29       15.249295   0.000000
   30       15.249295   0.000000
 
  0.2000000E+00  0.2000000E+00  0.2000000E+00  0.6400000E-01
    1       -9.616764   1.000000
    2       -9.616764   1.000000
    3       -9.616764   1.000000
    4       -7.158709   1.000000
    5       -5.328007   1.000000
    6       -5.328007   1.000000
    7       -5.328007   1.000000
    8       -4.797528   1.000000
    9       -4.797528   1.000000
   10       -1.444479   1.000000
   11       -0.645888   1.000000
   12       -0.645888   1.000000
   13        5.410268   1.000000
   14        5.410268   1.000000
   15        5.410268   1.000000
   16        7.031288   1.000000
   17        7.031288   1.000000
   18        7.031288   1.000000
   19        8.985124   1.000001
   20        8.985124   1.000001
   21        8.985124   1.000001
   22       12.327782  -0.000000
   23       12.327782  -0.000000
   24       12.327782  -0.000000
   25       14.237644  -0.000000
   26       14.237644  -0.000000
   27       14.237644  -0.000000
   28       14.997498  -0.000000
   29       14.997498  -0.000000
   30       14.997498  -0.000000
 
  0.4000000E+00  0.2000000E+00  0.2000000E+00  0.1920000E+00
    1      -10.153818   1.000000
    2      -10.153818   1.000000
    3       -9.173530   1.000000
    4       -7.706791   1.000000
    5       -6.353797   1.000000
    6       -4.689047   1.000000
    7       -3.079905   1.000000
    8       -3.079905   1.000000
    9       -2.467099   1.000000
   10       -1.774824   1.000000
   11       -0.077526   1.000000
   12        2.105242   1.000000
   13        2.226210   1.000000
   14        4.749734   1.000000
   15        5.922787   1.000000
   16        5.922787   1.000000
   17        6.907480   1.000000
   18        6.907480   1.000000
   19        6.962199   1.000000
   20        8.462122   1.000000
   21        8.462122   1.000000
   22        9.307851   1.005811
   23        9.307851   1.005811
   24       12.863554  -0.000000
   25       12.863554  -0.000000
   26       13.764284  -0.000000
   27       14.167595  -0.000000
   28       16.146803   0.000000
   29       16.197235   0.000000
   30       16.197235   0.000000
 
  0.4000000E+00  0.4000000E+00  0.2000000E+00  0.1920000E+00
    1       -8.361590   1.000000
    2       -8.127144   1.000000
    3       -8.127144   1.000000
    4       -7.865691   1.000000
    5       -7.364613   1.000000
    6       -4.092206   1.000000
    7       -1.853943   1.000000
    8       -1.853943   1.000000
    9       -1.708426   1.000000
   10       -0.532533   1.000000
   11        1.307797   1.000000
   12        1.834280   1.000000
   13        1.834280   1.000000
   14        3.658572   1.000000
   15        3.658572   1.000000
   16        3.709126   1.000000
   17        4.756421   1.000000
   18        5.894368   1.000000
   19        6.491853   1.000000
   20        6.491853   1.000000
   21        8.314837   1.000000
   22        8.806567   1.000000
   23       10.591000  -0.000000
   24       10.591000  -0.000000
   25       11.753647  -0.000000
   26       11.753647  -0.000000
   27       12.941716  -0.000000
   28       13.119970  -0.000000
   29       17.729395   0.000000
   30       19.583297   0.000000
 
  0.4000000E+00  0.4000000E+00  0.4000000E+00  0.6400000E-01
    1       -8.483898   1.000000
    2       -8.483898   1.000000
    3       -8.483898   1.000000
    4       -7.381770   1.000000
    5       -7.381770   1.000000
    6       -7.381770   1.000000
    7       -2.546654   1.000000
    8       -2.546654   1.000000
    9       -2.546654   1.000000
   10       -0.975688   1.000000
   11       -0.975688   1.000000
   12        2.581845   1.000000
   13        3.901654   1.000000
   14        4.978620   1.000000
   15        4.978620   1.000000
   16        4.978620   1.000000
   17        5.897290   1.000000
   18        5.897290   1.000000
   19        5.897290   1.000000
   20        6.141674   1.000000
   21        6.141674   1.000000
   22        6.141674   1.000000
   23        6.673191   1.000000
   24        6.673191   1.000000
   25        7.427459   1.000000
   26        7.427459   1.000000
   27        7.427459   1.000000
   28        9.827531   0.128052
   29       22.952559   0.000000
   30       22.952559   0.000000
