 vasp.6.2.0 18Jan21 (build Mar 17 2021 09:06:54) complex                        
  
 executed on             LinuxIFC date 2021.08.03  10:14:59
 serial version


--------------------------------------------------------------------------------------------------------


 INCAR:
   ENCUT = 120.000000
   SIGMA = 0.200000
   EDIFF = 1.00e-06
   GGA = PE
   PREC = normal
   IBRION = -1
   ICHARG = 1
   ISMEAR = 1
   KPAR = 1
   NBANDS = 30
   NSW = 0
   NCORE = 1
   LCHARG = .TRUE.

 POTCAR:    PAW_PBE Cu 22Jun2005                  
 POTCAR:    PAW_PBE Cu 22Jun2005                  
   SHA256 =  0e71e558f37a4e8407882b4609ceaae59938afaad9ced71dfe8490308a0ab630 Cu/POTCAR             
   COPYR  = (c) Copyright 22Jun2005 Georg Kresse                                                    
   COPYR  = This file is part of the software VASP. Any use, copying, and all other rights are regul
   COPYR  = If you do not have a valid VASP license, you may not use, copy or distribute this file. 
   VRHFIN =Cu: d10 p1                                                                               
   LEXCH  = PE                                                                                      
   EATOM  =  1390.9808 eV,  102.2342 Ry                                                             
                                                                                                    
   TITEL  = PAW_PBE Cu 22Jun2005                                                                    
   LULTRA =        F    use ultrasoft PP ?                                                          
   IUNSCR =        1    unscreen: 0-lin 1-nonlin 2-no                                               
   RPACOR =    2.000    partial core radius                                                         
   POMASS =   63.546; ZVAL   =   11.000    mass and valenz                                          
   RCORE  =    2.300    outmost cutoff radius                                                       
   RWIGS  =    2.200; RWIGS  =    1.164    wigner-seitz radius (au A)                               
   ENMAX  =  295.446; ENMIN  =  221.585 eV                                                          
   ICORE  =        3    local potential                                                             
   LCOR   =        T    correct aug charges                                                         
   LPAW   =        T    paw PP                                                                      
   EAUG   =  586.980                                                                                
   DEXC   =    0.000                                                                                
   RMAX   =    2.344    core radius for proj-oper                                                   
   RAUG   =    1.300    factor for augmentation sphere                                              
   RDEP   =    2.302    radius for radial grids                                                     
   RDEPT  =    1.771    core radius for aug-charge                                                  
                                                                                                    
   Atomic configuration                                                                             
    9 entries                                                                                       
     n  l   j            E        occ.                                                              
     1  0  0.50     -8850.2468   2.0000                                                             
     2  0  0.50     -1062.3498   2.0000                                                             
     2  1  1.50      -916.8226   6.0000                                                             
     3  0  0.50      -114.6929   2.0000                                                             
     3  1  1.50       -72.1325   6.0000                                                             
     3  2  2.50        -5.0394  10.0000                                                             
     4  0  0.50        -4.6097   1.0000                                                             
     4  1  0.50        -4.0817   0.0000                                                             
     4  3  2.50        -1.3606   0.0000                                                             
   Description                                                                                      
     l       E           TYP  RCUT    TYP  RCUT                                                     
     2     -5.0393973     23  2.200                                                                 
     2     10.8846608     23  2.200                                                                 
     0     -4.6097109     23  2.200                                                                 
     0      8.2520465     23  2.200                                                                 
     1     -2.7211652     23  2.200                                                                 
     1     21.7055443     23  2.200                                                                 
     3      2.7211652     23  2.300                                                                 
  local pseudopotential read in
  partial core-charges read in
  partial kinetic energy density read in
  atomic valenz-charges read in
  non local Contribution for L=           2  read in
    real space projection operators read in
  non local Contribution for L=           2  read in
    real space projection operators read in
  non local Contribution for L=           0  read in
    real space projection operators read in
  non local Contribution for L=           0  read in
    real space projection operators read in
  non local Contribution for L=           1  read in
    real space projection operators read in
  non local Contribution for L=           1  read in
    real space projection operators read in
    PAW grid and wavefunctions read in
 
   number of l-projection  operators is LMAX  =           6
   number of lm-projection operators is LMMAX =          18
 
  PAW_PBE Cu 22Jun2005                  :
 energy of atom  1       EATOM=-1390.9808
 kinetic energy error for atom=   22.1684 (will be added to EATOM!!)
 
 
 POSCAR: Cu
  positions in cartesian coordinates
  No initial velocities read in
 exchange correlation table for  LEXCH =        8
   RHO(1)=    0.500       N(1)  =     2000
   RHO(2)=  100.500       N(2)  =     4000
 


--------------------------------------------------------------------------------------------------------


 ion  position               nearest neighbor table
   1  0.000  0.000  0.000-   2 2.57   3 2.57   4 2.57   3 2.57   4 2.57   2 2.57   4 2.57   4 2.57
                             2 2.57   3 2.57   3 2.57   2 2.57
   2  0.500  0.500  0.000-   1 2.57   3 2.57   4 2.57   3 2.57   4 2.57   1 2.57   3 2.57   3 2.57
                             1 2.57   4 2.57   4 2.57   1 2.57
   3  0.500  0.000  0.500-   1 2.57   2 2.57   4 2.57   1 2.57   2 2.57   2 2.57   4 2.57   2 2.57
                             1 2.57   4 2.57   1 2.57   4 2.57
   4  0.000  0.500  0.500-   1 2.57   2 2.57   3 2.57   1 2.57   2 2.57   1 2.57   3 2.57   1 2.57
                             2 2.57   3 2.57   2 2.57   3 2.57
 
  LATTYP: Found a simple cubic cell.
 ALAT       =     3.6350000000
  
  Lattice vectors:
  
 A1 = (   3.6350000000,   0.0000000000,   0.0000000000)
 A2 = (   0.0000000000,   3.6350000000,   0.0000000000)
 A3 = (   0.0000000000,   0.0000000000,   3.6350000000)


Analysis of symmetry for initial positions (statically):
=====================================================================
 Subroutine PRICEL returns following result:
 
  LATTYP: Found a face centered cubic cell.
 ALAT       =     3.6350000000
  
  Lattice vectors:
  
 A1 = (   1.8175000000,  -1.8175000000,   0.0000000000)
 A2 = (   1.8175000000,   0.0000000000,   1.8175000000)
 A3 = (   0.0000000000,  -1.8175000000,   1.8175000000)
 
   4 primitive cells build up your supercell.
 

 Routine SETGRP: Setting up the symmetry group for a 
 simple cubic supercell.


 Subroutine GETGRP returns: Found 48 space group operations
 (whereof 48 operations were pure point group operations)
 out of a pool of 48 trial point group operations.


The static configuration has the point symmetry O_h .


Analysis of symmetry for dynamics (positions and initial velocities):
=====================================================================
 Subroutine PRICEL returns following result:
 
  LATTYP: Found a face centered cubic cell.
 ALAT       =     3.6350000000
  
  Lattice vectors:
  
 A1 = (   1.8175000000,  -1.8175000000,   0.0000000000)
 A2 = (   1.8175000000,   0.0000000000,   1.8175000000)
 A3 = (   0.0000000000,  -1.8175000000,   1.8175000000)
 
   4 primitive cells build up your supercell.
 

 Routine SETGRP: Setting up the symmetry group for a 
 simple cubic supercell.


 Subroutine GETGRP returns: Found 48 space group operations
 (whereof 48 operations were pure point group operations)
 out of a pool of 48 trial point group operations.


The dynamic configuration has the point symmetry O_h .


 Subroutine INISYM returns: Found 48 space group operations
 (whereof 48 operations are pure point group operations),
 and found     4 'primitive' translations


----------------------------------------------------------------------------------------

                                     Primitive cell                                     

  volume of cell :      12.0075

  direct lattice vectors                    reciprocal lattice vectors
     1.817500000 -1.817500000  0.000000000     0.275103164 -0.275103164 -0.275103164
     1.817500000  0.000000000  1.817500000     0.275103164  0.275103164  0.275103164
     0.000000000 -1.817500000  1.817500000    -0.275103164 -0.275103164  0.275103164

  length of vectors
     2.570333150  2.570333150  2.570333150     0.476492657  0.476492657  0.476492657

  position of ions in fractional coordinates (direct lattice)
     0.000000000  0.000000000  0.000000000

  ion indices of the primitive-cell ions
   primitive index   ion index
                 1           1

----------------------------------------------------------------------------------------

 
 
 KPOINTS: KPOINTS created by Atomic Simulation Env

Automatic generation of k-mesh.
 Grid dimensions read from file:
 generate k-points for:    5    5    5

 Generating k-lattice:

  Cartesian coordinates                     Fractional coordinates (reciprocal lattice)
     0.055020633  0.000000000  0.000000000     0.200000000  0.000000000  0.000000000
     0.000000000  0.055020633  0.000000000     0.000000000  0.200000000  0.000000000
     0.000000000  0.000000000  0.055020633     0.000000000  0.000000000  0.200000000

  Length of vectors
     0.055020633  0.055020633  0.055020633

  Shift w.r.t. Gamma in fractional coordinates (k-lattice)
     0.000000000  0.000000000  0.000000000

 
 Subroutine IBZKPT returns following result:
 ===========================================
 
 Found     10 irreducible k-points:
 
 Following reciprocal coordinates:
            Coordinates               Weight
  0.000000  0.000000  0.000000      1.000000
  0.200000  0.000000  0.000000      6.000000
  0.400000  0.000000  0.000000      6.000000
  0.200000  0.200000  0.000000     12.000000
  0.400000  0.200000  0.000000     24.000000
  0.400000  0.400000  0.000000     12.000000
  0.200000  0.200000  0.200000      8.000000
  0.400000  0.200000  0.200000     24.000000
  0.400000  0.400000  0.200000     24.000000
  0.400000  0.400000  0.400000      8.000000
 
 Following cartesian coordinates:
            Coordinates               Weight
  0.000000  0.000000  0.000000      1.000000
  0.055021  0.000000  0.000000      6.000000
  0.110041  0.000000  0.000000      6.000000
  0.055021  0.055021  0.000000     12.000000
  0.110041  0.055021  0.000000     24.000000
  0.110041  0.110041  0.000000     12.000000
  0.055021  0.055021  0.055021      8.000000
  0.110041  0.055021  0.055021     24.000000
  0.110041  0.110041  0.055021     24.000000
  0.110041  0.110041  0.110041      8.000000
 


--------------------------------------------------------------------------------------------------------




 Dimension of arrays:
   k-points           NKPTS =     10   k-points in BZ     NKDIM =     10   number of bands    NBANDS=     30
   number of dos      NEDOS =    301   number of ions     NIONS =      4
   non local maximal  LDIM  =      6   non local SUM 2l+1 LMDIM =     18
   total plane-waves  NPLWV =   1000
   max r-space proj   IRMAX =      1   max aug-charges    IRDMAX=    803
   dimension x,y,z NGX =    10 NGY =   10 NGZ =   10
   dimension x,y,z NGXF=    20 NGYF=   20 NGZF=   20
   support grid    NGXF=    20 NGYF=   20 NGZF=   20
   ions per type =               4
   NGX,Y,Z   is equivalent  to a cutoff of   4.57,  4.57,  4.57 a.u.
   NGXF,Y,Z  is equivalent  to a cutoff of   9.15,  9.15,  9.15 a.u.

 SYSTEM =  unknown system                          
 POSCAR =  Cu                                      

 Startparameter for this run:
   NWRITE =      2    write-flag & timer
   PREC   = normal    normal or accurate (medium, high low for compatibility)
   ISTART =      1    job   : 0-new  1-cont  2-samecut
   ICHARG =      1    charge: 1-file 2-atom 10-const
   ISPIN  =      1    spin polarized calculation?
   LNONCOLLINEAR =      F non collinear calculations
   LSORBIT =      F    spin-orbit coupling
   INIWAV =      1    electr: 0-lowe 1-rand  2-diag
   LASPH  =      F    aspherical Exc in radial PAW
   METAGGA=      F    non-selfconsistent MetaGGA calc.

 Electronic Relaxation 1
   ENCUT  =  120.0 eV   8.82 Ry    2.97 a.u.   3.25  3.25  3.25*2*pi/ulx,y,z
   ENINI  =  120.0     initial cutoff
   ENAUG  =  587.0 eV  augmentation charge cutoff
   NELM   =     60;   NELMIN=  2; NELMDL=  0     # of ELM steps 
   EDIFF  = 0.1E-05   stopping-criterion for ELM
   LREAL  =      F    real-space projection
   NLSPLINE    = F    spline interpolate recip. space projectors
   LCOMPAT=      F    compatible to vasp.4.4
   GGA_COMPAT  = T    GGA compatible to vasp.4.4-vasp.4.6
   LMAXPAW     = -100 max onsite density
   LMAXMIX     =    2 max onsite mixed and CHGCAR
   VOSKOWN=      0    Vosko Wilk Nusair interpolation
   ROPT   =    0.00000
 Ionic relaxation
   EDIFFG = 0.1E-04   stopping-criterion for IOM
   NSW    =      0    number of steps for IOM
   NBLOCK =      1;   KBLOCK =      1    inner block; outer block 
   IBRION =     -1    ionic relax: 0-MD 1-quasi-New 2-CG
   NFREE  =      0    steps in history (QN), initial steepest desc. (CG)
   ISIF   =      2    stress and relaxation
   IWAVPR =      0    prediction:  0-non 1-charg 2-wave 3-comb
   ISYM   =      2    0-nonsym 1-usesym 2-fastsym
   LCORR  =      T    Harris-Foulkes like correction to forces

   POTIM  = 0.5000    time-step for ionic-motion
   TEIN   =    0.0    initial temperature
   TEBEG  =    0.0;   TEEND  =   0.0 temperature during run
   SMASS  =  -3.00    Nose mass-parameter (am)
   estimated Nose-frequenzy (Omega)   =  0.10E-29 period in steps = 0.13E+47 mass=  -0.302E-27a.u.
   SCALEE = 1.0000    scale energy and forces
   NPACO  =    256;   APACO  = 16.0  distance and # of slots for P.C.
   PSTRESS=    0.0 pullay stress

  Mass of Ions in am
   POMASS =  63.55
  Ionic Valenz
   ZVAL   =  11.00
  Atomic Wigner-Seitz radii
   RWIGS  =  -1.00
  virtual crystal weights 
   VCA    =   1.00
   NELECT =      44.0000    total number of electrons
   NUPDOWN=      -1.0000    fix difference up-down

 DOS related values:
   EMIN   =  10.00;   EMAX   =-10.00  energy-range for DOS
   EFERMI =   0.00
   ISMEAR =     1;   SIGMA  =   0.20  broadening in eV -4-tet -1-fermi 0-gaus

 Electronic relaxation 2 (details)
   IALGO  =     38    algorithm
   LDIAG  =      T    sub-space diagonalisation (order eigenvalues)
   LSUBROT=      F    optimize rotation matrix (better conditioning)
   TURBO    =      0    0=normal 1=particle mesh
   IRESTART =      0    0=no restart 2=restart with 2 vectors
   NREBOOT  =      0    no. of reboots
   NMIN     =      0    reboot dimension
   EREF     =   0.00    reference energy to select bands
   IMIX   =      4    mixing-type and parameters
     AMIX     =   0.40;   BMIX     =  1.00
     AMIX_MAG =   1.60;   BMIX_MAG =  1.00
     AMIN     =   0.10
     WC   =   100.;   INIMIX=   1;  MIXPRE=   1;  MAXMIX= -45

 Intra band minimization:
   WEIMIN = 0.0000     energy-eigenvalue tresh-hold
   EBREAK =  0.83E-08  absolut break condition
   DEPER  =   0.30     relativ break condition  

   TIME   =   0.40     timestep for ELM

  volume/ion in A,a.u.               =      12.01        81.03
  Fermi-wavevector in a.u.,A,eV,Ry     =   1.589967  3.004601 34.395439  2.527993
  Thomas-Fermi vector in A             =   2.688734
 
 Write flags
   LWAVE        =      T    write WAVECAR
   LDOWNSAMPLE  =      F    k-point downsampling of WAVECAR
   LCHARG       =      T    write CHGCAR
   LVTOT        =      F    write LOCPOT, total local potential
   LVHAR        =      F    write LOCPOT, Hartree potential only
   LELF         =      F    write electronic localiz. function (ELF)
   LORBIT       =      0    0 simple, 1 ext, 2 COOP (PROOUT), +10 PAW based schemes


 Dipole corrections
   LMONO  =      F    monopole corrections only (constant potential shift)
   LDIPOL =      F    correct potential (dipole corrections)
   IDIPOL =      0    1-x, 2-y, 3-z, 4-all directions 
   EPSILON=  1.0000000 bulk dielectric constant

 Exchange correlation treatment:
   GGA     =    PE    GGA type
   LEXCH   =     8    internal setting for exchange type
   VOSKOWN=      0    Vosko Wilk Nusair interpolation
   LHFCALC =     F    Hartree Fock is set to
   LHFONE  =     F    Hartree Fock one center treatment
   AEXX    =    0.0000 exact exchange contribution

 Linear response parameters
   LEPSILON=     F    determine dielectric tensor
   LRPA    =     F    only Hartree local field effects (RPA)
   LNABLA  =     F    use nabla operator in PAW spheres
   LVEL    =     F    velocity operator in full k-point grid
   LINTERFAST=   F  fast interpolation
   KINTER  =     0    interpolate to denser k-point grid
   CSHIFT  =0.1000    complex shift for real part using Kramers Kronig
   OMEGAMAX=  -1.0    maximum frequency
   DEG_THRESHOLD= 0.2000000E-02 threshold for treating states as degnerate
   RTIME   =   -0.100 relaxation time in fs
  (WPLASMAI=    0.000 imaginary part of plasma frequency in eV, 0.658/RTIME)
   DFIELD  = 0.0000000 0.0000000 0.0000000 field for delta impulse in time
 
 Orbital magnetization related:
   ORBITALMAG=     F  switch on orbital magnetization
   LCHIMAG   =     F  perturbation theory with respect to B field
   DQ        =  0.001000  dq finite difference perturbation B field
   LLRAUG    =     F  two centre corrections for induced B field



--------------------------------------------------------------------------------------------------------


 Static calculation
 charge density and potential will be updated during run
 non-spin polarized calculation
 Variant of blocked Davidson
 Davidson routine will perform the subspace rotation
 perform sub-space diagonalisation
    after iterative eigenvector-optimisation
 modified Broyden-mixing scheme, WC =      100.0
 initial mixing is a Kerker type mixing with AMIX =  0.4000 and BMIX =      1.0000
 Hartree-type preconditioning will be used
 using additional bands            8
 reciprocal scheme for non local part
 use partial core corrections
 calculate Harris-corrections to forces 
   (improved forces if not selfconsistent)
 use gradient corrections 
 use of overlap-Matrix (Vanderbilt PP)
 Methfessel and Paxton  Order N= 1 SIGMA  =   0.20


--------------------------------------------------------------------------------------------------------


  energy-cutoff  :      120.00
  volume of cell :       48.03
      direct lattice vectors                 reciprocal lattice vectors
     3.635000000  0.000000000  0.000000000     0.275103164  0.000000000  0.000000000
     0.000000000  3.635000000  0.000000000     0.000000000  0.275103164  0.000000000
     0.000000000  0.000000000  3.635000000     0.000000000  0.000000000  0.275103164

  length of vectors
     3.635000000  3.635000000  3.635000000     0.275103164  0.275103164  0.275103164


 
 old parameters found on file WAVECAR:
  energy-cutoff  :      120.00
  volume of cell :       48.03
      direct lattice vectors                 reciprocal lattice vectors
     3.635000000  0.000000000  0.000000000     0.275103164  0.000000000  0.000000000
     0.000000000  3.635000000  0.000000000     0.000000000  0.275103164  0.000000000
     0.000000000  0.000000000  3.635000000     0.000000000  0.000000000  0.275103164

  length of vectors

 
 k-points in units of 2pi/SCALE and weight: KPOINTS created by Atomic Simulation Env
   0.00000000  0.00000000  0.00000000       0.008
   0.05502063  0.00000000  0.00000000       0.048
   0.11004127  0.00000000  0.00000000       0.048
   0.05502063  0.05502063  0.00000000       0.096
   0.11004127  0.05502063  0.00000000       0.192
   0.11004127  0.11004127  0.00000000       0.096
   0.05502063  0.05502063  0.05502063       0.064
   0.11004127  0.05502063  0.05502063       0.192
   0.11004127  0.11004127  0.05502063       0.192
   0.11004127  0.11004127  0.11004127       0.064
 
 k-points in reciprocal lattice and weights: KPOINTS created by Atomic Simulation Env
   0.00000000  0.00000000  0.00000000       0.008
   0.20000000  0.00000000  0.00000000       0.048
   0.40000000  0.00000000  0.00000000       0.048
   0.20000000  0.20000000  0.00000000       0.096
   0.40000000  0.20000000  0.00000000       0.192
   0.40000000  0.40000000  0.00000000       0.096
   0.20000000  0.20000000  0.20000000       0.064
   0.40000000  0.20000000  0.20000000       0.192
   0.40000000  0.40000000  0.20000000       0.192
   0.40000000  0.40000000  0.40000000       0.064
 
 position of ions in fractional coordinates (direct lattice) 
   0.00000000  0.00000000  0.00000000
   0.50000000  0.50000000  0.00000000
   0.50000000  0.00000000  0.50000000
   0.00000000  0.50000000  0.50000000
 
 position of ions in cartesian coordinates  (Angst):
   0.00000000  0.00000000  0.00000000
   1.81750000  1.81750000  0.00000000
   1.81750000  0.00000000  1.81750000
   0.00000000  1.81750000  1.81750000
 


--------------------------------------------------------------------------------------------------------


 k-point   1 :   0.0000 0.0000 0.0000  plane waves:     147
 k-point   2 :   0.2000 0.0000 0.0000  plane waves:     147
 k-point   3 :   0.4000 0.0000 0.0000  plane waves:     142
 k-point   4 :   0.2000 0.2000 0.0000  plane waves:     149
 k-point   5 :   0.4000 0.2000 0.0000  plane waves:     139
 k-point   6 :   0.4000 0.4000 0.0000  plane waves:     144
 k-point   7 :   0.2000 0.2000 0.2000  plane waves:     142
 k-point   8 :   0.4000 0.2000 0.2000  plane waves:     142
 k-point   9 :   0.4000 0.4000 0.2000  plane waves:     142
 k-point  10 :   0.4000 0.4000 0.4000  plane waves:     145

 maximum number of plane-waves:       149
 maximum index in each direction: 
   IXMAX=    3   IYMAX=    3   IZMAX=    3
   IXMIN=   -3   IYMIN=   -3   IZMIN=   -3


 total amount of memory used by VASP MPI-rank0    31797. kBytes
=======================================================================

   base      :      30000. kBytes
   nonl-proj :        224. kBytes
   grid      :        451. kBytes
   one-center:         62. kBytes
   wavefun   :       1060. kBytes
 
     INWAV:  cpu time    0.0011: real time    0.0012
 Broyden mixing: mesh for mixing (old mesh)
   NGX =  7   NGY =  7   NGZ =  7
  (NGX  = 20   NGY  = 20   NGZ  = 20)
  gives a total of    343 points

 initial charge density was supplied:
 number of electron      44.0015860 magnetization 
 keeping initial charge density in first step


--------------------------------------------------------------------------------------------------------


 Maximum index for augmentation-charges          587 (set IRDMAX)


--------------------------------------------------------------------------------------------------------


 First call to EWALD:  gamma=   0.488
 Maximum number of real-space cells 3x 3x 3
 Maximum number of reciprocal cells 3x 3x 3

    FEWALD:  cpu time    0.0008: real time    0.0008


--------------------------------------- Iteration      1(   1)  ---------------------------------------


    POTLOK:  cpu time    0.0020: real time    0.0020
    SETDIJ:  cpu time    0.0035: real time    0.0035
     EDDAV:  cpu time    0.0698: real time    0.0713
       DOS:  cpu time    0.0010: real time    0.0010
    CHARGE:  cpu time    0.0050: real time    0.0050
    MIXING:  cpu time    0.0001: real time    0.0001
    --------------------------------------------
      LOOP:  cpu time    0.0814: real time    0.0829

 eigenvalue-minimisations  :   600
 total energy-change (2. order) : 0.4860747E+03  (-0.2531106E-04)
 number of electron      44.0015868 magnetization 
 augmentation part       18.6183243 magnetization 

 Broyden mixing:
  rms(total) = 0.10404E-02    rms(broyden)= 0.88675E-03
  rms(prec ) = 0.19560E-02
  weight for this iteration     100.00
  WARNING: grid for Broyden might be to small

 Free energy of the ion-electron system (eV)
  ---------------------------------------------------
  alpha Z        PSCENC =       243.62337785
  Ewald energy   TEWEN  =     -4395.34838493
  -Hartree energ DENC   =      -778.09820009
  -exchange      EXHF   =         0.00000000
  -V(xc)+E(xc)   XCENC  =       147.84365637
  PAW double counting   =      8814.22492010    -9035.03225733
  entropy T*S    EENTRO =        -0.00721143
  eigenvalues    EBANDS =        13.61940467
  atomic energy  EATOM  =      5475.24942839
  Solvation  Ediel_sol  =         0.00000000
  ---------------------------------------------------
  free energy    TOTEN  =       486.07473359 eV

  energy without entropy =      486.08194502  energy(sigma->0) =      486.07713740


--------------------------------------------------------------------------------------------------------




--------------------------------------- Iteration      1(   2)  ---------------------------------------


    POTLOK:  cpu time    0.0026: real time    0.0026
    SETDIJ:  cpu time    0.0035: real time    0.0035
     EDDAV:  cpu time    0.0470: real time    0.0470
       DOS:  cpu time    0.0008: real time    0.0008
    CHARGE:  cpu time    0.0035: real time    0.0035
    MIXING:  cpu time    0.0001: real time    0.0001
    --------------------------------------------
      LOOP:  cpu time    0.0575: real time    0.0575

 eigenvalue-minimisations  :   600
 total energy-change (2. order) : 0.1403430E-01  (-0.2530136E-04)
 number of electron      44.0015860 magnetization 
 augmentation part       18.6214201 magnetization 

 Broyden mixing:
  rms(total) = 0.10628E-02    rms(broyden)= 0.96360E-03
  rms(prec ) = 0.21454E-02
  weight for this iteration     100.00

 eigenvalues of (default mixing * dielectric matrix)
  average eigenvalue GAMMA=   0.4794
  0.4794

 Free energy of the ion-electron system (eV)
  ---------------------------------------------------
  alpha Z        PSCENC =       243.62337785
  Ewald energy   TEWEN  =     -4395.34838493
  -Hartree energ DENC   =      -778.05380210
  -exchange      EXHF   =         0.00000000
  -V(xc)+E(xc)   XCENC  =       147.84142461
  PAW double counting   =      8814.23805330    -9035.05663329
  entropy T*S    EENTRO =        -0.00695094
  eigenvalues    EBANDS =        13.60225501
  atomic energy  EATOM  =      5475.24942839
  Solvation  Ediel_sol  =         0.00000000
  ---------------------------------------------------
  free energy    TOTEN  =       486.08876790 eV

  energy without entropy =      486.09571883  energy(sigma->0) =      486.09108488


--------------------------------------------------------------------------------------------------------




--------------------------------------- Iteration      1(   3)  ---------------------------------------


    POTLOK:  cpu time    0.0018: real time    0.0018
    SETDIJ:  cpu time    0.0034: real time    0.0034
     EDDAV:  cpu time    0.0305: real time    0.0305
       DOS:  cpu time    0.0008: real time    0.0008
    CHARGE:  cpu time    0.0033: real time    0.0033
    MIXING:  cpu time    0.0001: real time    0.0001
    --------------------------------------------
      LOOP:  cpu time    0.0399: real time    0.0399

 eigenvalue-minimisations  :   472
 total energy-change (2. order) : 0.1812835E-05  (-0.3281040E-06)
 number of electron      44.0015860 magnetization 
 augmentation part       18.6212431 magnetization 

 Broyden mixing:
  rms(total) = 0.70263E-03    rms(broyden)= 0.69767E-03
  rms(prec ) = 0.15624E-02
  weight for this iteration     100.00

 eigenvalues of (default mixing * dielectric matrix)
  average eigenvalue GAMMA=   0.6563
  0.6563  0.6563

 Free energy of the ion-electron system (eV)
  ---------------------------------------------------
  alpha Z        PSCENC =       243.62337785
  Ewald energy   TEWEN  =     -4395.34838493
  -Hartree energ DENC   =      -778.07719696
  -exchange      EXHF   =         0.00000000
  -V(xc)+E(xc)   XCENC  =       147.84260310
  PAW double counting   =      8814.27525145    -9035.09470926
  entropy T*S    EENTRO =        -0.00696000
  eigenvalues    EBANDS =        13.62536008
  atomic energy  EATOM  =      5475.24942839
  Solvation  Ediel_sol  =         0.00000000
  ---------------------------------------------------
  free energy    TOTEN  =       486.08876971 eV

  energy without entropy =      486.09572971  energy(sigma->0) =      486.09108971


--------------------------------------------------------------------------------------------------------




--------------------------------------- Iteration      1(   4)  ---------------------------------------


    POTLOK:  cpu time    0.0018: real time    0.0018
    SETDIJ:  cpu time    0.0033: real time    0.0033
     EDDAV:  cpu time    0.0228: real time    0.0228
       DOS:  cpu time    0.0007: real time    0.0007
    --------------------------------------------
      LOOP:  cpu time    0.0287: real time    0.0287

 eigenvalue-minimisations  :   300
 total energy-change (2. order) : 0.7698827E-06  (-0.1735736E-07)
 number of electron      44.0015860 magnetization 
 augmentation part       18.6212431 magnetization 

 Free energy of the ion-electron system (eV)
  ---------------------------------------------------
  alpha Z        PSCENC =       243.62337785
  Ewald energy   TEWEN  =     -4395.34838493
  -Hartree energ DENC   =      -778.09060180
  -exchange      EXHF   =         0.00000000
  -V(xc)+E(xc)   XCENC  =       147.84327587
  PAW double counting   =      8814.31955157    -9035.13883143
  entropy T*S    EENTRO =        -0.00696490
  eigenvalues    EBANDS =        13.63791986
  atomic energy  EATOM  =      5475.24942839
  Solvation  Ediel_sol  =         0.00000000
  ---------------------------------------------------
  free energy    TOTEN  =       486.08877048 eV

  energy without entropy =      486.09573538  energy(sigma->0) =      486.09109211


--------------------------------------------------------------------------------------------------------




 average (electrostatic) potential at core
  the test charge radii are     0.9430
  (the norm of the test charge is              1.0001)
       1 -89.4245       2 -89.4245       3 -89.4245       4 -89.4245
 
 
 
 E-fermi :   9.7269     XC(G=0): -13.4090     alpha+bet :-13.2037

 Fermi energy:         9.7268549101

 k-point     1 :       0.0000    0.0000    0.0000
  band No.  band energies     occupation 
      1     -14.7651      2.00000
      2     -14.7651      2.00000
      3     -14.7651      2.00000
      4     -11.3717      2.00000
      5     -11.3717      2.00000
      6     -11.3717      2.00000
      7      -8.6064      2.00000
      8      -8.6064      2.00000
      9      -8.6064      2.00000
     10      -2.8293      2.00000
     11       7.8228      2.00000
     12       7.8228      2.00000
     13       7.8228      2.00000
     14       9.2353      2.00279
     15       9.2353      2.00279
     16       9.2353      2.00279
     17       9.2353      2.00279
     18       9.2353      2.00279
     19       9.2353      2.00279
     20       9.7065      1.17105
     21       9.7065      1.17105
     22       9.7065      1.17105
     23      13.7992     -0.00000
     24      13.7992     -0.00000
     25      13.7992     -0.00000
     26      18.2783      0.00000
     27      18.2783      0.00000
     28      18.2783      0.00000
     29      18.2783      0.00000
     30      18.2783      0.00000

 k-point     2 :       0.2000    0.0000    0.0000
  band No.  band energies     occupation 
      1     -14.6807      2.00000
      2     -13.1458      2.00000
      3     -13.1458      2.00000
      4     -11.4566      2.00000
      5     -10.5892      2.00000
      6     -10.5892      2.00000
      7      -8.5423      2.00000
      8      -2.3929      2.00000
      9      -0.9960      2.00000
     10       1.0678      2.00000
     11       1.0678      2.00000
     12       1.7491      2.00000
     13       1.7491      2.00000
     14       4.5089      2.00000
     15       7.3655      2.00000
     16       7.3655      2.00000
     17       7.6566      2.00000
     18       7.6566      2.00000
     19       8.6717      2.00000
     20       8.6717      2.00000
     21       9.3273      2.01611
     22       9.3273      2.01611
     23      10.1261     -0.01618
     24      10.1261     -0.01618
     25      12.2285     -0.00000
     26      13.8993     -0.00000
     27      15.4956      0.00000
     28      15.4956      0.00000
     29      16.3198      0.00000
     30      16.3198      0.00000

 k-point     3 :       0.4000    0.0000    0.0000
  band No.  band energies     occupation 
      1     -14.4287      2.00000
      2      -9.8270      2.00000
      3      -8.9596      2.00000
      4      -8.3458      2.00000
      5      -6.7205      2.00000
      6      -6.4610      2.00000
      7      -3.1750      2.00000
      8      -3.1750      2.00000
      9      -1.9895      2.00000
     10      -1.9895      2.00000
     11      -0.9932      2.00000
     12       1.3090      2.00000
     13       2.7806      2.00000
     14       2.7806      2.00000
     15       6.7970      2.00000
     16       6.7970      2.00000
     17       8.1668      2.00000
     18       8.1668      2.00000
     19       9.5456      2.02493
     20       9.5456      2.02493
     21      11.2587     -0.00000
     22      11.2587     -0.00000
     23      12.8286     -0.00000
     24      12.8286     -0.00000
     25      13.8622     -0.00000
     26      13.8622     -0.00000
     27      14.1304     -0.00000
     28      14.1304     -0.00000
     29      16.5583      0.00000
     30      16.5583      0.00000

 k-point     4 :       0.2000    0.2000    0.0000
  band No.  band energies     occupation 
      1     -13.0620      2.00000
      2     -13.0620      2.00000
      3     -11.6827      2.00000
      4     -10.6808      2.00000
      5     -10.6808      2.00000
      6     -10.0017      2.00000
      7      -8.7842      2.00000
      8      -6.9465      2.00000
      9      -1.9562      2.00000
     10      -1.5094      2.00000
     11       0.2170      2.00000
     12       0.6560      2.00000
     13       0.6560      2.00000
     14       0.7981      2.00000
     15       4.9222      2.00000
     16       4.9222      2.00000
     17       7.0985      2.00000
     18       7.0985      2.00000
     19       7.5146      2.00000
     20       7.5146      2.00000
     21       8.2361      2.00000
     22       8.7372      2.00000
     23       9.1814      2.00079
     24      10.4611     -0.00000
     25      12.1998     -0.00000
     26      14.2852     -0.00000
     27      14.2852     -0.00000
     28      15.2447      0.00000
     29      16.0114      0.00000
     30      16.0114      0.00000

 k-point     5 :       0.4000    0.2000    0.0000
  band No.  band energies     occupation 
      1     -10.5762      2.00000
      2      -9.6416      2.00000
      3      -8.9517      2.00000
      4      -7.2567      2.00000
      5      -7.0364      2.00000
      6      -5.6898      2.00000
      7      -4.6355      2.00000
      8      -0.5394      2.00000
      9       1.7608      2.00000
     10       2.3685      2.00000
     11       3.1523      2.00000
     12       4.2900      2.00000
     13       4.5210      2.00000
     14       5.2139      2.00000
     15       6.2538      2.00000
     16       7.4864      2.00000
     17       7.8087      2.00000
     18       8.5343      2.00000
     19       8.7735      2.00000
     20      10.2376     -0.00181
     21      10.2795     -0.00066
     22      11.9644     -0.00000
     23      12.1332     -0.00000
     24      12.7995     -0.00000
     25      13.2106     -0.00000
     26      13.8113     -0.00000
     27      15.6099      0.00000
     28      15.9830      0.00000
     29      16.4411      0.00000
     30      17.4970      0.00000

 k-point     6 :       0.4000    0.4000    0.0000
  band No.  band energies     occupation 
      1      -9.9937      2.00000
      2      -9.5147      2.00000
      3      -9.5147      2.00000
      4      -9.3818      2.00000
      5      -8.8838      2.00000
      6      -6.5229      2.00000
      7      -6.5229      2.00000
      8      -4.0618      2.00000
      9       0.1827      2.00000
     10       0.8450      2.00000
     11       1.3828      2.00000
     12       1.3828      2.00000
     13       3.1173      2.00000
     14       3.1173      2.00000
     15       4.9528      2.00000
     16       6.1870      2.00000
     17       6.7881      2.00000
     18       6.7881      2.00000
     19       7.0085      2.00000
     20       7.8441      2.00000
     21       7.9005      2.00000
     22       9.0842      2.00005
     23       9.6886      1.31726
     24       9.6886      1.31726
     25      12.2714     -0.00000
     26      13.1921     -0.00000
     27      14.2996     -0.00000
     28      14.2996     -0.00000
     29      15.2493      0.00000
     30      15.2493      0.00000

 k-point     7 :       0.2000    0.2000    0.2000
  band No.  band energies     occupation 
      1      -9.6168      2.00000
      2      -9.6168      2.00000
      3      -9.6168      2.00000
      4      -7.1587      2.00000
      5      -5.3280      2.00000
      6      -5.3280      2.00000
      7      -5.3280      2.00000
      8      -4.7975      2.00000
      9      -4.7975      2.00000
     10      -1.4445      2.00000
     11      -0.6459      2.00000
     12      -0.6459      2.00000
     13       5.4103      2.00000
     14       5.4103      2.00000
     15       5.4103      2.00000
     16       7.0313      2.00000
     17       7.0313      2.00000
     18       7.0313      2.00000
     19       8.9851      2.00000
     20       8.9851      2.00000
     21       8.9851      2.00000
     22      12.3278     -0.00000
     23      12.3278     -0.00000
     24      12.3278     -0.00000
     25      14.2376     -0.00000
     26      14.2376     -0.00000
     27      14.2376     -0.00000
     28      14.9975     -0.00000
     29      14.9975     -0.00000
     30      14.9975     -0.00000

 k-point     8 :       0.4000    0.2000    0.2000
  band No.  band energies     occupation 
      1     -10.1538      2.00000
      2     -10.1538      2.00000
      3      -9.1735      2.00000
      4      -7.7068      2.00000
      5      -6.3538      2.00000
      6      -4.6890      2.00000
      7      -3.0799      2.00000
      8      -3.0799      2.00000
      9      -2.4671      2.00000
     10      -1.7748      2.00000
     11      -0.0775      2.00000
     12       2.1052      2.00000
     13       2.2262      2.00000
     14       4.7497      2.00000
     15       5.9228      2.00000
     16       5.9228      2.00000
     17       6.9075      2.00000
     18       6.9075      2.00000
     19       6.9622      2.00000
     20       8.4621      2.00000
     21       8.4621      2.00000
     22       9.3079      2.01162
     23       9.3079      2.01162
     24      12.8636     -0.00000
     25      12.8636     -0.00000
     26      13.7643     -0.00000
     27      14.1676     -0.00000
     28      16.1468      0.00000
     29      16.1972      0.00000
     30      16.1972      0.00000

 k-point     9 :       0.4000    0.4000    0.2000
  band No.  band energies     occupation 
      1      -8.3616      2.00000
      2      -8.1271      2.00000
      3      -8.1271      2.00000
      4      -7.8657      2.00000
      5      -7.3646      2.00000
      6      -4.0922      2.00000
      7      -1.8539      2.00000
      8      -1.8539      2.00000
      9      -1.7084      2.00000
     10      -0.5325      2.00000
     11       1.3078      2.00000
     12       1.8343      2.00000
     13       1.8343      2.00000
     14       3.6586      2.00000
     15       3.6586      2.00000
     16       3.7091      2.00000
     17       4.7564      2.00000
     18       5.8944      2.00000
     19       6.4919      2.00000
     20       6.4919      2.00000
     21       8.3148      2.00000
     22       8.8066      2.00000
     23      10.5910     -0.00000
     24      10.5910     -0.00000
     25      11.7536     -0.00000
     26      11.7536     -0.00000
     27      12.9417     -0.00000
     28      13.1200     -0.00000
     29      17.7294      0.00000
     30      19.5833      0.00000

 k-point    10 :       0.4000    0.4000    0.4000
  band No.  band energies     occupation 
      1      -8.4839      2.00000
      2      -8.4839      2.00000
      3      -8.4839      2.00000
      4      -7.3818      2.00000
      5      -7.3818      2.00000
      6      -7.3818      2.00000
      7      -2.5467      2.00000
      8      -2.5467      2.00000
      9      -2.5467      2.00000
     10      -0.9757      2.00000
     11      -0.9757      2.00000
     12       2.5818      2.00000
     13       3.9017      2.00000
     14       4.9786      2.00000
     15       4.9786      2.00000
     16       4.9786      2.00000
     17       5.8973      2.00000
     18       5.8973      2.00000
     19       5.8973      2.00000
     20       6.1417      2.00000
     21       6.1417      2.00000
     22       6.1417      2.00000
     23       6.6732      2.00000
     24       6.6732      2.00000
     25       7.4275      2.00000
     26       7.4275      2.00000
     27       7.4275      2.00000
     28       9.8275      0.25610
     29      22.9526      0.00000
     30      22.9526      0.00000


--------------------------------------------------------------------------------------------------------


 soft charge-density along one line, spin component           1
         0         1         2         3         4         5         6         7         8         9
x    25.3803    0.0000   -0.0000   -0.0000    1.9824   -0.0000    0.0000    0.0000   -0.3697   -0.0000
x     0.0000    0.0000
y    25.3803    0.0000   -0.0000   -0.0000    1.9824   -0.0000    0.0000    0.0000   -0.3697   -0.0000
y     0.0000    0.0000
z    25.3803    0.0000   -0.0000   -0.0000    1.9824   -0.0000    0.0000    0.0000   -0.3697   -0.0000
z     0.0000    0.0000
 total charge-density along one line
x    44.0016    0.0000   -0.0000   -0.0000   14.0116    0.0000   -0.0000   -0.0000    2.3312    0.0000
x    -0.0000   -0.0000    0.0205    0.0000   -0.0000    0.0000    0.0325    0.0000   -0.0000    0.0000
x    -0.0136    0.0000
y    44.0016    0.0000   -0.0000    0.0000   14.0116    0.0000    0.0000   -0.0000    2.3312    0.0000
y    -0.0000    0.0000    0.0205   -0.0000   -0.0000    0.0000    0.0325   -0.0000    0.0000    0.0000
y    -0.0136   -0.0000
z    44.0016    0.0000   -0.0000   -0.0000   14.0116   -0.0000    0.0000    0.0000    2.3312    0.0000
z     0.0000    0.0000    0.0205   -0.0000    0.0000    0.0000    0.0325   -0.0000    0.0000    0.0000
z    -0.0136    0.0000
 
 pseudopotential strength for first ion, spin component:           1
-24.489   0.000  -0.000  -0.000   0.000  12.535  -0.000   0.000
  0.000 -24.489  -0.000   0.000   0.000  -0.000  12.535   0.000
 -0.000  -0.000 -24.437   0.000  -0.000   0.000   0.000  12.499
 -0.000   0.000   0.000 -24.489   0.000   0.000  -0.000  -0.000
  0.000   0.000  -0.000   0.000 -24.437  -0.000  -0.000   0.000
 12.535  -0.000   0.000   0.000  -0.000  -3.291   0.000  -0.000
 -0.000  12.535   0.000  -0.000  -0.000   0.000  -3.291  -0.000
  0.000   0.000  12.499  -0.000   0.000  -0.000  -0.000  -3.266
  0.000  -0.000  -0.000  12.535  -0.000  -0.000   0.000   0.000
 -0.000  -0.000   0.000  -0.000  12.499   0.000   0.000  -0.000
 -0.000   0.000   0.000  -0.000  -0.000  -0.000   0.000   0.000
 -0.000   0.000   0.000  -0.000  -0.000  -0.000   0.000   0.000
  0.000   0.000  -0.000  -0.000  -0.000  -0.000   0.000   0.000
 -0.000   0.000  -0.000   0.000  -0.000  -0.000   0.000  -0.000
  0.000  -0.000  -0.000   0.000   0.000   0.000  -0.000   0.000
  0.000   0.000  -0.000   0.000  -0.000   0.000   0.000   0.000
  0.000   0.000   0.000   0.000   0.000  -0.000   0.000  -0.000
  0.000   0.000  -0.000   0.000   0.000   0.000  -0.000   0.000
 total augmentation occupancy for first ion, spin component:           1
  2.156  -0.000   0.000  -0.000  -0.000   0.630  -0.000  -0.000   0.000   0.000  -0.000   0.000   0.000  -0.000   0.000  -0.000
 -0.000   2.156   0.000   0.000  -0.000  -0.000   0.630  -0.000   0.000  -0.000  -0.000  -0.000  -0.000  -0.000  -0.000  -0.000
 -0.000   0.000   2.458  -0.000  -0.000   0.000  -0.000   0.761  -0.000  -0.000  -0.000   0.000   0.000  -0.000  -0.000  -0.000
 -0.000   0.000  -0.000   2.156   0.000   0.000   0.000  -0.000   0.630   0.000  -0.000   0.000   0.000   0.000   0.000   0.000
 -0.000  -0.000  -0.000   0.000   2.458   0.000  -0.000   0.000  -0.000   0.761   0.000   0.000   0.000   0.000   0.000   0.000
  0.630   0.000  -0.000   0.000   0.000   0.256  -0.000   0.000  -0.000  -0.000   0.000   0.000   0.000   0.000   0.000   0.000
 -0.000   0.630   0.000   0.000  -0.000  -0.000   0.256   0.000  -0.000   0.000   0.000   0.000  -0.000   0.000   0.000   0.000
 -0.000  -0.000   0.761  -0.000  -0.000  -0.000   0.000   0.291   0.000   0.000  -0.000  -0.000  -0.000   0.000  -0.000  -0.000
  0.000   0.000   0.000   0.630  -0.000   0.000  -0.000  -0.000   0.256   0.000  -0.000  -0.000   0.000  -0.000  -0.000  -0.000
  0.000  -0.000   0.000  -0.000   0.761   0.000   0.000  -0.000  -0.000   0.291  -0.000  -0.000   0.000   0.000  -0.000  -0.000
  0.000   0.000  -0.000  -0.000  -0.000   0.000   0.000  -0.000  -0.000   0.000  11.330  -7.330  -0.000   0.000   0.000  -0.000
  0.000  -0.000   0.000   0.000  -0.000  -0.000   0.000  -0.000  -0.000  -0.000  -7.330   5.495   0.000   0.000   0.000   0.000
 -0.000   0.000   0.000   0.000  -0.000  -0.000   0.000  -0.000   0.000   0.000   0.000   0.000   2.255   0.000   0.000  -1.507
  0.000   0.000  -0.000  -0.000   0.000  -0.000   0.000   0.000   0.000   0.000  -0.000  -0.000   0.000   2.255  -0.000  -0.000
 -0.000  -0.000  -0.000   0.000   0.000   0.000  -0.000  -0.000  -0.000  -0.000  -0.000  -0.000   0.000  -0.000   2.255  -0.000
 -0.000  -0.000  -0.000  -0.000   0.000  -0.000   0.000   0.000   0.000   0.000  -0.000  -0.000  -1.507  -0.000  -0.000   1.200
  0.000   0.000   0.000  -0.000   0.000  -0.000   0.000  -0.000   0.000  -0.000   0.000   0.000  -0.000  -1.507  -0.000   0.000
  0.000  -0.000   0.000   0.000   0.000   0.000   0.000   0.000  -0.000  -0.000   0.000   0.000  -0.000  -0.000  -1.507  -0.000


------------------------ aborting loop because EDIFF is reached ----------------------------------------


    CHARGE:  cpu time    0.0033: real time    0.0033
    FORLOC:  cpu time    0.0002: real time    0.0002
    FORNL :  cpu time    0.0113: real time    0.0113
    STRESS:  cpu time    0.0174: real time    0.0174
    FORCOR:  cpu time    0.0020: real time    0.0020
    FORHAR:  cpu time    0.0004: real time    0.0004
    MIXING:  cpu time    0.0002: real time    0.0009

  FORCE on cell =-STRESS in cart. coord.  units (eV):
  Direction    XX          YY          ZZ          XY          YZ          ZX
  --------------------------------------------------------------------------------------
  Alpha Z   243.62338   243.62338   243.62338
  Ewald   -1465.11677 -1465.11677 -1465.11677     0.00000     0.00000     0.00000
  Hartree   259.38919   259.38922   259.38922    -0.00001    -0.00000    -0.00001
  E(xc)    -225.81869  -225.81869  -225.81869    -0.00000     0.00000    -0.00000
  Local     168.50058   168.50058   168.50058    -0.00000     0.00000    -0.00000
  n-local -2373.06196 -2301.86383 -2263.91470    69.24170    32.29828    38.75391
  augment   410.03315   410.03315   410.03315     0.00000     0.00000     0.00000
  Kinetic   841.02394   827.85712   806.04554   -26.96236   -19.64158   -17.72923
  Fock        0.00000     0.00000     0.00000     0.00000     0.00000     0.00000
  -------------------------------------------------------------------------------------
  Total   -2097.36045 -2097.36045 -2097.36045    -0.00000    -0.00000     0.00000
  in kB  -69963.32024-69963.32024-69963.32024    -0.00000    -0.00000     0.00000
  external pressure =   -69963.32 kB  Pullay stress =        0.00 kB


 VOLUME and BASIS-vectors are now :
 -----------------------------------------------------------------------------
  energy-cutoff  :      120.00
  volume of cell :       48.03
      direct lattice vectors                 reciprocal lattice vectors
     3.635000000  0.000000000  0.000000000     0.275103164  0.000000000  0.000000000
     0.000000000  3.635000000  0.000000000     0.000000000  0.275103164  0.000000000
     0.000000000  0.000000000  3.635000000     0.000000000  0.000000000  0.275103164

  length of vectors
     3.635000000  3.635000000  3.635000000     0.275103164  0.275103164  0.275103164


 FORCES acting on ions
    electron-ion (+dipol)            ewald-force                    non-local-force                 convergence-correction
 -----------------------------------------------------------------------------------------------
   -.865E-13 0.300E-13 0.385E-13   0.103E-13 0.597E-14 -.166E-13   -.156E-24 -.628E-24 -.130E-23   0.126E-13 0.120E-16 -.283E-13
   -.179E-12 -.185E-13 0.374E-13   0.175E-13 0.141E-13 -.168E-13   0.309E-23 0.107E-23 0.505E-24   0.132E-12 0.119E-12 -.121E-13
   -.173E-12 0.416E-13 -.389E-13   -.529E-14 -.138E-13 0.159E-13   -.342E-24 0.500E-23 0.521E-24   0.140E-12 -.143E-13 0.934E-13
   -.845E-13 -.213E-14 -.576E-13   -.204E-13 -.566E-14 0.157E-13   -.299E-23 -.848E-24 -.343E-24   0.826E-14 0.107E-12 0.752E-13
 -----------------------------------------------------------------------------------------------
   -.524E-12 0.508E-13 -.207E-13   0.207E-14 0.619E-15 -.180E-14   -.399E-24 0.460E-23 -.621E-24   0.293E-12 0.211E-12 0.128E-12
 
 
 POSITION                                       TOTAL-FORCE (eV/Angst)
 -----------------------------------------------------------------------------------
      0.00000      0.00000      0.00000         0.000000     -0.000000     -0.000000
      1.81750      1.81750      0.00000        -0.000000      0.000000      0.000000
      1.81750      0.00000      1.81750        -0.000000     -0.000000     -0.000000
      0.00000      1.81750      1.81750         0.000000      0.000000     -0.000000
 -----------------------------------------------------------------------------------
    total drift:                               -0.000000      0.000000      0.000000


--------------------------------------------------------------------------------------------------------



  FREE ENERGIE OF THE ION-ELECTRON SYSTEM (eV)
  ---------------------------------------------------
  free  energy   TOTEN  =       486.08877048 eV

  energy  without entropy=      486.09573538  energy(sigma->0) =      486.09109211
 


--------------------------------------------------------------------------------------------------------


    POTLOK:  cpu time    0.0052: real time    0.0052


--------------------------------------------------------------------------------------------------------


 writing wavefunctions
     LOOP+:  cpu time    0.2578: real time    0.2600
    4ORBIT:  cpu time    0.0000: real time    0.0000

 total amount of memory used by VASP MPI-rank0    31797. kBytes
=======================================================================

   base      :      30000. kBytes
   nonl-proj :        224. kBytes
   grid      :        451. kBytes
   one-center:         62. kBytes
   wavefun   :       1060. kBytes
 
  
  
 General timing and accounting informations for this job:
 ========================================================
  
                  Total CPU time used (sec):        0.343
                            User time (sec):        0.328
                          System time (sec):        0.015
                         Elapsed time (sec):        0.338
  
                   Maximum memory used (kb):       35584.
                   Average memory used (kb):          N/A
  
                          Minor page faults:         2536
                          Major page faults:            2
                 Voluntary context switches:           28
