<?xml version="1.0" encoding="ISO-8859-1"?>
<modeling>
 <generator>
  <i name="program" type="string">vasp </i>
  <i name="version" type="string">6.2.0  </i>
  <i name="subversion" type="string">18Jan21 (build Mar 17 2021 09:06:54) complex                          serial </i>
  <i name="platform" type="string">LinuxIFC </i>
  <i name="date" type="string">2021 08 03 </i>
  <i name="time" type="string">10:14:59 </i>
 </generator>
 <incar>
  <i type="string" name="PREC">normal</i>
  <i type="int" name="ICHARG">     1</i>
  <i type="int" name="IBRION">    -1</i>
  <i name="EDIFF">      0.00000100</i>
  <i type="int" name="NSW">     0</i>
  <i name="ENCUT">    120.00000000</i>
  <i type="int" name="NBANDS">    30</i>
  <i type="int" name="ISMEAR">     1</i>
  <i name="SIGMA">      0.20000000</i>
  <i type="logical" name="LCHARG"> T  </i>
  <i type="int" name="KPAR">     1</i>
  <i type="int" name="NCORE">     1</i>
  <i type="string" name="GGA">PE</i>
 </incar>
 <primitive_cell>
  <structure name="primitive_cell" >
   <crystal>
    <varray name="basis" >
     <v>       1.81750000      -1.81750000       0.00000000 </v>
     <v>       1.81750000       0.00000000       1.81750000 </v>
     <v>       0.00000000      -1.81750000       1.81750000 </v>
    </varray>
    <i name="volume">     12.00751822 </i>
    <varray name="rec_basis" >
     <v>       0.27510316      -0.27510316      -0.27510316 </v>
     <v>       0.27510316       0.27510316       0.27510316 </v>
     <v>      -0.27510316      -0.27510316       0.27510316 </v>
    </varray>
   </crystal>
   <varray name="positions" >
    <v>       0.00000000       0.00000000       0.00000000 </v>
   </varray>
  </structure>
  <varray name="primitive_index" >
   <v type="int" >        1 </v>
  </varray>
 </primitive_cell>
 <kpoints>
  <generation param="Monkhorst-Pack">
   <v type="int" name="divisions">       5        5        5 </v>
   <v name="usershift">      0.00000000       0.00000000       0.00000000 </v>
   <v name="genvec1">      0.20000000       0.00000000       0.00000000 </v>
   <v name="genvec2">      0.00000000       0.20000000       0.00000000 </v>
   <v name="genvec3">      0.00000000       0.00000000       0.20000000 </v>
   <v name="shift">      0.00000000       0.00000000       0.00000000 </v>
  </generation>
  <varray name="kpointlist" >
   <v>       0.00000000       0.00000000       0.00000000 </v>
   <v>       0.20000000       0.00000000       0.00000000 </v>
   <v>       0.40000000       0.00000000       0.00000000 </v>
   <v>       0.20000000       0.20000000       0.00000000 </v>
   <v>       0.40000000       0.20000000       0.00000000 </v>
   <v>       0.40000000       0.40000000       0.00000000 </v>
   <v>       0.20000000       0.20000000       0.20000000 </v>
   <v>       0.40000000       0.20000000       0.20000000 </v>
   <v>       0.40000000       0.40000000       0.20000000 </v>
   <v>       0.40000000       0.40000000       0.40000000 </v>
  </varray>
  <varray name="weights" >
   <v>       0.00800000 </v>
   <v>       0.04800000 </v>
   <v>       0.04800000 </v>
   <v>       0.09600000 </v>
   <v>       0.19200000 </v>
   <v>       0.09600000 </v>
   <v>       0.06400000 </v>
   <v>       0.19200000 </v>
   <v>       0.19200000 </v>
   <v>       0.06400000 </v>
  </varray>
 </kpoints>
 <parameters>
  <separator name="general" >
   <i type="string" name="SYSTEM">unknown system</i>
   <i type="logical" name="LCOMPAT"> F  </i>
  </separator>
  <separator name="electronic" >
   <i type="string" name="PREC">normal</i>
   <i name="ENMAX">    120.00000000</i>
   <i name="ENAUG">    586.98000000</i>
   <i name="EDIFF">      0.00000100</i>
   <i type="int" name="IALGO">    38</i>
   <i type="int" name="IWAVPR">     0</i>
   <i type="int" name="NBANDS">    30</i>
   <i type="int" name="NBANDSLOW">    -1</i>
   <i type="int" name="NBANDSHIGH">    -1</i>
   <i name="NELECT">     44.00000000</i>
   <i type="int" name="TURBO">     0</i>
   <i type="int" name="IRESTART">     0</i>
   <i type="int" name="NREBOOT">     0</i>
   <i type="int" name="NMIN">     0</i>
   <i name="EREF">      0.00000000</i>
   <separator name="electronic smearing" >
    <i type="int" name="ISMEAR">     1</i>
    <i name="SIGMA">      0.20000000</i>
    <i name="KSPACING">      0.50000000</i>
    <i type="logical" name="KGAMMA"> T  </i>
    <i type="logical" name="KBLOWUP"> T  </i>
   </separator>
   <separator name="electronic projectors" >
    <i type="logical" name="LREAL"> F  </i>
    <v name="ROPT">      0.00000000</v>
    <i type="int" name="LMAXPAW">  -100</i>
    <i type="int" name="LMAXMIX">     2</i>
    <i type="logical" name="NLSPLINE"> F  </i>
   </separator>
   <separator name="electronic startup" >
    <i type="int" name="ISTART">     1</i>
    <i type="int" name="ICHARG">     1</i>
    <i type="int" name="INIWAV">     1</i>
   </separator>
   <separator name="electronic spin" >
    <i type="int" name="ISPIN">     1</i>
    <i type="logical" name="LNONCOLLINEAR"> F  </i>
    <v name="MAGMOM">      1.00000000      1.00000000      1.00000000      1.00000000</v>
    <i name="NUPDOWN">     -1.00000000</i>
    <i type="logical" name="LSORBIT"> F  </i>
    <v name="SAXIS">      0.00000000      0.00000000      1.00000000</v>
    <i type="logical" name="LSPIRAL"> F  </i>
    <v name="QSPIRAL">      0.00000000      0.00000000      0.00000000</v>
    <i type="logical" name="LZEROZ"> F  </i>
   </separator>
   <separator name="electronic exchange-correlation" >
    <i type="logical" name="LASPH"> F  </i>
    <i type="logical" name="LMETAGGA"> F  </i>
   </separator>
   <separator name="electronic convergence" >
    <i type="int" name="NELM">    60</i>
    <i type="int" name="NELMDL">     0</i>
    <i type="int" name="NELMIN">     2</i>
    <i name="ENINI">    120.00000000</i>
    <separator name="electronic convergence detail" >
     <i type="logical" name="LDIAG"> T  </i>
     <i type="logical" name="LSUBROT"> F  </i>
     <i name="WEIMIN">      0.00000000</i>
     <i name="EBREAK">      0.00000001</i>
     <i name="DEPER">      0.30000000</i>
     <i type="int" name="NRMM">     4</i>
     <i name="TIME">      0.40000000</i>
    </separator>
   </separator>
   <separator name="electronic mixer" >
    <i name="AMIX">      0.40000000</i>
    <i name="BMIX">      1.00000000</i>
    <i name="AMIN">      0.10000000</i>
    <i name="AMIX_MAG">      1.60000000</i>
    <i name="BMIX_MAG">      1.00000000</i>
    <separator name="electronic mixer details" >
     <i type="int" name="IMIX">     4</i>
     <i type="logical" name="MIXFIRST"> F  </i>
     <i type="int" name="MAXMIX">   -45</i>
     <i name="WC">    100.00000000</i>
     <i type="int" name="INIMIX">     1</i>
     <i type="int" name="MIXPRE">     1</i>
     <i type="int" name="MREMOVE">     5</i>
    </separator>
   </separator>
   <separator name="electronic dipolcorrection" >
    <i type="logical" name="LDIPOL"> F  </i>
    <i type="logical" name="LMONO"> F  </i>
    <i type="int" name="IDIPOL">     0</i>
    <i name="EPSILON">      1.00000000</i>
    <v name="DIPOL">   -100.00000000   -100.00000000   -100.00000000</v>
    <i name="EFIELD">      0.00000000</i>
   </separator>
  </separator>
  <separator name="grids" >
   <i type="int" name="NGX">    10</i>
   <i type="int" name="NGY">    10</i>
   <i type="int" name="NGZ">    10</i>
   <i type="int" name="NGXF">    20</i>
   <i type="int" name="NGYF">    20</i>
   <i type="int" name="NGZF">    20</i>
   <i type="logical" name="ADDGRID"> F  </i>
  </separator>
  <separator name="ionic" >
   <i type="int" name="NSW">     0</i>
   <i type="int" name="IBRION">    -1</i>
   <i type="int" name="MDALGO">     0</i>
   <i type="int" name="ISIF">     2</i>
   <i name="PSTRESS">      0.00000000</i>
   <i name="EDIFFG">      0.00001000</i>
   <i type="int" name="NFREE">     0</i>
   <i name="POTIM">      0.50000000</i>
   <i name="SMASS">     -3.00000000</i>
   <i name="SCALEE">      1.00000000</i>
  </separator>
  <separator name="ionic md" >
   <i name="TEBEG">      0.00010000</i>
   <i name="TEEND">      0.00010000</i>
   <i type="int" name="NBLOCK">     1</i>
   <i type="int" name="KBLOCK">     1</i>
   <i type="int" name="NPACO">   256</i>
   <i name="APACO">     16.00000000</i>
  </separator>
  <separator name="symmetry" >
   <i type="int" name="ISYM">     2</i>
   <i name="SYMPREC">      0.00001000</i>
  </separator>
  <separator name="dos" >
   <i type="int" name="LORBIT">     0</i>
   <v name="RWIGS">     -1.00000000</v>
   <i type="int" name="NEDOS">   301</i>
   <i name="EMIN">     10.00000000</i>
   <i name="EMAX">    -10.00000000</i>
   <i name="EFERMI">      0.00000000</i>
  </separator>
  <separator name="writing" >
   <i type="int" name="NWRITE">     2</i>
   <i type="logical" name="LWAVE"> T  </i>
   <i type="logical" name="LDOWNSAMPLE"> F  </i>
   <i type="logical" name="LCHARG"> T  </i>
   <i type="logical" name="LPARD"> F  </i>
   <i type="logical" name="LVTOT"> F  </i>
   <i type="logical" name="LVHAR"> F  </i>
   <i type="logical" name="LELF"> F  </i>
   <i type="logical" name="LOPTICS"> F  </i>
   <v name="STM">      0.00000000      0.00000000      0.00000000      0.00000000      0.00000000      0.00000000      0.00000000</v>
  </separator>
  <separator name="performance" >
   <i type="int" name="NPAR">     1</i>
   <i type="int" name="NSIM">     4</i>
   <i type="int" name="NBLK">    -1</i>
   <i type="logical" name="LPLANE"> T  </i>
   <i type="logical" name="LSCALAPACK"> F  </i>
   <i type="logical" name="LSCAAWARE"> F  </i>
   <i type="logical" name="LSCALU"> F  </i>
   <i type="logical" name="LASYNC"> F  </i>
   <i type="logical" name="LORBITALREAL"> F  </i>
  </separator>
  <separator name="miscellaneous" >
   <i type="int" name="IDIOT">     3</i>
   <i type="int" name="PHON_NSTRUCT">    -1</i>
   <i type="logical" name="LMUSIC"> F  </i>
   <v name="POMASS">     63.54600000</v>
   <v name="DARWINR">      0.00000000</v>
   <v name="DARWINV">      1.00000000</v>
   <i type="logical" name="LCORR"> T  </i>
  </separator>
  <i type="logical" name="GGA_COMPAT"> T  </i>
  <i type="logical" name="LBERRY"> F  </i>
  <i type="int" name="ICORELEVEL">     0</i>
  <i type="logical" name="LDAU"> F  </i>
  <i type="int" name="I_CONSTRAINED_M">     0</i>
  <separator name="electronic exchange-correlation" >
   <i type="string" name="GGA">PE</i>
   <i type="int" name="VOSKOWN">     0</i>
   <i type="logical" name="LHFCALC"> F  </i>
   <i type="string" name="PRECFOCK"></i>
   <i type="logical" name="LSYMGRAD"> F  </i>
   <i type="logical" name="LHFONE"> F  </i>
   <i type="logical" name="LRHFCALC"> F  </i>
   <i type="logical" name="LTHOMAS"> F  </i>
   <i type="logical" name="LMODELHF"> F  </i>
   <i type="logical" name="LFOCKACE"> F  </i>
   <i name="ENCUT4O">     -1.00000000</i>
   <i type="int" name="EXXOEP">     0</i>
   <i type="int" name="FOURORBIT">     0</i>
   <i name="AEXX">      0.00000000</i>
   <i name="HFALPHA">      0.00000000</i>
   <i name="MCALPHA">      0.00000000</i>
   <i name="ALDAX">      1.00000000</i>
   <i name="AGGAX">      1.00000000</i>
   <i name="ALDAC">      1.00000000</i>
   <i name="AGGAC">      1.00000000</i>
   <i type="int" name="NKREDX">     1</i>
   <i type="int" name="NKREDY">     1</i>
   <i type="int" name="NKREDZ">     1</i>
   <i type="logical" name="SHIFTRED"> F  </i>
   <i type="logical" name="ODDONLY"> F  </i>
   <i type="logical" name="EVENONLY"> F  </i>
   <i type="int" name="LMAXFOCK">     0</i>
   <i type="int" name="NMAXFOCKAE">     0</i>
   <i type="logical" name="LFOCKAEDFT"> F  </i>
   <i name="HFSCREEN">      0.00000000</i>
   <i name="HFSCREENC">      0.00000000</i>
   <i type="int" name="NBANDSGWLOW">     0</i>
  </separator>
  <separator name="vdW DFT" >
   <i type="logical" name="LUSE_VDW"> F  </i>
   <i name="Zab_VDW">     -0.84910000</i>
   <i name="PARAM1">      0.12340000</i>
   <i name="PARAM2">      1.00000000</i>
   <i name="PARAM3">      0.00000000</i>
  </separator>
  <separator name="model GW" >
   <i type="int" name="MODEL_GW">     0</i>
   <i name="MODEL_EPS0">      7.20451093</i>
   <i name="MODEL_ALPHA">      1.00000000</i>
  </separator>
  <separator name="linear response parameters" >
   <i type="logical" name="LEPSILON"> F  </i>
   <i type="logical" name="LRPA"> F  </i>
   <i type="logical" name="LNABLA"> F  </i>
   <i type="logical" name="LVEL"> F  </i>
   <i type="int" name="KINTER">     0</i>
   <i name="CSHIFT">      0.10000000</i>
   <i name="OMEGAMAX">     -1.00000000</i>
   <i name="DEG_THRESHOLD">      0.00200000</i>
   <i name="RTIME">     -0.10000000</i>
   <i name="WPLASMAI">      0.00000000</i>
   <v name="DFIELD">      0.00000000      0.00000000      0.00000000</v>
   <v name="WPLASMA">      0.00000000      0.00000000      0.00000000      0.00000000      0.00000000      0.00000000      0.00000000      0.00000000      0.00000000</v>
  </separator>
  <separator name="orbital magnetization" >
   <i type="logical" name="NUCIND"> F  </i>
   <v name="MAGPOS">      0.00000000      0.00000000      0.00000000</v>
   <i type="logical" name="LNICSALL"> T  </i>
   <i type="logical" name="ORBITALMAG"> F  </i>
   <i type="logical" name="LMAGBLOCH"> F  </i>
   <i type="logical" name="LCHIMAG"> F  </i>
   <i type="logical" name="LGAUGE"> T  </i>
   <i type="int" name="MAGATOM">     0</i>
   <v name="MAGDIPOL">      0.00000000      0.00000000      0.00000000</v>
   <v name="AVECCONST">      0.00000000      0.00000000      0.00000000</v>
  </separator>
  <separator name="response functions" >
   <i type="logical" name="LFINITE_TEMPERATURE"> F  </i>
   <i type="logical" name="LADDER"> F  </i>
   <i type="logical" name="LRPAFORCE"> F  </i>
   <i type="logical" name="LFXC"> F  </i>
   <i type="logical" name="LHARTREE"> T  </i>
   <i type="int" name="IBSE">     0</i>
   <v type="int" name="KPOINT">    -1     0     0     0</v>
   <i type="logical" name="LTCTC"> F  </i>
   <i type="logical" name="LTCTE"> F  </i>
   <i type="logical" name="LTETE"> F  </i>
   <i type="logical" name="LTRIPLET"> F  </i>
   <i type="logical" name="LFXCEPS"> F  </i>
   <i type="logical" name="LFXHEG"> F  </i>
   <i type="int" name="NATURALO">     2</i>
   <i type="logical" name="LHOLEGF"> F  </i>
   <i type="logical" name="L2ORDER"> F  </i>
   <i type="logical" name="LDMP1"> F  </i>
   <i type="logical" name="LMP2LT"> F  </i>
   <i type="logical" name="LSMP2LT"> F  </i>
   <i type="logical" name="LGWLF"> F  </i>
   <i name="ENCUTGW">     -2.00000000</i>
   <i name="ENCUTGWSOFT">     -2.00000000</i>
   <i name="ENCUTLF">     -1.00000000</i>
   <i type="logical" name="LESF_SPLINES"> F  </i>
   <i type="int" name="LMAXMP2">    -1</i>
   <i name="SCISSOR">      0.00000000</i>
   <i type="int" name="NOMEGA">     0</i>
   <i type="int" name="NOMEGAR">     0</i>
   <i type="int" name="NBANDSGW">    -1</i>
   <i type="int" name="NBANDSO">    -1</i>
   <i type="int" name="NBANDSV">    -1</i>
   <i type="int" name="NELM">     1</i>
   <i type="int" name="NELMHF">     1</i>
   <i type="int" name="DIM">     3</i>
   <i type="int" name="IESPILON">     4</i>
   <i type="int" name="ANTIRES">     0</i>
   <i name="OMEGAMAX">    -30.00000000</i>
   <i name="OMEGAMIN">    -30.00000000</i>
   <i name="OMEGATL">   -200.00000000</i>
   <i type="int" name="OMEGAGRID">     0</i>
   <i name="CSHIFT">     -0.10000000</i>
   <i type="logical" name="LSELFENERGY"> F  </i>
   <i type="logical" name="LSPECTRAL"> F  </i>
   <i type="logical" name="LSPECTRALGW"> F  </i>
   <i type="logical" name="LSINGLES"> F  </i>
   <i type="logical" name="LFERMIGW"> F  </i>
   <i type="logical" name="ODDONLYGW"> F  </i>
   <i type="logical" name="EVENONLYGW"> F  </i>
   <i type="int" name="NKREDLFX">     1</i>
   <i type="int" name="NKREDLFY">     1</i>
   <i type="int" name="NKREDLFZ">     1</i>
   <i type="int" name="MAXMEM">  2800</i>
   <i type="int" name="TELESCOPE">     0</i>
   <i type="int" name="NTAUPAR">    -1</i>
   <i type="int" name="NOMEGAPAR">    -1</i>
   <i name="DAMP_NEWTON">      0.80000001</i>
   <i name="LAMBDA">      1.00000000</i>
  </separator>
  <separator name="External order field" >
   <i name="OFIELD_KAPPA">      0.00000000</i>
   <v name="OFIELD_K">      0.00000000      0.00000000      0.00000000</v>
   <i name="OFIELD_Q6_NEAR">      0.00000000</i>
   <i name="OFIELD_Q6_FAR">      0.00000000</i>
   <i name="OFIELD_A">      0.00000000</i>
  </separator>
 </parameters>
 <atominfo>
  <atoms>       4 </atoms>
  <types>       1 </types>
  <array name="atoms" >
   <dimension dim="1">ion</dimension>
   <field type="string">element</field>
   <field type="int">atomtype</field>
   <set>
    <rc><c>Cu</c><c>   1</c></rc>
    <rc><c>Cu</c><c>   1</c></rc>
    <rc><c>Cu</c><c>   1</c></rc>
    <rc><c>Cu</c><c>   1</c></rc>
   </set>
  </array>
  <array name="atomtypes" >
   <dimension dim="1">type</dimension>
   <field type="int">atomspertype</field>
   <field type="string">element</field>
   <field>mass</field>
   <field>valence</field>
   <field type="string">pseudopotential</field>
   <set>
    <rc><c>   4</c><c>Cu</c><c>     63.54600000</c><c>     11.00000000</c><c>  PAW_PBE Cu 22Jun2005                  </c></rc>
   </set>
  </array>
 </atominfo>
 <structure name="initialpos" >
  <crystal>
   <varray name="basis" >
    <v>       3.63500000       0.00000000       0.00000000 </v>
    <v>       0.00000000       3.63500000       0.00000000 </v>
    <v>       0.00000000       0.00000000       3.63500000 </v>
   </varray>
   <i name="volume">     48.03007287 </i>
   <varray name="rec_basis" >
    <v>       0.27510316       0.00000000       0.00000000 </v>
    <v>       0.00000000       0.27510316       0.00000000 </v>
    <v>       0.00000000       0.00000000       0.27510316 </v>
   </varray>
  </crystal>
  <varray name="positions" >
   <v>       0.00000000       0.00000000       0.00000000 </v>
   <v>       0.50000000       0.50000000       0.00000000 </v>
   <v>       0.50000000       0.00000000       0.50000000 </v>
   <v>       0.00000000       0.50000000       0.50000000 </v>
  </varray>
 </structure>
 <calculation>
  <scstep>
   <time name="dav">    0.07    0.07</time>
   <time name="total">    0.08    0.08</time>
   <energy>
    <i name="alphaZ">    243.62337785 </i>
    <i name="ewald">  -4395.34838493 </i>
    <i name="hartreedc">   -778.09820009 </i>
    <i name="XCdc">    147.84365637 </i>
    <i name="pawpsdc">   8814.22492010 </i>
    <i name="pawaedc">  -9035.03225733 </i>
    <i name="eentropy">     -0.00721143 </i>
    <i name="bandstr">     13.61940467 </i>
    <i name="atom">   5475.24942839 </i>
    <i name="e_fr_energy">    486.07473359 </i>
    <i name="e_wo_entrp">    486.08194502 </i>
    <i name="e_0_energy">    486.07713740 </i>
   </energy>
  </scstep>
  <scstep>
   <time name="dav">    0.05    0.05</time>
   <time name="total">    0.06    0.06</time>
   <energy>
    <i name="e_fr_energy">    486.08876790 </i>
    <i name="e_wo_entrp">    486.09571883 </i>
    <i name="e_0_energy">    486.09108488 </i>
   </energy>
  </scstep>
  <scstep>
   <time name="dav">    0.03    0.03</time>
   <time name="total">    0.04    0.04</time>
   <energy>
    <i name="e_fr_energy">    486.08876971 </i>
    <i name="e_wo_entrp">    486.09572971 </i>
    <i name="e_0_energy">    486.09108971 </i>
   </energy>
  </scstep>
  <scstep>
   <time name="dav">    0.02    0.02</time>
   <time name="total">    0.03    0.03</time>
   <energy>
    <i name="alphaZ">    243.62337785 </i>
    <i name="ewald">  -4395.34838493 </i>
    <i name="hartreedc">   -778.09060180 </i>
    <i name="XCdc">    147.84327587 </i>
    <i name="pawpsdc">   8814.31955157 </i>
    <i name="pawaedc">  -9035.13883143 </i>
    <i name="eentropy">     -0.00696490 </i>
    <i name="bandstr">     13.63791986 </i>
    <i name="atom">   5475.24942839 </i>
    <i name="e_fr_energy">    486.08877048 </i>
    <i name="e_wo_entrp">    486.09573538 </i>
    <i name="e_0_energy">    486.09109211 </i>
   </energy>
  </scstep>
  <structure>
   <crystal>
    <varray name="basis" >
     <v>       3.63500000       0.00000000       0.00000000 </v>
     <v>       0.00000000       3.63500000       0.00000000 </v>
     <v>       0.00000000       0.00000000       3.63500000 </v>
    </varray>
    <i name="volume">     48.03007287 </i>
    <varray name="rec_basis" >
     <v>       0.27510316       0.00000000       0.00000000 </v>
     <v>       0.00000000       0.27510316       0.00000000 </v>
     <v>       0.00000000       0.00000000       0.27510316 </v>
    </varray>
   </crystal>
   <varray name="positions" >
    <v>       0.00000000       0.00000000       0.00000000 </v>
    <v>       0.50000000       0.50000000       0.00000000 </v>
    <v>       0.50000000       0.00000000       0.50000000 </v>
    <v>       0.00000000       0.50000000       0.50000000 </v>
   </varray>
  </structure>
  <varray name="forces" >
   <v>       0.00000000      -0.00000000      -0.00000000 </v>
   <v>      -0.00000000       0.00000000       0.00000000 </v>
   <v>      -0.00000000      -0.00000000      -0.00000000 </v>
   <v>       0.00000000       0.00000000      -0.00000000 </v>
  </varray>
  <varray name="stress" >
   <v>  -69963.32023638      -0.00000000       0.00000000 </v>
   <v>      -0.00000000  -69963.32023638       0.00000000 </v>
   <v>       0.00000000      -0.00000000  -69963.32023638 </v>
  </varray>
  <energy>
   <i name="e_fr_energy">    486.08877048 </i>
   <i name="e_wo_entrp">    486.09573538 </i>
   <i name="e_0_energy">    486.09109211 </i>
  </energy>
  <time name="totalsc">    0.26    0.26</time>
  <eigenvalues>
   <array>
    <dimension dim="1">band</dimension>
    <dimension dim="2">kpoint</dimension>
    <dimension dim="3">spin</dimension>
    <field>eigene</field>
    <field>occ</field>
    <set>
     <set comment="spin 1">
      <set comment="kpoint 1">
       <r>  -14.7651    1.0000 </r>
       <r>  -14.7651    1.0000 </r>
       <r>  -14.7651    1.0000 </r>
       <r>  -11.3717    1.0000 </r>
       <r>  -11.3717    1.0000 </r>
       <r>  -11.3717    1.0000 </r>
       <r>   -8.6064    1.0000 </r>
       <r>   -8.6064    1.0000 </r>
       <r>   -8.6064    1.0000 </r>
       <r>   -2.8293    1.0000 </r>
       <r>    7.8228    1.0000 </r>
       <r>    7.8228    1.0000 </r>
       <r>    7.8228    1.0000 </r>
       <r>    9.2353    1.0014 </r>
       <r>    9.2353    1.0014 </r>
       <r>    9.2353    1.0014 </r>
       <r>    9.2353    1.0014 </r>
       <r>    9.2353    1.0014 </r>
       <r>    9.2353    1.0014 </r>
       <r>    9.7065    0.5855 </r>
       <r>    9.7065    0.5855 </r>
       <r>    9.7065    0.5855 </r>
       <r>   13.7992   -0.0000 </r>
       <r>   13.7992   -0.0000 </r>
       <r>   13.7992   -0.0000 </r>
       <r>   18.2783    0.0000 </r>
       <r>   18.2783    0.0000 </r>
       <r>   18.2783    0.0000 </r>
       <r>   18.2783    0.0000 </r>
       <r>   18.2783    0.0000 </r>
      </set>
      <set comment="kpoint 2">
       <r>  -14.6807    1.0000 </r>
       <r>  -13.1458    1.0000 </r>
       <r>  -13.1458    1.0000 </r>
       <r>  -11.4566    1.0000 </r>
       <r>  -10.5892    1.0000 </r>
       <r>  -10.5892    1.0000 </r>
       <r>   -8.5423    1.0000 </r>
       <r>   -2.3929    1.0000 </r>
       <r>   -0.9960    1.0000 </r>
       <r>    1.0678    1.0000 </r>
       <r>    1.0678    1.0000 </r>
       <r>    1.7491    1.0000 </r>
       <r>    1.7491    1.0000 </r>
       <r>    4.5089    1.0000 </r>
       <r>    7.3655    1.0000 </r>
       <r>    7.3655    1.0000 </r>
       <r>    7.6566    1.0000 </r>
       <r>    7.6566    1.0000 </r>
       <r>    8.6717    1.0000 </r>
       <r>    8.6717    1.0000 </r>
       <r>    9.3273    1.0081 </r>
       <r>    9.3273    1.0081 </r>
       <r>   10.1261   -0.0081 </r>
       <r>   10.1261   -0.0081 </r>
       <r>   12.2285   -0.0000 </r>
       <r>   13.8993   -0.0000 </r>
       <r>   15.4956    0.0000 </r>
       <r>   15.4956    0.0000 </r>
       <r>   16.3198    0.0000 </r>
       <r>   16.3198    0.0000 </r>
      </set>
      <set comment="kpoint 3">
       <r>  -14.4287    1.0000 </r>
       <r>   -9.8270    1.0000 </r>
       <r>   -8.9596    1.0000 </r>
       <r>   -8.3458    1.0000 </r>
       <r>   -6.7205    1.0000 </r>
       <r>   -6.4610    1.0000 </r>
       <r>   -3.1750    1.0000 </r>
       <r>   -3.1750    1.0000 </r>
       <r>   -1.9895    1.0000 </r>
       <r>   -1.9895    1.0000 </r>
       <r>   -0.9932    1.0000 </r>
       <r>    1.3090    1.0000 </r>
       <r>    2.7806    1.0000 </r>
       <r>    2.7806    1.0000 </r>
       <r>    6.7970    1.0000 </r>
       <r>    6.7970    1.0000 </r>
       <r>    8.1668    1.0000 </r>
       <r>    8.1668    1.0000 </r>
       <r>    9.5456    1.0125 </r>
       <r>    9.5456    1.0125 </r>
       <r>   11.2587   -0.0000 </r>
       <r>   11.2587   -0.0000 </r>
       <r>   12.8286   -0.0000 </r>
       <r>   12.8286   -0.0000 </r>
       <r>   13.8622   -0.0000 </r>
       <r>   13.8622   -0.0000 </r>
       <r>   14.1304   -0.0000 </r>
       <r>   14.1304   -0.0000 </r>
       <r>   16.5583    0.0000 </r>
       <r>   16.5583    0.0000 </r>
      </set>
      <set comment="kpoint 4">
       <r>  -13.0620    1.0000 </r>
       <r>  -13.0620    1.0000 </r>
       <r>  -11.6827    1.0000 </r>
       <r>  -10.6808    1.0000 </r>
       <r>  -10.6808    1.0000 </r>
       <r>  -10.0017    1.0000 </r>
       <r>   -8.7842    1.0000 </r>
       <r>   -6.9465    1.0000 </r>
       <r>   -1.9562    1.0000 </r>
       <r>   -1.5094    1.0000 </r>
       <r>    0.2170    1.0000 </r>
       <r>    0.6560    1.0000 </r>
       <r>    0.6560    1.0000 </r>
       <r>    0.7981    1.0000 </r>
       <r>    4.9222    1.0000 </r>
       <r>    4.9222    1.0000 </r>
       <r>    7.0985    1.0000 </r>
       <r>    7.0985    1.0000 </r>
       <r>    7.5146    1.0000 </r>
       <r>    7.5146    1.0000 </r>
       <r>    8.2361    1.0000 </r>
       <r>    8.7372    1.0000 </r>
       <r>    9.1814    1.0004 </r>
       <r>   10.4611   -0.0000 </r>
       <r>   12.1998   -0.0000 </r>
       <r>   14.2852   -0.0000 </r>
       <r>   14.2852   -0.0000 </r>
       <r>   15.2447    0.0000 </r>
       <r>   16.0114    0.0000 </r>
       <r>   16.0114    0.0000 </r>
      </set>
      <set comment="kpoint 5">
       <r>  -10.5762    1.0000 </r>
       <r>   -9.6416    1.0000 </r>
       <r>   -8.9517    1.0000 </r>
       <r>   -7.2567    1.0000 </r>
       <r>   -7.0364    1.0000 </r>
       <r>   -5.6898    1.0000 </r>
       <r>   -4.6355    1.0000 </r>
       <r>   -0.5394    1.0000 </r>
       <r>    1.7608    1.0000 </r>
       <r>    2.3685    1.0000 </r>
       <r>    3.1523    1.0000 </r>
       <r>    4.2900    1.0000 </r>
       <r>    4.5210    1.0000 </r>
       <r>    5.2139    1.0000 </r>
       <r>    6.2538    1.0000 </r>
       <r>    7.4864    1.0000 </r>
       <r>    7.8087    1.0000 </r>
       <r>    8.5343    1.0000 </r>
       <r>    8.7735    1.0000 </r>
       <r>   10.2376   -0.0009 </r>
       <r>   10.2795   -0.0003 </r>
       <r>   11.9644   -0.0000 </r>
       <r>   12.1332   -0.0000 </r>
       <r>   12.7995   -0.0000 </r>
       <r>   13.2106   -0.0000 </r>
       <r>   13.8113   -0.0000 </r>
       <r>   15.6099    0.0000 </r>
       <r>   15.9830    0.0000 </r>
       <r>   16.4411    0.0000 </r>
       <r>   17.4970    0.0000 </r>
      </set>
      <set comment="kpoint 6">
       <r>   -9.9937    1.0000 </r>
       <r>   -9.5147    1.0000 </r>
       <r>   -9.5147    1.0000 </r>
       <r>   -9.3818    1.0000 </r>
       <r>   -8.8838    1.0000 </r>
       <r>   -6.5229    1.0000 </r>
       <r>   -6.5229    1.0000 </r>
       <r>   -4.0618    1.0000 </r>
       <r>    0.1827    1.0000 </r>
       <r>    0.8450    1.0000 </r>
       <r>    1.3828    1.0000 </r>
       <r>    1.3828    1.0000 </r>
       <r>    3.1173    1.0000 </r>
       <r>    3.1173    1.0000 </r>
       <r>    4.9528    1.0000 </r>
       <r>    6.1870    1.0000 </r>
       <r>    6.7881    1.0000 </r>
       <r>    6.7881    1.0000 </r>
       <r>    7.0085    1.0000 </r>
       <r>    7.8441    1.0000 </r>
       <r>    7.9005    1.0000 </r>
       <r>    9.0842    1.0000 </r>
       <r>    9.6886    0.6586 </r>
       <r>    9.6886    0.6586 </r>
       <r>   12.2714   -0.0000 </r>
       <r>   13.1921   -0.0000 </r>
       <r>   14.2996   -0.0000 </r>
       <r>   14.2996   -0.0000 </r>
       <r>   15.2493    0.0000 </r>
       <r>   15.2493    0.0000 </r>
      </set>
      <set comment="kpoint 7">
       <r>   -9.6168    1.0000 </r>
       <r>   -9.6168    1.0000 </r>
       <r>   -9.6168    1.0000 </r>
       <r>   -7.1587    1.0000 </r>
       <r>   -5.3280    1.0000 </r>
       <r>   -5.3280    1.0000 </r>
       <r>   -5.3280    1.0000 </r>
       <r>   -4.7975    1.0000 </r>
       <r>   -4.7975    1.0000 </r>
       <r>   -1.4445    1.0000 </r>
       <r>   -0.6459    1.0000 </r>
       <r>   -0.6459    1.0000 </r>
       <r>    5.4103    1.0000 </r>
       <r>    5.4103    1.0000 </r>
       <r>    5.4103    1.0000 </r>
       <r>    7.0313    1.0000 </r>
       <r>    7.0313    1.0000 </r>
       <r>    7.0313    1.0000 </r>
       <r>    8.9851    1.0000 </r>
       <r>    8.9851    1.0000 </r>
       <r>    8.9851    1.0000 </r>
       <r>   12.3278   -0.0000 </r>
       <r>   12.3278   -0.0000 </r>
       <r>   12.3278   -0.0000 </r>
       <r>   14.2376   -0.0000 </r>
       <r>   14.2376   -0.0000 </r>
       <r>   14.2376   -0.0000 </r>
       <r>   14.9975   -0.0000 </r>
       <r>   14.9975   -0.0000 </r>
       <r>   14.9975   -0.0000 </r>
      </set>
      <set comment="kpoint 8">
       <r>  -10.1538    1.0000 </r>
       <r>  -10.1538    1.0000 </r>
       <r>   -9.1735    1.0000 </r>
       <r>   -7.7068    1.0000 </r>
       <r>   -6.3538    1.0000 </r>
       <r>   -4.6890    1.0000 </r>
       <r>   -3.0799    1.0000 </r>
       <r>   -3.0799    1.0000 </r>
       <r>   -2.4671    1.0000 </r>
       <r>   -1.7748    1.0000 </r>
       <r>   -0.0775    1.0000 </r>
       <r>    2.1052    1.0000 </r>
       <r>    2.2262    1.0000 </r>
       <r>    4.7497    1.0000 </r>
       <r>    5.9228    1.0000 </r>
       <r>    5.9228    1.0000 </r>
       <r>    6.9075    1.0000 </r>
       <r>    6.9075    1.0000 </r>
       <r>    6.9622    1.0000 </r>
       <r>    8.4621    1.0000 </r>
       <r>    8.4621    1.0000 </r>
       <r>    9.3079    1.0058 </r>
       <r>    9.3079    1.0058 </r>
       <r>   12.8636   -0.0000 </r>
       <r>   12.8636   -0.0000 </r>
       <r>   13.7643   -0.0000 </r>
       <r>   14.1676   -0.0000 </r>
       <r>   16.1468    0.0000 </r>
       <r>   16.1972    0.0000 </r>
       <r>   16.1972    0.0000 </r>
      </set>
      <set comment="kpoint 9">
       <r>   -8.3616    1.0000 </r>
       <r>   -8.1271    1.0000 </r>
       <r>   -8.1271    1.0000 </r>
       <r>   -7.8657    1.0000 </r>
       <r>   -7.3646    1.0000 </r>
       <r>   -4.0922    1.0000 </r>
       <r>   -1.8539    1.0000 </r>
       <r>   -1.8539    1.0000 </r>
       <r>   -1.7084    1.0000 </r>
       <r>   -0.5325    1.0000 </r>
       <r>    1.3078    1.0000 </r>
       <r>    1.8343    1.0000 </r>
       <r>    1.8343    1.0000 </r>
       <r>    3.6586    1.0000 </r>
       <r>    3.6586    1.0000 </r>
       <r>    3.7091    1.0000 </r>
       <r>    4.7564    1.0000 </r>
       <r>    5.8944    1.0000 </r>
       <r>    6.4919    1.0000 </r>
       <r>    6.4919    1.0000 </r>
       <r>    8.3148    1.0000 </r>
       <r>    8.8066    1.0000 </r>
       <r>   10.5910   -0.0000 </r>
       <r>   10.5910   -0.0000 </r>
       <r>   11.7536   -0.0000 </r>
       <r>   11.7536   -0.0000 </r>
       <r>   12.9417   -0.0000 </r>
       <r>   13.1200   -0.0000 </r>
       <r>   17.7294    0.0000 </r>
       <r>   19.5833    0.0000 </r>
      </set>
      <set comment="kpoint 10">
       <r>   -8.4839    1.0000 </r>
       <r>   -8.4839    1.0000 </r>
       <r>   -8.4839    1.0000 </r>
       <r>   -7.3818    1.0000 </r>
       <r>   -7.3818    1.0000 </r>
       <r>   -7.3818    1.0000 </r>
       <r>   -2.5467    1.0000 </r>
       <r>   -2.5467    1.0000 </r>
       <r>   -2.5467    1.0000 </r>
       <r>   -0.9757    1.0000 </r>
       <r>   -0.9757    1.0000 </r>
       <r>    2.5818    1.0000 </r>
       <r>    3.9017    1.0000 </r>
       <r>    4.9786    1.0000 </r>
       <r>    4.9786    1.0000 </r>
       <r>    4.9786    1.0000 </r>
       <r>    5.8973    1.0000 </r>
       <r>    5.8973    1.0000 </r>
       <r>    5.8973    1.0000 </r>
       <r>    6.1417    1.0000 </r>
       <r>    6.1417    1.0000 </r>
       <r>    6.1417    1.0000 </r>
       <r>    6.6732    1.0000 </r>
       <r>    6.6732    1.0000 </r>
       <r>    7.4275    1.0000 </r>
       <r>    7.4275    1.0000 </r>
       <r>    7.4275    1.0000 </r>
       <r>    9.8275    0.1281 </r>
       <r>   22.9526    0.0000 </r>
       <r>   22.9526    0.0000 </r>
      </set>
     </set>
    </set>
   </array>
  </eigenvalues>
  <separator name="orbital magnetization" >
   <v name="MAGDIPOLOUT">      0.00000000      0.00000000      0.00000000</v>
  </separator>
  <dos>
   <i name="efermi">      9.72685491 </i>
   <total>
    <array>
     <dimension dim="1">gridpoints</dimension>
     <dimension dim="2">spin</dimension>
     <field>energy</field>
     <field>total</field>
     <field>integrated</field>
     <set>
      <set comment="spin 1">
       <r>   -16.7651     0.0000     0.0000 </r>
       <r>   -16.6261     0.0000     0.0000 </r>
       <r>   -16.4870    -0.0000    -0.0000 </r>
       <r>   -16.3480    -0.0000    -0.0000 </r>
       <r>   -16.2089    -0.0000    -0.0000 </r>
       <r>   -16.0698    -0.0000    -0.0000 </r>
       <r>   -15.9308    -0.0000    -0.0000 </r>
       <r>   -15.7917    -0.0000    -0.0000 </r>
       <r>   -15.6527    -0.0000    -0.0000 </r>
       <r>   -15.5136    -0.0000    -0.0000 </r>
       <r>   -15.3745    -0.0000    -0.0000 </r>
       <r>   -15.2355    -0.0009    -0.0001 </r>
       <r>   -15.0964    -0.0104    -0.0016 </r>
       <r>   -14.9574    -0.0185    -0.0042 </r>
       <r>   -14.8183     0.1518     0.0170 </r>
       <r>   -14.6792     0.4891     0.0850 </r>
       <r>   -14.5402     0.4780     0.1514 </r>
       <r>   -14.4011     0.3980     0.2068 </r>
       <r>   -14.2621     0.2419     0.2404 </r>
       <r>   -14.1230     0.0154     0.2426 </r>
       <r>   -13.9840    -0.0159     0.2403 </r>
       <r>   -13.8449    -0.0024     0.2400 </r>
       <r>   -13.7058    -0.0005     0.2399 </r>
       <r>   -13.5668    -0.0102     0.2385 </r>
       <r>   -13.4277    -0.0696     0.2288 </r>
       <r>   -13.2887     0.0349     0.2337 </r>
       <r>   -13.1496     1.1709     0.3965 </r>
       <r>   -13.0105     2.1480     0.6952 </r>
       <r>   -12.8715     0.9676     0.8298 </r>
       <r>   -12.7324    -0.0325     0.8252 </r>
       <r>   -12.5934    -0.0598     0.8169 </r>
       <r>   -12.4543    -0.0065     0.8160 </r>
       <r>   -12.3152    -0.0003     0.8160 </r>
       <r>   -12.1762    -0.0018     0.8157 </r>
       <r>   -12.0371    -0.0197     0.8130 </r>
       <r>   -11.8981    -0.0247     0.8096 </r>
       <r>   -11.7590     0.3026     0.8516 </r>
       <r>   -11.6199     0.7731     0.9592 </r>
       <r>   -11.4809     0.6985     1.0563 </r>
       <r>   -11.3418     0.5205     1.1287 </r>
       <r>   -11.2028     0.1926     1.1555 </r>
       <r>   -11.0637    -0.0454     1.1491 </r>
       <r>   -10.9247    -0.1490     1.1284 </r>
       <r>   -10.7856     0.3795     1.1812 </r>
       <r>   -10.6465     2.5401     1.5344 </r>
       <r>   -10.5075     3.1971     1.9790 </r>
       <r>   -10.3684     0.9430     2.1101 </r>
       <r>   -10.2294     1.1159     2.2653 </r>
       <r>   -10.0903     3.4481     2.7448 </r>
       <r>    -9.9512     2.9378     3.1533 </r>
       <r>    -9.8122     1.1748     3.3167 </r>
       <r>    -9.6731     2.1257     3.6123 </r>
       <r>    -9.5341     4.0756     4.1790 </r>
       <r>    -9.3950     2.8715     4.5783 </r>
       <r>    -9.2559     1.3632     4.7679 </r>
       <r>    -9.1169     1.5724     4.9866 </r>
       <r>    -8.9778     2.3366     5.3115 </r>
       <r>    -8.8388     2.8293     5.7049 </r>
       <r>    -8.6997     1.5912     5.9262 </r>
       <r>    -8.5607     1.2617     6.1016 </r>
       <r>    -8.4216     2.7000     6.4771 </r>
       <r>    -8.2825     2.9467     6.8869 </r>
       <r>    -8.1435     2.9711     7.3000 </r>
       <r>    -8.0044     2.7675     7.6849 </r>
       <r>    -7.8654     1.9148     7.9511 </r>
       <r>    -7.7263     2.1469     8.2497 </r>
       <r>    -7.5872     1.4078     8.4454 </r>
       <r>    -7.4482     1.5158     8.6562 </r>
       <r>    -7.3091     3.7458     9.1771 </r>
       <r>    -7.1701     3.5756     9.6743 </r>
       <r>    -7.0310     2.5315    10.0264 </r>
       <r>    -6.8919     1.9035    10.2911 </r>
       <r>    -6.7529     0.6775    10.3853 </r>
       <r>    -6.6138     0.7648    10.4916 </r>
       <r>    -6.4748     2.1594    10.7919 </r>
       <r>    -6.3357     2.5767    11.1502 </r>
       <r>    -6.1966     1.2066    11.3180 </r>
       <r>    -6.0576     0.0115    11.3196 </r>
       <r>    -5.9185    -0.1374    11.3005 </r>
       <r>    -5.7795     0.5151    11.3721 </r>
       <r>    -5.6404     1.4379    11.5721 </r>
       <r>    -5.5014     0.9266    11.7009 </r>
       <r>    -5.3623     1.0095    11.8413 </r>
       <r>    -5.2232     1.3884    12.0344 </r>
       <r>    -5.0842     0.3369    12.0812 </r>
       <r>    -4.9451    -0.0962    12.0678 </r>
       <r>    -4.8061     1.1766    12.2315 </r>
       <r>    -4.6670     3.2989    12.6902 </r>
       <r>    -4.5279     2.6951    13.0650 </r>
       <r>    -4.3889     0.3596    13.1150 </r>
       <r>    -4.2498    -0.0279    13.1111 </r>
       <r>    -4.1108     1.5296    13.3238 </r>
       <r>    -3.9717     2.1251    13.6193 </r>
       <r>    -3.8326     0.5797    13.6999 </r>
       <r>    -3.6936    -0.1043    13.6854 </r>
       <r>    -3.5545    -0.0625    13.6767 </r>
       <r>    -3.4155    -0.1331    13.6582 </r>
       <r>    -3.2764     0.2022    13.6863 </r>
       <r>    -3.1374     2.3357    14.0111 </r>
       <r>    -2.9983     3.5046    14.4985 </r>
       <r>    -2.8592     1.1800    14.6626 </r>
       <r>    -2.7202    -0.1022    14.6484 </r>
       <r>    -2.5811     1.2969    14.8287 </r>
       <r>    -2.4421     3.0659    15.2550 </r>
       <r>    -2.3030     1.8021    15.5056 </r>
       <r>    -2.1639     0.0075    15.5067 </r>
       <r>    -2.0249     0.7386    15.6094 </r>
       <r>    -1.8858     3.9100    16.1531 </r>
       <r>    -1.7468     5.7821    16.9572 </r>
       <r>    -1.6077     3.5398    17.4494 </r>
       <r>    -1.4686     1.4458    17.6505 </r>
       <r>    -1.3296     0.7072    17.7488 </r>
       <r>    -1.1905     0.0579    17.7568 </r>
       <r>    -1.0515     0.7639    17.8631 </r>
       <r>    -0.9124     1.6491    18.0924 </r>
       <r>    -0.7733     0.8487    18.2104 </r>
       <r>    -0.6343     1.7895    18.4593 </r>
       <r>    -0.4952     3.6714    18.9698 </r>
       <r>    -0.3562     1.9126    19.2358 </r>
       <r>    -0.2171     0.2064    19.2645 </r>
       <r>    -0.0781     1.0696    19.4132 </r>
       <r>     0.0610     1.4672    19.6172 </r>
       <r>     0.2001     1.4555    19.8196 </r>
       <r>     0.3391     1.1189    19.9752 </r>
       <r>     0.4782     0.1901    20.0016 </r>
       <r>     0.6172     0.8744    20.1232 </r>
       <r>     0.7563     2.1603    20.4237 </r>
       <r>     0.8954     1.9450    20.6941 </r>
       <r>     1.0344     0.9747    20.8297 </r>
       <r>     1.1735     0.9171    20.9572 </r>
       <r>     1.3125     2.4593    21.2992 </r>
       <r>     1.4516     2.8763    21.6992 </r>
       <r>     1.5907     0.8991    21.8242 </r>
       <r>     1.7297     2.2789    22.1411 </r>
       <r>     1.8688     4.8681    22.8180 </r>
       <r>     2.0078     2.9425    23.2272 </r>
       <r>     2.1469     2.0403    23.5109 </r>
       <r>     2.2859     2.8670    23.9096 </r>
       <r>     2.4250     2.3264    24.2331 </r>
       <r>     2.5641     1.0937    24.3852 </r>
       <r>     2.7031     0.6872    24.4808 </r>
       <r>     2.8422     0.6740    24.5745 </r>
       <r>     2.9812     0.6363    24.6630 </r>
       <r>     3.1203     2.2860    24.9809 </r>
       <r>     3.2594     2.6124    25.3442 </r>
       <r>     3.3984     0.3822    25.3973 </r>
       <r>     3.5375     0.5266    25.4705 </r>
       <r>     3.6765     3.7066    25.9860 </r>
       <r>     3.8156     3.8919    26.5272 </r>
       <r>     3.9547     1.0955    26.6795 </r>
       <r>     4.0937     0.0501    26.6865 </r>
       <r>     4.2328     0.6644    26.7789 </r>
       <r>     4.3718     1.6430    27.0073 </r>
       <r>     4.5109     1.9447    27.2778 </r>
       <r>     4.6500     2.3015    27.5978 </r>
       <r>     4.7890     3.4607    28.0790 </r>
       <r>     4.9281     4.5112    28.7064 </r>
       <r>     5.0671     3.6251    29.2105 </r>
       <r>     5.2062     1.9615    29.4832 </r>
       <r>     5.3452     1.8701    29.7433 </r>
       <r>     5.4843     1.6507    29.9728 </r>
       <r>     5.6234     0.3056    30.0153 </r>
       <r>     5.7624     0.5791    30.0959 </r>
       <r>     5.9015     4.6349    30.7404 </r>
       <r>     6.0405     5.7071    31.5340 </r>
       <r>     6.1796     3.6231    32.0378 </r>
       <r>     6.3187     2.9336    32.4458 </r>
       <r>     6.4577     2.7109    32.8228 </r>
       <r>     6.5968     3.0208    33.2428 </r>
       <r>     6.7358     2.9492    33.6530 </r>
       <r>     6.8749     5.3890    34.4023 </r>
       <r>     7.0140     7.5176    35.4477 </r>
       <r>     7.1530     4.8714    36.1251 </r>
       <r>     7.2921     1.5086    36.3349 </r>
       <r>     7.4311     3.1647    36.7750 </r>
       <r>     7.5702     4.6819    37.4261 </r>
       <r>     7.7092     2.9333    37.8339 </r>
       <r>     7.8483     2.9404    38.2428 </r>
       <r>     7.9874     2.2761    38.5593 </r>
       <r>     8.1264     0.9440    38.6906 </r>
       <r>     8.2655     2.0827    38.9802 </r>
       <r>     8.4045     3.9643    39.5315 </r>
       <r>     8.5436     4.8744    40.2093 </r>
       <r>     8.6827     4.1210    40.7824 </r>
       <r>     8.8217     4.2414    41.3722 </r>
       <r>     8.9608     3.3386    41.8365 </r>
       <r>     9.0998     2.4072    42.1712 </r>
       <r>     9.2389     3.5027    42.6583 </r>
       <r>     9.3780     4.4419    43.2760 </r>
       <r>     9.5170     2.3698    43.6055 </r>
       <r>     9.6561     1.7389    43.8473 </r>
       <r>     9.7951     2.0048    44.1261 </r>
       <r>     9.9342     0.8026    44.2377 </r>
       <r>    10.0732     0.5079    44.3084 </r>
       <r>    10.2123     2.4003    44.6421 </r>
       <r>    10.3514     3.2636    45.0960 </r>
       <r>    10.4904     2.6303    45.4617 </r>
       <r>    10.6295     3.3281    45.9245 </r>
       <r>    10.7685     1.8987    46.1886 </r>
       <r>    10.9076     0.0240    46.1919 </r>
       <r>    11.0467    -0.1398    46.1725 </r>
       <r>    11.1857     0.3185    46.2168 </r>
       <r>    11.3248     0.7338    46.3188 </r>
       <r>    11.4638     0.2238    46.3499 </r>
       <r>    11.6029     0.2391    46.3832 </r>
       <r>    11.7420     2.2587    46.6973 </r>
       <r>    11.8810     3.1312    47.1327 </r>
       <r>    12.0201     2.3250    47.4560 </r>
       <r>    12.1591     2.9906    47.8719 </r>
       <r>    12.2982     3.8874    48.4125 </r>
       <r>    12.4373     2.3287    48.7363 </r>
       <r>    12.5763     0.0537    48.7437 </r>
       <r>    12.7154     0.8556    48.8627 </r>
       <r>    12.8544     5.0041    49.5586 </r>
       <r>    12.9935     5.7330    50.3558 </r>
       <r>    13.1325     3.7679    50.8798 </r>
       <r>    13.2716     3.2192    51.3274 </r>
       <r>    13.4107     1.0554    51.4742 </r>
       <r>    13.5497    -0.2845    51.4346 </r>
       <r>    13.6888     0.9266    51.5635 </r>
       <r>    13.8278     3.6198    52.0668 </r>
       <r>    13.9669     2.9789    52.4811 </r>
       <r>    14.1060     2.0849    52.7710 </r>
       <r>    14.2450     5.1516    53.4874 </r>
       <r>    14.3841     4.9628    54.1775 </r>
       <r>    14.5231     1.1183    54.3330 </r>
       <r>    14.6622    -0.2894    54.2928 </r>
       <r>    14.8013    -0.1064    54.2780 </r>
       <r>    14.9403     0.7062    54.3762 </r>
       <r>    15.0794     1.6105    54.6001 </r>
       <r>    15.2184     2.1012    54.8923 </r>
       <r>    15.3575     2.1277    55.1882 </r>
       <r>    15.4965     1.5326    55.4013 </r>
       <r>    15.6356     1.8585    55.6598 </r>
       <r>    15.7747     0.9749    55.7953 </r>
       <r>    15.9137     1.0072    55.9354 </r>
       <r>    16.0528     3.7167    56.4522 </r>
       <r>    16.1918     5.6175    57.2334 </r>
       <r>    16.3309     4.5309    57.8635 </r>
       <r>    16.4700     2.6845    58.2368 </r>
       <r>    16.6090     1.6586    58.4674 </r>
       <r>    16.7481     0.4279    58.5269 </r>
       <r>    16.8871    -0.0682    58.5174 </r>
       <r>    17.0262    -0.0414    58.5117 </r>
       <r>    17.1653    -0.0544    58.5041 </r>
       <r>    17.3043    -0.0154    58.5020 </r>
       <r>    17.4434     0.7658    58.6085 </r>
       <r>    17.5824     1.6702    58.8407 </r>
       <r>    17.7215     1.7787    59.0881 </r>
       <r>    17.8606     1.2588    59.2631 </r>
       <r>    17.9996     0.1983    59.2907 </r>
       <r>    18.1387    -0.0343    59.2859 </r>
       <r>    18.2777     0.2448    59.3199 </r>
       <r>    18.4168     0.2634    59.3566 </r>
       <r>    18.5558     0.0431    59.3626 </r>
       <r>    18.6949    -0.0150    59.3605 </r>
       <r>    18.8340    -0.0033    59.3600 </r>
       <r>    18.9730    -0.0004    59.3600 </r>
       <r>    19.1121    -0.0057    59.3592 </r>
       <r>    19.2511    -0.0501    59.3522 </r>
       <r>    19.3902    -0.0024    59.3519 </r>
       <r>    19.5293     0.8326    59.4676 </r>
       <r>    19.6683     1.5075    59.6773 </r>
       <r>    19.8074     0.5724    59.7569 </r>
       <r>    19.9464    -0.0544    59.7493 </r>
       <r>    20.0855    -0.0352    59.7444 </r>
       <r>    20.2246    -0.0030    59.7440 </r>
       <r>    20.3636    -0.0001    59.7440 </r>
       <r>    20.5027    -0.0000    59.7440 </r>
       <r>    20.6417    -0.0000    59.7440 </r>
       <r>    20.7808    -0.0000    59.7440 </r>
       <r>    20.9198    -0.0000    59.7440 </r>
       <r>    21.0589     0.0000    59.7440 </r>
       <r>    21.1980     0.0000    59.7440 </r>
       <r>    21.3370    -0.0000    59.7440 </r>
       <r>    21.4761    -0.0000    59.7440 </r>
       <r>    21.6151    -0.0000    59.7440 </r>
       <r>    21.7542    -0.0000    59.7440 </r>
       <r>    21.8933    -0.0000    59.7440 </r>
       <r>    22.0323    -0.0000    59.7440 </r>
       <r>    22.1714    -0.0000    59.7440 </r>
       <r>    22.3104    -0.0001    59.7440 </r>
       <r>    22.4495    -0.0019    59.7437 </r>
       <r>    22.5886    -0.0232    59.7405 </r>
       <r>    22.7276    -0.0369    59.7354 </r>
       <r>    22.8667     0.3770    59.7878 </r>
       <r>    23.0057     1.0039    59.9274 </r>
       <r>    23.1448     0.5600    60.0053 </r>
       <r>    23.2839    -0.0002    60.0052 </r>
       <r>    23.4229    -0.0337    60.0006 </r>
       <r>    23.5620    -0.0039    60.0000 </r>
       <r>    23.7010    -0.0001    60.0000 </r>
       <r>    23.8401    -0.0000    60.0000 </r>
       <r>    23.9791    -0.0000    60.0000 </r>
       <r>    24.1182    -0.0000    60.0000 </r>
       <r>    24.2573    -0.0000    60.0000 </r>
       <r>    24.3963     0.0000    60.0000 </r>
       <r>    24.5354     0.0000    60.0000 </r>
       <r>    24.6744     0.0000    60.0000 </r>
       <r>    24.8135     0.0000    60.0000 </r>
       <r>    24.9526     0.0000    60.0000 </r>
      </set>
     </set>
    </array>
   </total>
  </dos>
 </calculation>
 <structure name="finalpos" >
  <crystal>
   <varray name="basis" >
    <v>       3.63500000       0.00000000       0.00000000 </v>
    <v>       0.00000000       3.63500000       0.00000000 </v>
    <v>       0.00000000       0.00000000       3.63500000 </v>
   </varray>
   <i name="volume">     48.03007287 </i>
   <varray name="rec_basis" >
    <v>       0.27510316       0.00000000       0.00000000 </v>
    <v>       0.00000000       0.27510316       0.00000000 </v>
    <v>       0.00000000       0.00000000       0.27510316 </v>
   </varray>
  </crystal>
  <varray name="positions" >
   <v>       0.00000000       0.00000000       0.00000000 </v>
   <v>       0.50000000       0.50000000       0.00000000 </v>
   <v>       0.50000000       0.00000000       0.50000000 </v>
   <v>       0.00000000       0.50000000       0.50000000 </v>
  </varray>
 </structure>
</modeling>
