unknown system                          
   1.00000000000000     
     2.330000    0.000000    0.000000
    -1.165000    2.017839    0.000000
     0.000000    0.000000    4.141000
   Fe
     2
Direct
  0.000000  0.000000  0.000000
  0.333333  0.666667  0.500000
 
   20   20   36
  163.44      154.87      131.83      100.87      69.358      42.906      24.392      14.077      10.024      8.9175    
  8.5769      8.9177      10.024      14.077      24.392      42.906      69.358      100.87      131.83      154.87    
  154.88      154.87      139.10      112.28      81.462      53.096      31.335      17.679      11.223      9.2216    
  8.5731      8.5727      9.2212      11.224      17.679      31.334      53.094      81.466      112.29      139.11    
  131.83      139.08      131.83      112.28      85.940      59.073      36.586      21.063      12.681      9.5469    
  8.5994      8.2795      8.5985      9.5468      12.682      21.062      36.582      59.070      85.944      112.29    
  100.86      112.22      112.22      100.87      81.462      59.073      38.542      23.114      13.896      9.9065    
  8.6421      8.0707      8.0703      8.6417      9.9071      13.898      23.113      38.538      59.067      81.456    
  69.346      81.366      85.813      81.376      69.358      53.096      36.586      23.114      14.370      10.156    
  8.6808      7.9489      7.6972      7.9490      8.6809      10.157      14.372      23.117      36.586      53.089    
  42.905      53.020      58.940      58.943      53.026      42.906      31.335      21.063      13.896      10.156    
  8.6964      7.8965      7.4866      7.4870      7.8965      8.6952      10.156      13.900      21.071      31.341    
  24.400      31.316      36.518      38.450      36.515      31.308      24.392      17.679      12.681      9.9064    
  8.6809      7.8965      7.4200      7.2657      7.4207      7.8956      8.6773      9.9029      12.682      17.685    
  14.077      17.699      21.077      23.111      23.107      21.069      17.693      14.077      11.224      9.5469    
  8.6421      7.9489      7.4865      7.2657      7.2664      7.4878      7.9486      8.6382      9.5400      11.218    
  10.015      11.253      12.740      13.967      14.441      13.964      12.740      11.259      10.024      9.2216    
  8.5994      8.0707      7.6971      7.4869      7.4208      7.4878      7.6999      8.0742      8.5993      9.2153    
  8.9173      9.2558      9.6168      10.007      10.274      10.275      10.011      9.6236      9.2616      8.9176    
  8.5730      8.2795      8.0703      7.9489      7.8966      7.8956      7.9485      8.0742      8.2871      8.5790    
  8.5857      8.6210      8.6820      8.7562      8.8199      8.8467      8.8235      8.7597      8.6812      8.6148    
  8.5769      8.5727      8.5985      8.6417      8.6809      8.6952      8.6772      8.6381      8.5994      8.5791    
  8.9172      8.6210      8.3721      8.2002      8.1078      8.0738      8.0747      8.1081      8.1963      8.3646    
  8.6152      8.9176      9.2212      9.5468      9.9070      10.157      10.156      9.9029      9.5401      9.2153    
  10.015      9.2558      8.6821      8.2002      7.8656      7.6822      7.6259      7.6815      7.8629      8.1966    
  8.6820      9.2621      10.024      11.224      12.682      13.898      14.372      13.900      12.682      11.218    
  14.077      11.253      9.6169      8.7562      8.1077      7.6822      7.4817      7.4810      7.6811      8.1081    
  8.7600      9.6236      11.258      14.077      17.679      21.062      23.113      23.117      21.070      17.685    
  24.401      17.699      12.740      10.007      8.8199      8.0738      7.6259      7.4810      7.6251      8.0746    
  8.8235      10.010      12.739      17.693      24.392      31.334      36.582      38.538      36.586      31.341    
  42.905      31.316      21.077      13.967      10.274      8.8468      8.0747      7.6814      7.6810      8.0746    
  8.8480      10.274      13.963      21.070      31.310      42.906      53.094      59.070      59.067      53.089    
  69.346      53.020      36.518      23.111      14.441      10.275      8.8234      8.1080      7.8629      8.1081    
  8.8235      10.274      14.438      23.108      36.518      53.027      69.358      81.466      85.944      81.456    
  100.86      81.366      58.940      38.450      23.107      13.964      10.011      8.7597      8.1963      8.1967    
  8.7600      10.010      13.963      23.108      38.454      58.946      81.372      100.87      112.29      112.29    
  131.83      112.22      85.813      58.943      36.515      21.069      12.740      9.6237      8.6813      8.3645    
  8.6820      9.6236      12.739      21.070      36.518      58.946      85.809      112.21      131.83      139.11    
  154.88      139.08      112.22      81.376      53.026      31.308      17.693      11.259      9.2616      8.6148    
  8.6152      9.2621      11.258      17.693      31.310      53.027      81.372      112.21      139.07      154.87    
  155.04      146.91      125.06      95.667      65.743      40.654      23.178      13.542      9.8188      8.7762    
  8.4438      8.7763      9.8190      13.542      23.178      40.654      65.743      95.667      125.06      146.91    
  146.92      146.91      131.96      106.50      77.229      50.299      29.705      16.878      10.902      9.0662    
  8.4336      8.4332      9.0658      10.903      16.879      29.703      50.298      77.232      106.51      131.97    
  125.06      131.94      125.06      106.50      81.479      55.962      34.654      20.032      12.230      9.3594    
  8.4547      8.1440      8.4538      9.3592      12.231      20.031      34.651      55.960      81.482      106.51    
  95.663      106.45      106.45      95.667      77.229      55.962      36.500      21.949      13.343      9.6773    
  8.4936      7.9394      7.9390      8.4932      9.6779      13.344      21.949      36.497      55.957      77.223    
  65.732      77.156      81.383      77.165      65.743      50.299      34.654      21.949      13.778      9.8986    
  8.5300      7.8205      7.5780      7.8207      8.5301      9.8994      13.781      21.952      34.654      50.292    
  40.653      50.249      55.872      55.875      50.255      40.654      29.705      20.032      13.343      9.8986    
  8.5448      7.7695      7.3751      7.3755      7.7697      8.5437      9.8983      13.347      20.039      29.710    
  23.186      29.710      34.631      36.461      34.628      29.703      23.178      16.879      12.230      9.6772    
  8.5300      7.7696      7.3111      7.1631      7.3118      7.7688      8.5268      9.6740      12.231      16.884    
  13.541      16.920      20.087      22.000      21.996      20.079      16.914      13.542      10.902      9.3593    
  8.4936      7.8206      7.3750      7.1631      7.1638      7.3762      7.8203      8.4900      9.3529      10.897    
  9.8100      10.949      12.323      13.461      13.902      13.459      12.323      10.955      9.8189      9.0661    
  8.4547      7.9394      7.5779      7.3754      7.3119      7.3762      7.5805      7.9426      8.4546      9.0603    
  8.7759      9.1157      9.4590      9.8186      10.063      10.065      9.8225      9.4653      9.1211      8.7762    
  8.4335      8.1440      7.9391      7.8206      7.7697      7.7688      7.8201      7.9426      8.1511      8.4391    
  8.4520      8.4949      8.5634      8.6439      8.7115      8.7395      8.7147      8.6470      8.5627      8.4891    
  8.4438      8.4331      8.4538      8.4932      8.5300      8.5437      8.5267      8.4899      8.4547      8.4391    
  8.7758      8.4948      8.2611      8.1017      8.0177      7.9876      7.9884      8.0180      8.0981      8.2541    
  8.4895      8.7763      9.0658      9.3592      9.6778      9.8994      9.8983      9.6740      9.3530      9.0603    
  9.8099      9.1157      8.5635      8.1018      7.7828      7.6087      7.5553      7.6080      7.7803      8.0985    
  8.5635      9.1215      9.8189      10.903      12.230      13.344      13.781      13.347      12.230      10.897    
  13.541      10.949      9.4591      8.6439      8.0176      7.6087      7.4165      7.4159      7.6076      8.0180    
  8.6474      9.4653      10.955      13.542      16.879      20.031      21.949      21.952      20.039      16.884    
  23.186      16.920      12.323      9.8186      8.7114      7.9876      7.5554      7.4158      7.5545      7.9883    
  8.7147      9.8218      12.322      16.914      23.178      29.703      34.651      36.496      34.654      29.710    
  40.653      29.710      20.087      13.461      10.064      8.7395      7.9885      7.6080      7.6076      7.9883    
  8.7406      10.064      13.457      20.080      29.704      40.654      50.298      55.960      55.957      50.292    
  65.732      50.249      34.631      22.000      13.902      10.065      8.7147      8.0180      7.7803      8.0180    
  8.7148      10.064      13.899      21.996      34.631      50.256      65.743      77.232      81.482      77.223    
  95.663      77.156      55.872      36.462      21.996      13.458      9.8224      8.6471      8.0982      8.0985    
  8.6474      9.8218      13.457      21.996      36.465      55.878      77.161      95.667      106.51      106.51    
  125.06      106.45      81.383      55.875      34.628      20.079      12.323      9.4653      8.5628      8.2541    
  8.5634      9.4652      12.322      20.080      34.631      55.878      81.379      106.44      125.06      131.97    
  146.92      131.94      106.45      77.165      50.255      29.703      16.914      10.955      9.1212      8.4890    
  8.4894      9.1216      10.955      16.914      29.704      50.256      77.161      106.44      131.93      146.91    
  132.38      125.45      106.77      81.607      55.978      34.610      19.968      12.160      9.2883      8.3896    
  8.0824      8.3898      9.2884      12.160      19.968      34.610      55.978      81.607      106.77      125.45    
  125.45      125.45      112.67      90.874      65.783      42.765      25.358      14.786      10.078      8.6393    
  8.0524      8.0520      8.6389      10.079      14.787      25.357      42.764      65.785      90.883      112.68    
  106.78      112.67      106.77      90.874      69.414      47.571      29.483      17.316      11.065      8.8640    
  8.0567      7.7732      8.0559      8.8638      11.066      17.316      29.481      47.569      69.416      90.882    
  81.604      90.863      90.864      81.607      65.783      47.571      31.028      18.870      11.910      9.0817    
  8.0826      7.5785      7.5782      8.0822      9.0821      11.911      18.869      31.025      47.566      65.778    
  55.969      65.772      69.403      65.780      55.978      42.764      29.483      18.870      12.243      9.2327    
  8.1106      7.4662      7.2493      7.4664      8.1107      9.2332      12.245      18.872      29.483      42.759    
  34.609      42.788      47.598      47.601      42.792      34.610      25.358      17.316      11.910      9.2326    
  8.1224      7.4180      7.0666      7.0669      7.4183      8.1216      9.2323      11.913      17.322      25.362    
  19.974      25.430      29.585      31.137      29.583      25.425      19.968      14.786      11.065      9.0816    
  8.1106      7.4180      7.0092      6.8786      7.0099      7.4175      8.1081      9.0792      11.066      14.791    
  12.159      14.886      17.485      19.068      19.066      17.479      14.882      12.160      10.078      8.8639    
  8.0827      7.4663      7.0665      6.8785      6.8790      7.0674      7.4659      8.0798      8.8588      10.074    
  9.2811      10.176      11.256      12.162      12.515      12.160      11.256      10.181      9.2883      8.6393    
  8.0567      7.5786      7.2492      7.0669      7.0099      7.0674      7.2511      7.5811      8.0566      8.6345    
  8.3894      8.7340      9.0507      9.3432      9.5360      9.5368      9.3461      9.0557      8.7384      8.3897    
  8.0523      7.7732      7.5782      7.4663      7.4183      7.4176      7.4658      7.5810      7.7789      8.0568    
  8.0890      8.1539      8.2443      8.3425      8.4213      8.4526      8.4238      8.3450      8.2436      8.1492    
  8.0824      8.0520      8.0559      8.0822      8.1106      8.1217      8.1080      8.0797      8.0567      8.0568    
  8.3893      8.1539      7.9651      7.8430      7.7839      7.7657      7.7664      7.7843      7.8402      7.9595    
  8.1496      8.3897      8.6390      8.8638      9.0820      9.2332      9.2324      9.0791      8.8589      8.6345    
  9.2810      8.7340      8.2444      7.8430      7.5709      7.4247      7.3805      7.4244      7.5691      7.8405    
  8.2443      8.7388      9.2884      10.079      11.066      11.911      12.245      11.913      11.066      10.074    
  12.159      10.176      9.0508      8.3426      7.7838      7.4247      7.2575      7.2571      7.4240      7.7842    
  8.3454      9.0557      10.181      12.160      14.787      17.316      18.869      18.872      17.322      14.791    
  19.975      14.886      11.256      9.3431      8.4212      7.7657      7.3805      7.2571      7.3798      7.7662    
  8.4238      9.3457      11.256      14.881      19.968      25.357      29.480      31.025      29.483      25.362    
  34.609      25.430      17.485      12.162      9.5360      8.4527      7.7665      7.4243      7.4239      7.7662    
  8.4535      9.5364      12.159      17.479      25.426      34.610      42.764      47.569      47.566      42.759    
  55.969      42.788      29.585      19.068      12.515      9.5368      8.4237      7.7842      7.5690      7.7843    
  8.4238      9.5363      12.513      19.066      29.585      42.793      55.978      65.785      69.416      65.778    
  81.604      65.772      47.599      31.137      19.066      12.160      9.3460      8.3450      7.8402      7.8405    
  8.3454      9.3457      12.159      19.066      31.139      47.603      65.777      81.607      90.883      90.882    
  106.78      90.863      69.403      47.601      29.583      17.478      11.256      9.0558      8.2437      7.9595    
  8.2443      9.0557      11.256      17.479      29.585      47.603      69.401      90.856      106.77      112.68    
  125.45      112.67      90.864      65.780      42.792      25.425      14.882      10.181      8.7384      8.1491    
  8.1495      8.7388      10.181      14.881      25.426      42.793      65.777      90.856      112.66      125.45    
  101.80      96.455      82.024      62.561      42.815      26.594      15.850      10.472      8.6133      7.8520    
  7.5860      7.8521      8.6134      10.472      15.849      26.594      42.815      62.561      82.024      96.455    
  96.458      96.455      86.572      69.701      50.308      32.686      19.685      12.170      9.0753      8.0354    
  7.5242      7.5239      8.0351      9.0757      12.170      19.684      32.685      50.310      69.707      86.578    
  82.029      86.590      82.024      69.701      53.090      36.306      22.674      13.865      9.6443      8.1988    
  7.4991      7.2579      7.4984      8.1986      9.6449      13.865      22.673      36.304      53.092      69.706    
  62.559      69.744      69.745      62.561      50.308      36.306      23.803      14.926      10.147      8.3211    
  7.5002      7.0732      7.0729      7.4998      8.3212      10.148      14.926      23.801      36.303      50.305    
  42.809      50.385      53.198      50.389      42.815      32.686      22.674      14.926      10.350      8.3964    
  7.5112      6.9656      6.7861      6.9658      7.5112      8.3966      10.351      14.928      22.674      32.682    
  26.593      32.809      36.496      36.497      32.812      26.594      19.685      13.865      10.147      8.3964    
  7.5169      6.9186      6.6285      6.6289      6.9190      7.5165      8.3961      10.149      13.869      19.688    
  15.854      19.850      22.948      24.114      22.946      19.847      15.850      12.170      9.6443      8.3210    
  7.5112      6.9186      6.5793      6.4724      6.5799      6.9184      7.5096      8.3194      9.6449      12.173    
  10.472      12.351      14.191      15.331      15.329      14.187      12.348      10.472      9.0754      8.1987    
  7.5003      6.9656      6.6285      6.4724      6.4726      6.6290      6.9654      7.4984      8.1953      9.0723    
  8.6082      9.2470      9.9771      10.591      10.832      10.590      9.9771      9.2504      8.6133      8.0354    
  7.4991      7.0733      6.7860      6.6289      6.5799      6.6290      6.7871      7.0748      7.4990      8.0321    
  7.8518      8.1979      8.5156      8.7613      8.9056      8.9060      8.7631      8.5188      8.2008      7.8521    
  7.5242      7.2580      7.0730      6.9658      6.9191      6.9185      6.9653      7.0748      7.2619      7.5272    
  7.5905      7.6876      7.8080      7.9297      8.0226      8.0582      8.0242      7.9312      7.8074      7.6844    
  7.5860      7.5239      7.4985      7.4998      7.5112      7.5165      7.5096      7.4983      7.4991      7.5273    
  7.8517      7.6876      7.5667      7.4997      7.4773      7.4766      7.4772      7.4777      7.4978      7.5628    
  7.6847      7.8521      8.0351      8.1986      8.3211      8.3966      8.3961      8.3194      8.1954      8.0321    
  8.6081      8.1978      7.8081      7.4997      7.2983      7.1944      7.1640      7.1944      7.2974      7.4980    
  7.8080      8.2011      8.6133      9.0758      9.6449      10.148      10.351      10.149      9.6449      9.0723    
  10.472      9.2470      8.5157      7.9297      7.4773      7.1944      7.0654      7.0652      7.1940      7.4776    
  7.9316      8.5189      9.2500      10.472      12.170      13.865      14.926      14.928      13.869      12.173    
  15.854      12.351      9.9770      8.7613      8.0226      7.4767      7.1641      7.0652      7.1634      7.4768    
  8.0242      8.7630      9.9764      12.347      15.850      19.684      22.673      23.801      22.674      19.688    
  26.593      19.850      14.191      10.591      8.9056      8.0583      7.4772      7.1944      7.1940      7.4768    
  8.0587      8.9059      10.589      14.187      19.847      26.594      32.685      36.304      36.303      32.682    
  42.809      32.808      22.948      15.331      10.832      8.9060      8.0242      7.4776      7.2973      7.4776    
  8.0242      8.9059      10.831      15.329      22.948      32.812      42.815      50.310      53.092      50.305    
  62.559      50.385      36.496      24.114      15.329      10.590      8.7631      7.9312      7.4978      7.4981    
  7.9316      8.7629      10.589      15.329      24.116      36.499      50.388      62.561      69.707      69.706    
  82.029      69.744      53.198      36.497      22.946      14.187      9.9770      8.5189      7.8074      7.5628    
  7.8080      8.5189      9.9764      14.187      22.948      36.499      53.196      69.739      82.024      86.578    
  96.458      86.590      69.745      50.389      32.811      19.847      12.348      9.2505      8.2008      7.6843    
  7.6846      8.2012      9.2500      12.347      19.847      32.812      50.388      69.739      86.583      96.455    
  70.413      66.679      56.607      43.082      29.548      18.775      12.065      9.0209      7.9064      7.2735    
  7.0600      7.2736      7.9064      9.0209      12.065      18.775      29.548      43.082      56.607      66.679    
  66.681      66.679      59.766      47.997      34.594      22.691      14.313      9.8597      8.1689      7.3735    
  6.9608      6.9606      7.3732      8.1692      9.8603      14.314      22.691      34.595      48.000      59.770    
  56.610      59.805      56.607      47.997      36.480      25.056      16.125      10.743      8.4090      7.4665    
  6.8967      6.7069      6.8961      7.4663      8.4095      10.744      16.124      25.055      36.480      48.000    
  43.081      48.095      48.096      43.082      34.594      25.056      16.819      11.316      8.6166      7.5343    
  6.8621      6.5271      6.5269      6.8617      7.5342      8.6167      11.316      16.818      25.054      34.592    
  29.544      34.757      36.705      34.759      29.548      22.691      16.125      11.316      8.7019      7.5688    
  6.8474      6.4182      6.2806      6.4184      6.8475      7.5687      8.7021      11.317      16.125      22.690    
  18.775      22.912      25.406      25.407      22.914      18.775      14.313      10.743      8.6166      7.5688    
  6.8438      6.3684      6.1452      6.1456      6.3689      6.8437      7.5686      8.6176      10.746      14.315    
  12.067      14.571      16.569      17.330      16.568      14.570      12.065      9.8597      8.4089      7.5342    
  6.8475      6.3684      6.1028      6.0203      6.1032      6.3685      6.8467      7.5335      8.4095      9.8617    
  9.0206      10.124      11.229      11.927      11.926      11.226      10.122      9.0209      8.1689      7.4665    
  6.8621      6.4182      6.1452      6.0203      6.0204      6.1453      6.4180      6.8611      7.4647      8.1672    
  7.9035      8.4181      8.8889      9.2591      9.4024      9.2582      8.8889      8.4201      7.9064      7.3735    
  6.8966      6.5272      6.2806      6.1456      6.1033      6.1454      6.2808      6.5279      6.8966      7.3716    
  7.2734      7.6094      7.9241      8.1675      8.2996      8.2997      8.1682      7.9257      7.6110      7.2735    
  6.9608      6.7069      6.5270      6.4184      6.3689      6.3685      6.4180      6.5279      6.7091      6.9625    
  7.0625      7.1926      7.3395      7.4794      7.5817      7.6198      7.5824      7.4800      7.3391      7.1908    
  7.0600      6.9606      6.8961      6.8617      6.8475      6.8437      6.8467      6.8611      6.8967      6.9625    
  7.2733      7.1926      7.1460      7.1360      7.1499      7.1659      7.1662      7.1502      7.1350      7.1439    
  7.1910      7.2735      7.3732      7.4663      7.5341      7.5687      7.5686      7.5335      7.4647      7.3716    
  7.9034      7.6093      7.3396      7.1360      7.0110      6.9513      6.9351      6.9516      7.0108      7.1352    
  7.3396      7.6112      7.9064      8.1693      8.4094      8.6167      8.7022      8.6176      8.4094      8.1672    
  9.0206      8.4181      7.9241      7.4794      7.1499      6.9513      6.8635      6.8634      6.9513      7.1501    
  7.4803      7.9258      8.4197      9.0209      9.8604      10.744      11.316      11.317      10.746      9.8617    
  12.067      10.124      8.8889      8.1674      7.5817      7.1659      6.9352      6.8634      6.9346      7.1658    
  7.5824      8.1682      8.8884      10.122      12.065      14.314      16.124      16.818      16.125      14.315    
  18.775      14.571      11.228      9.2590      8.2996      7.6198      7.1663      6.9516      6.9512      7.1658    
  7.6199      8.2998      9.2581      11.226      14.569      18.775      22.691      25.055      25.054      22.690    
  29.544      22.912      16.569      11.927      9.4025      8.2997      7.5824      7.1502      7.0108      7.1501    
  7.5824      8.2998      9.4021      11.926      16.569      22.914      29.548      34.595      36.480      34.592    
  43.081      34.757      25.406      17.330      11.926      9.2582      8.1681      7.4800      7.1350      7.1352    
  7.4803      8.1682      9.2581      11.926      17.332      25.408      34.758      43.082      48.000      48.000    
  56.610      48.095      36.705      25.407      16.568      11.226      8.8889      7.9257      7.3391      7.1438    
  7.3395      7.9258      8.8884      11.226      16.569      25.408      36.705      48.093      56.607      59.770    
  66.681      59.805      48.096      34.759      22.914      14.570      10.122      8.4201      7.6110      7.1907    
  7.1910      7.6113      8.4198      10.122      14.569      22.914      34.758      48.093      59.801      66.679    
  43.692      41.364      35.121      26.861      18.850      12.840      9.4483      8.0204      7.2307      6.7460    
  6.5880      6.7461      7.2308      8.0204      9.4482      12.840      18.850      26.861      35.121      41.364    
  41.365      41.364      37.058      29.802      21.731      14.882      10.436      8.3215      7.3836      6.7597    
  6.4528      6.4527      6.7595      7.3838      8.3222      10.436      14.882      21.731      29.803      37.059    
  35.122      37.111      35.121      29.802      22.821      16.151      11.275      8.6286      7.4919      6.7750    
  6.3468      6.2089      6.3464      6.7748      7.4922      8.6290      11.275      16.151      22.821      29.803    
  26.861      29.940      29.940      26.861      21.731      16.151      11.606      8.8359      7.5508      6.7848    
  6.2719      6.0280      6.0279      6.2717      6.7847      7.5507      8.8356      11.605      16.150      21.730    
  18.849      21.956      23.132      21.957      18.850      14.882      11.275      8.8359      7.5702      6.7887    
  6.2276      5.9114      5.8126      5.9116      6.2276      6.7884      7.5699      8.8359      11.276      14.882    
  12.840      15.175      16.618      16.618      15.175      12.840      10.436      8.6287      7.5508      6.7886    
  6.2129      5.8549      5.6916      5.6919      5.8554      6.2130      6.7885      7.5511      8.6296      10.437    
  9.4492      10.762      11.844      12.264      11.844      10.762      9.4482      8.3216      7.4919      6.7848    
  6.2276      5.8549      5.6530      5.5908      5.6533      5.8551      6.2274      6.7847      7.4922      8.3225    
  8.0201      8.6504      9.2360      9.6037      9.6034      9.2354      8.6500      8.0204      7.3836      6.7750    
  6.2719      5.9114      5.6916      5.5908      5.5907      5.6915      5.9113      6.2716      6.7744      7.3829    
  7.2294      7.6979      8.0930      8.3547      8.4472      8.3543      8.0930      7.6988      7.2307      6.7597    
  6.3468      6.0281      5.8125      5.6918      5.6533      5.6915      5.8124      6.0282      6.3468      6.7589    
  6.7459      7.0599      7.3548      7.5846      7.7103      7.7103      7.5846      7.3552      7.0605      6.7460    
  6.4528      6.2089      6.0279      5.9116      5.8554      5.8552      5.9113      6.0282      6.2098      6.4534    
  6.5890      6.7461      6.9097      7.0570      7.1609      7.1985      7.1610      7.0571      6.9094      6.7453    
  6.5880      6.4526      6.3465      6.2716      6.2276      6.2130      6.2274      6.2716      6.3468      6.4535    
  6.7459      6.7460      6.7662      6.8035      6.8449      6.8724      6.8726      6.8451      6.8032      6.7654    
  6.7455      6.7460      6.7596      6.7748      6.7846      6.7884      6.7885      6.7847      6.7744      6.7589    
  7.2294      7.0599      6.9098      6.8035      6.7451      6.7220      6.7171      6.7224      6.7453      6.8033    
  6.9097      7.0606      7.2307      7.3839      7.4922      7.5507      7.5700      7.5511      7.4922      7.3829    
  8.0202      7.6980      7.3548      7.0571      6.8449      6.7220      6.6697      6.6697      6.7221      6.8450    
  7.0573      7.3553      7.6985      8.0204      8.3222      8.6290      8.8356      8.8359      8.6296      8.3225    
  9.4492      8.6504      8.0930      7.5846      7.1609      6.8724      6.7172      6.6697      6.7168      6.8722    
  7.1610      7.5848      8.0927      8.6495      9.4482      10.436      11.275      11.605      11.275      10.437    
  12.840      10.762      9.2360      8.3547      7.7104      7.1986      6.8727      6.7224      6.7221      6.8722    
  7.1985      7.7105      8.3544      9.2350      10.761      12.840      14.882      16.151      16.150      14.882    
  18.849      15.175      11.844      9.6037      8.4473      7.7103      7.1610      6.8451      6.7453      6.8450    
  7.1610      7.7105      8.4474      9.6036      11.844      15.175      18.850      21.731      22.821      21.730    
  26.861      21.956      16.618      12.264      9.6034      8.3543      7.5846      7.0571      6.8032      6.8033    
  7.0573      7.5848      8.3544      9.6037      12.265      16.619      21.957      26.861      29.803      29.803    
  35.122      29.940      23.132      16.618      11.844      9.2354      8.0930      7.3553      6.9094      6.7653    
  6.9097      7.3553      8.0927      9.2351      11.844      16.619      23.132      29.939      35.121      37.059    
  41.365      37.111      29.940      21.957      15.175      10.762      8.6501      7.6989      7.0605      6.7453    
  6.7454      7.0607      7.6986      8.6495      10.761      15.175      21.957      29.939      37.110      41.364    
  24.593      23.354      20.079      15.881      12.043      9.4222      8.0648      7.2622      6.6706      6.3296    
  6.2215      6.3297      6.6707      7.2622      8.0647      9.4222      12.043      15.881      20.079      23.354    
  23.354      23.354      21.071      17.312      13.315      10.177      8.3427      7.4015      6.7145      6.2647    
  6.0530      6.0529      6.2646      6.7146      7.4019      8.3431      10.178      13.315      17.312      21.071    
  20.079      21.130      20.079      17.312      13.809      10.670      8.5832      7.4837      6.7408      6.2084    