unknown system                          
   1.00000000000000     
     2.330000    0.000000    0.000000
    -1.165000    2.017839    0.000000
     0.000000    0.000000    4.141000
   Fe
     2
Direct
  0.000000  0.000000  0.000000
  0.333333  0.666667  0.500000
 
   20   20   36
 0.16344463742E+03 0.15487373708E+03 0.13182532126E+03 0.10086559729E+03 0.69358367762E+02
 0.42906195793E+02 0.24391771953E+02 0.14077064810E+02 0.10024102389E+02 0.89175377677E+01
 0.85769100553E+01 0.89177095313E+01 0.10024250370E+02 0.14077040279E+02 0.24391645586E+02
 0.42906148622E+02 0.69358459471E+02 0.10086571498E+03 0.13182535109E+03 0.15487370564E+03
 0.15487961051E+03 0.15487364246E+03 0.13910074396E+03 0.11228178409E+03 0.81461935282E+02
 0.53095754380E+02 0.31335248911E+02 0.17678682748E+02 0.11223477051E+02 0.92216119762E+01
 0.85731158526E+01 0.85727055893E+01 0.92211959118E+01 0.11223890487E+02 0.17678811765E+02
 0.31333697458E+02 0.53094443465E+02 0.81465762918E+02 0.11229290706E+03 0.13911395766E+03
 0.13183410143E+03 0.13908002032E+03 0.13182534569E+03 0.11228187774E+03 0.85940293446E+02
 0.59073018263E+02 0.36585857302E+02 0.21062890860E+02 0.12681499996E+02 0.95469332706E+01
 0.85994117474E+01 0.82794746427E+01 0.85984601945E+01 0.95467989772E+01 0.12682318498E+02
 0.21062151490E+02 0.36582338026E+02 0.59070306019E+02 0.85943759855E+02 0.11229161009E+03
 0.10086181591E+03 0.11221714299E+03 0.11221846734E+03 0.10086577704E+03 0.81461901859E+02
 0.59072938763E+02 0.38541997231E+02 0.23113783717E+02 0.13896440024E+02 0.99064563997E+01
 0.86420738811E+01 0.80706628784E+01 0.80702834927E+01 0.86416892572E+01 0.99071394059E+01
 0.13897648910E+02 0.23113390243E+02 0.38538453704E+02 0.59067003251E+02 0.81455958981E+02
 0.69346118981E+02 0.81366026410E+02 0.85812800359E+02 0.81375777429E+02 0.69358375251E+02
 0.53095596103E+02 0.36585898775E+02 0.23113842219E+02 0.14369526165E+02 0.10155997010E+02
 0.86808092446E+01 0.79488615235E+01 0.76971875773E+01 0.79489580179E+01 0.86808972311E+01
 0.10156847083E+02 0.14372224366E+02 0.23117289311E+02 0.36585928167E+02 0.53088538597E+02
 0.42904903978E+02 0.53019906078E+02 0.58939809157E+02 0.58943086020E+02 0.53025757655E+02
 0.42906110044E+02 0.31335255537E+02 0.21063014557E+02 0.13896390522E+02 0.10155958919E+02
 0.86964210014E+01 0.78964609626E+01 0.74865855687E+01 0.74869617840E+01 0.78965114288E+01
 0.86951865849E+01 0.10155602439E+02 0.13900303334E+02 0.21070597970E+02 0.31340846971E+02
 0.24400395934E+02 0.31315532509E+02 0.36518182344E+02 0.38450178366E+02 0.36514638717E+02
 0.31308454839E+02 0.24391708626E+02 0.17678766830E+02 0.12681478431E+02 0.99063684742E+01
 0.86808687879E+01 0.78964854237E+01 0.74199686272E+01 0.72656982076E+01 0.74207105417E+01
 0.78955792505E+01 0.86773070893E+01 0.99029278712E+01 0.12682318498E+02 0.17685029099E+02
 0.14076639335E+02 0.17699318788E+02 0.21077220091E+02 0.23111083191E+02 0.23107209355E+02
 0.21068818568E+02 0.17693121722E+02 0.14077049534E+02 0.11223527359E+02 0.95468567991E+01
 0.86421114481E+01 0.79489226161E+01 0.74865123736E+01 0.72656776737E+01 0.72664116183E+01
 0.74878054839E+01 0.79485570734E+01 0.86381911333E+01 0.95399980859E+01 0.11217584675E+02
 0.10014668233E+02 0.11252609816E+02 0.12739692420E+02 0.13966793560E+02 0.14440549990E+02
 0.13964161870E+02 0.12739671528E+02 0.11258826969E+02 0.10024168304E+02 0.92216002579E+01
 0.85993727654E+01 0.80707260279E+01 0.76971325983E+01 0.74869133182E+01 0.74208004163E+01
 0.74878302131E+01 0.76999459299E+01 0.80741825612E+01 0.85992919836E+01 0.92152910438E+01
 0.89172983831E+01 0.92557935976E+01 0.96168104030E+01 0.10006745676E+02 0.10273568957E+02
 0.10274820697E+02 0.10010970025E+02 0.96236043891E+01 0.92616408190E+01 0.89175958978E+01
 0.85730445816E+01 0.82794976157E+01 0.80703148797E+01 0.79489124125E+01 0.78965841057E+01
 0.78956274663E+01 0.79484503753E+01 0.80741507986E+01 0.82870876267E+01 0.85790216056E+01
 0.85856604034E+01 0.86210383377E+01 0.86819801423E+01 0.87561865868E+01 0.88199411943E+01
 0.88467439397E+01 0.88234580161E+01 0.87596652756E+01 0.86812476376E+01 0.86148341377E+01
 0.85768906366E+01 0.85726695604E+01 0.85985409763E+01 0.86416743765E+01 0.86808687879E+01
 0.86952124840E+01 0.86772191028E+01 0.86381386856E+01 0.85994117474E+01 0.85790568477E+01
 0.89171731701E+01 0.86210077713E+01 0.83720591642E+01 0.82001535841E+01 0.81077580923E+01
 0.80737689393E+01 0.80746537833E+01 0.81080792076E+01 0.81962573915E+01 0.83645702987E+01
 0.86152348624E+01 0.89176424483E+01 0.92212356602E+01 0.95468204522E+01 0.99070455380E+01
 0.10156838966E+02 0.10155632413E+02 0.99029219289E+01 0.95400960324E+01 0.92153425106E+01
 0.10014568183E+02 0.92557551056E+01 0.86821003835E+01 0.82001703612E+01 0.78656109384E+01
 0.76822414000E+01 0.76258522583E+01 0.76814562234E+01 0.78628761364E+01 0.81966219892E+01
 0.86820314952E+01 0.92620519672E+01 0.10024216235E+02 0.11223928304E+02 0.12682262289E+02
 0.13897635166E+02 0.14372332449E+02 0.13900339093E+02 0.12682283854E+02 0.11217572183E+02
 0.14076679667E+02 0.11252637418E+02 0.96169031072E+01 0.87561990947E+01 0.81076536346E+01
 0.76822442279E+01 0.74817021129E+01 0.74810315600E+01 0.76810710805E+01 0.81080586623E+01
 0.87600142916E+01 0.96235783839E+01 0.11258441826E+02 0.14077065336E+02 0.17678839506E+02
 0.21062155056E+02 0.23113457076E+02 0.23117297643E+02 0.21070477839E+02 0.17684972759E+02
 0.24400522301E+02 0.17699379911E+02 0.12739647441E+02 0.10006707783E+02 0.88198651087E+01
 0.80737897474E+01 0.76259327963E+01 0.74810100227E+01 0.76250684007E+01 0.80745961329E+01
 0.88234580161E+01 0.10010251930E+02 0.12738839739E+02 0.17693027725E+02 0.24391708626E+02
 0.31333703946E+02 0.36582308633E+02 0.38538405110E+02 0.36585857302E+02 0.31340846832E+02
 0.42904972241E+02 0.31315518616E+02 0.21077096424E+02 0.13966746222E+02 0.10273616475E+02
 0.88467863010E+01 0.80747063519E+01 0.76814058192E+01 0.76810178483E+01 0.80746278934E+01
 0.88480036185E+01 0.10274008294E+02 0.13962938318E+02 0.21069641175E+02 0.31309990857E+02
 0.42906131137E+02 0.53094372552E+02 0.59070263246E+02 0.59067039979E+02 0.53088625960E+02
 0.69346072854E+02 0.53019794625E+02 0.36518123334E+02 0.23111116975E+02 0.14440661171E+02
 0.10274840026E+02 0.88234096682E+01 0.81080387775E+01 0.78628502366E+01 0.81081226899E+01
 0.88234857538E+01 0.10273980105E+02 0.14437837219E+02 0.23107610300E+02 0.36518183277E+02
 0.53027002299E+02 0.69358420833E+02 0.81465800927E+02 0.85943838006E+02 0.81456030414E+02
 0.10086173336E+03 0.81365943487E+02 0.58939863560E+02 0.38450295408E+02 0.23107253042E+02
 0.13964105841E+02 0.10010878662E+02 0.87596778842E+01 0.81963064288E+01 0.81966542494E+01
 0.87600143922E+01 0.10010198460E+02 0.13962929627E+02 0.23107620203E+02 0.38453729833E+02
 0.58945705308E+02 0.81371913497E+02 0.10086581217E+03 0.11229294351E+03 0.11229155289E+03
 0.13183407160E+03 0.11221721529E+03 0.85812882130E+02 0.58943159818E+02 0.36514578775E+02
 0.21068712682E+02 0.12739647441E+02 0.96236781541E+01 0.86813165258E+01 0.83645343766E+01
 0.86819801423E+01 0.96235594447E+01 0.12738860631E+02 0.21069658957E+02 0.36518182344E+02
 0.58945724702E+02 0.85809210217E+02 0.11220740808E+03 0.13182534569E+03 0.13911380902E+03
 0.15487962525E+03 0.13908019821E+03 0.11221848732E+03 0.81375695582E+02 0.53025682787E+02
 0.31308406902E+02 0.17693184801E+02 0.11258910723E+02 0.92616432680E+01 0.86147550113E+01
 0.86151863024E+01 0.92620929082E+01 0.11258497979E+02 0.17693029681E+02 0.31309956813E+02
 0.53027038885E+02 0.81371914573E+02 0.11220735575E+03 0.13906693032E+03 0.15487362575E+03
 0.15503654614E+03 0.14691398968E+03 0.12505625600E+03 0.95666751281E+02 0.65743349218E+02
 0.40654432150E+02 0.23178187627E+02 0.13541867887E+02 0.98188122050E+01 0.87761721586E+01
 0.84438391615E+01 0.87763374596E+01 0.98189543451E+01 0.13541843371E+02 0.23178064360E+02
 0.40654384751E+02 0.65743435904E+02 0.95666863999E+02 0.12505628510E+03 0.14691395998E+03
 0.14691946327E+03 0.14691389721E+03 0.13195610199E+03 0.10650173652E+03 0.77228871662E+02
 0.50298958467E+02 0.29704759592E+02 0.16878441095E+02 0.10902176505E+02 0.90661599617E+01
 0.84335702581E+01 0.84331720947E+01 0.90657555662E+01 0.10902595391E+02 0.16878646604E+02
 0.29703395052E+02 0.50297764425E+02 0.77232420397E+02 0.10651208159E+03 0.13196841528E+03
 0.12506444383E+03 0.13194041597E+03 0.12505627970E+03 0.10650182798E+03 0.81479120066E+02
 0.55962382370E+02 0.34653849859E+02 0.20031970458E+02 0.12229721936E+02 0.93593672483E+01
 0.84546891335E+01 0.81440023192E+01 0.84537607613E+01 0.93592189938E+01 0.12230522869E+02
 0.20031351687E+02 0.34650608005E+02 0.55959836811E+02 0.81482313036E+02 0.10651088206E+03
 0.95663245652E+02 0.10645121238E+03 0.10645244019E+03 0.95666926843E+02 0.77228839336E+02
 0.55962304799E+02 0.36499874976E+02 0.21948979885E+02 0.13343238200E+02 0.96772881527E+01
 0.84935792231E+01 0.79393857123E+01 0.79390194714E+01 0.84931900005E+01 0.96778893700E+01
 0.13344331394E+02 0.21948579940E+02 0.36496540765E+02 0.55956752339E+02 0.77223298764E+02
 0.65731966360E+02 0.77155775930E+02 0.81382647860E+02 0.77164849234E+02 0.65743356776E+02
 0.50298804014E+02 0.34653889948E+02 0.21949036878E+02 0.13778216096E+02 0.98986337876E+01
 0.85299810712E+01 0.78205458834E+01 0.75779680643E+01 0.78206594206E+01 0.85300666309E+01
 0.98993783018E+01 0.13780654523E+02 0.21952198287E+02 0.34653918821E+02 0.50292261139E+02
 0.40653256860E+02 0.50249487781E+02 0.55872035544E+02 0.55875095142E+02 0.50254940080E+02
 0.40654348413E+02 0.29704765744E+02 0.20032091035E+02 0.13343190342E+02 0.98985967891E+01
 0.85447928436E+01 0.77695456674E+01 0.73750881572E+01 0.73754710146E+01 0.77696546749E+01
 0.85436731346E+01 0.98982504106E+01 0.13346821850E+02 0.20039182398E+02 0.29710026229E+02
 0.23186223088E+02 0.29709555799E+02 0.34631423242E+02 0.36461440282E+02 0.34628154833E+02
 0.29702992159E+02 0.23178125902E+02 0.16878523227E+02 0.12229701273E+02 0.96772026010E+01
 0.85300387116E+01 0.77695693179E+01 0.73110561492E+01 0.71631282205E+01 0.73117804360E+01
 0.77687681042E+01 0.85267558151E+01 0.96740297026E+01 0.12230522869E+02 0.16884391211E+02
 0.13541436484E+02 0.16919918058E+02 0.20087062177E+02 0.21999560896E+02 0.21995964912E+02
 0.20079271239E+02 0.16914191622E+02 0.13541853278E+02 0.10902225529E+02 0.93592925176E+01
 0.84936154481E+01 0.78206051736E+01 0.73750171239E+01 0.71631083802E+01 0.71637764281E+01
 0.73761920186E+01 0.78202525334E+01 0.84899785408E+01 0.93529230618E+01 0.10896685218E+02
 0.98099839132E+01 0.10949156991E+02 0.12322599218E+02 0.13461003878E+02 0.13901533299E+02
 0.13458534893E+02 0.12322578808E+02 0.10954982115E+02 0.98188762045E+01 0.90661480630E+01
 0.84546510906E+01 0.79394474447E+01 0.75779148245E+01 0.73754240110E+01 0.73118678533E+01
 0.73762160483E+01 0.75804671759E+01 0.79426378183E+01 0.84545724655E+01 0.90602522801E+01
 0.87759402067E+01 0.91157011666E+01 0.94589694134E+01 0.98186025720E+01 0.10063484682E+02
 0.10064621105E+02 0.98224778321E+01 0.94652603949E+01 0.91211487212E+01 0.87762285341E+01
 0.84335010197E+01 0.81440252893E+01 0.79390501918E+01 0.78206148079E+01 0.77697252503E+01
 0.77688150291E+01 0.78201486305E+01 0.79426068063E+01 0.81511023912E+01 0.84390726336E+01
 0.84519978892E+01 0.84948695599E+01 0.85634003659E+01 0.86438524436E+01 0.87114832793E+01
 0.87394595112E+01 0.87147256491E+01 0.86470467604E+01 0.85626834573E+01 0.84890749845E+01
 0.84438204270E+01 0.84331373612E+01 0.84538393864E+01 0.84931749666E+01 0.85300387116E+01
 0.85436985468E+01 0.85266702554E+01 0.84899272818E+01 0.84546891335E+01 0.84391071386E+01
 0.87758182304E+01 0.84948395574E+01 0.82610910737E+01 0.81017474878E+01 0.80176755557E+01
 0.79875780451E+01 0.79884190231E+01 0.80180049958E+01 0.80981300736E+01 0.82541079277E+01
 0.84894625071E+01 0.87762718588E+01 0.90657941348E+01 0.93592395587E+01 0.96777978496E+01
 0.98993707521E+01 0.98982798594E+01 0.96740237339E+01 0.93530183573E+01 0.90603027475E+01
 0.98098865440E+01 0.91156632528E+01 0.85635174549E+01 0.81017640438E+01 0.77828220518E+01
 0.76086978009E+01 0.75553056433E+01 0.76080325581E+01 0.77803448048E+01 0.80984840018E+01
 0.85634503907E+01 0.91215459741E+01 0.98189209752E+01 0.10902632416E+02 0.12230468206E+02
 0.13344318233E+02 0.13780759978E+02 0.13346856547E+02 0.12230488870E+02 0.10896673219E+02
 0.13541475979E+02 0.10949183705E+02 0.94590596274E+01 0.86438650317E+01 0.80175739262E+01
 0.76087004322E+01 0.74164612140E+01 0.74158534906E+01 0.76076406501E+01 0.80179670160E+01
 0.86474050741E+01 0.94652550500E+01 0.10954590207E+02 0.13541868257E+02 0.16878673814E+02
 0.20031355051E+02 0.21948644970E+02 0.21952206324E+02 0.20039065185E+02 0.16884336289E+02
 0.23186346354E+02 0.16919977718E+02 0.12322555275E+02 0.98185658566E+01 0.87114092914E+01
 0.79875980505E+01 0.75553839084E+01 0.74158325034E+01 0.75545387099E+01 0.79883018975E+01
 0.87147256491E+01 0.98218437767E+01 0.12321767104E+02 0.16914021538E+02 0.23178125902E+02
 0.29703401051E+02 0.34650579132E+02 0.36496493432E+02 0.34653849859E+02 0.29710026075E+02
 0.40653323324E+02 0.29709542334E+02 0.20086941603E+02 0.13460957690E+02 0.10063531018E+02
 0.87395005610E+01 0.79884700743E+01 0.76079835138E+01 0.76075889745E+01 0.79883329434E+01
 0.87406019320E+01 0.10063909532E+02 0.13457426067E+02 0.20079973178E+02 0.29704342305E+02
 0.40654367478E+02 0.50297695188E+02 0.55959795279E+02 0.55956788377E+02 0.50292346355E+02
 0.65731921216E+02 0.50249379048E+02 0.34631365742E+02 0.21999593743E+02 0.13901641613E+02
 0.10064639844E+02 0.87146785657E+01 0.80179658342E+01 0.77803197110E+01 0.80180294839E+01
 0.87147525536E+01 0.10063881935E+02 0.13899075729E+02 0.21996371799E+02 0.34631424107E+02
 0.50256067971E+02 0.65743398318E+02 0.77232457683E+02 0.81482389341E+02 0.77223368376E+02
 0.95663165047E+02 0.77155695041E+02 0.55872088641E+02 0.36461554415E+02 0.21996007509E+02
 0.13458480282E+02 0.98223888932E+01 0.86470593576E+01 0.80981778098E+01 0.80985151820E+01
 0.86474050832E+01 0.98217915531E+01 0.13457417644E+02 0.21996381549E+02 0.36464785196E+02
 0.55877553484E+02 0.77161263000E+02 0.95666958956E+02 0.10651211703E+03 0.10651082604E+03
 0.12506441473E+03 0.10645128311E+03 0.81382727694E+02 0.55875167114E+02 0.34628096468E+02
 0.20079168070E+02 0.12322555275E+02 0.94653324263E+01 0.85627505214E+01 0.82540724386E+01
 0.85634003659E+01 0.94652368675E+01 0.12321787514E+02 0.20079990583E+02 0.34631423242E+02
 0.55877572360E+02 0.81379337044E+02 0.10644215713E+03 0.12505627970E+03 0.13196826999E+03
 0.14691947767E+03 0.13194058983E+03 0.10645245983E+03 0.77164769263E+02 0.50254867036E+02
 0.29702945519E+02 0.16914252927E+02 0.10955063601E+02 0.91211512414E+01 0.84889976406E+01
 0.84894151656E+01 0.91215864081E+01 0.10954644979E+02 0.16914023182E+02 0.29704309130E+02
 0.50256103661E+02 0.77161263919E+02 0.10644210604E+03 0.13192822516E+03 0.14691388191E+03
 0.13237920070E+03 0.12545047017E+03 0.10677390789E+03 0.81606763602E+02 0.55977662813E+02
 0.34610074211E+02 0.19967982625E+02 0.12159826492E+02 0.92882698827E+01 0.83896284192E+01
 0.80824485661E+01 0.83897764882E+01 0.92883966604E+01 0.12159802564E+02 0.19967868311E+02
 0.34610026678E+02 0.55977736204E+02 0.81606862934E+02 0.10677393487E+03 0.12545044504E+03
 0.12545487552E+03 0.12545038393E+03 0.11266822342E+03 0.90874360045E+02 0.65782571793E+02
 0.42764542347E+02 0.25357973708E+02 0.14786341355E+02 0.10078266209E+02 0.86392862147E+01
 0.80523586929E+01 0.80519965418E+01 0.86389169245E+01 0.10078691940E+02 0.14786731310E+02
 0.25357089169E+02 0.42763653524E+02 0.65785379541E+02 0.90882632365E+02 0.11267813239E+03
 0.10678051223E+03 0.11266665470E+03 0.10677392948E+03 0.90874445205E+02 0.69413799280E+02
 0.47570741949E+02 0.29483022165E+02 0.17316223744E+02 0.11065004052E+02 0.88639630098E+01
 0.80567150722E+01 0.77731789042E+01 0.80558574889E+01 0.88637819551E+01 0.11065748875E+02
 0.17315910970E+02 0.29480512700E+02 0.47568645584E+02 0.69416270154E+02 0.90881690891E+02
 0.81603990801E+02 0.90863051900E+02 0.90864023535E+02 0.81606927073E+02 0.65782542587E+02
 0.47570669943E+02 0.31027877246E+02 0.18869736147E+02 0.11909843932E+02 0.90816997382E+01
 0.80826194190E+01 0.75785302159E+01 0.75782018932E+01 0.80822247276E+01 0.90820903693E+01
 0.11910635817E+02 0.18869326967E+02 0.31025110026E+02 0.47566145764E+02 0.65778076927E+02
 0.55968585903E+02 0.65772445436E+02 0.69403083838E+02 0.65779711512E+02 0.55977670529E+02
 0.42764398922E+02 0.29483058301E+02 0.18869788791E+02 0.12243294020E+02 0.92326831889E+01
 0.81105924415E+01 0.74661990003E+01 0.72492721150E+01 0.74663527970E+01 0.81106710096E+01
 0.92331570946E+01 0.12245056415E+02 0.18872199101E+02 0.29483085649E+02 0.42759223044E+02
 0.34609203138E+02 0.42787676148E+02 0.47598483420E+02 0.47600961135E+02 0.42792061813E+02
 0.34609996273E+02 0.25357978524E+02 0.17316335315E+02 0.11909800778E+02 0.92326493374E+01
 0.81224465749E+01 0.74180269381E+01 0.70665520886E+01 0.70669451994E+01 0.74182780190E+01
 0.81216264291E+01 0.92323335546E+01 0.11912684411E+02 0.17322106464E+02 0.25362343189E+02
 0.19974445663E+02 0.25430443497E+02 0.29585368316E+02 0.31136619367E+02 0.29582827155E+02
 0.25425245590E+02 0.19967925504E+02 0.14786417845E+02 0.11064985965E+02 0.90816210354E+01
 0.81106446369E+01 0.74180482650E+01 0.70091923405E+01 0.68785663818E+01 0.70098618564E+01
 0.74175173585E+01 0.81080980602E+01 0.90791553560E+01 0.11065748875E+02 0.14791224670E+02
 0.12159387438E+02 0.14886066397E+02 0.17484763496E+02 0.19068373803E+02 0.19065516719E+02
 0.17478594504E+02 0.14881585653E+02 0.12159813788E+02 0.10078311549E+02 0.88638933306E+01
 0.80826518145E+01 0.74662531060E+01 0.70664872667E+01 0.68785485259E+01 0.68790443874E+01
 0.70673536135E+01 0.74659376710E+01 0.80797677198E+01 0.88588251273E+01 0.10073846334E+02
 0.92810694658E+01 0.10176265992E+02 0.11256496244E+02 0.12162021339E+02 0.12514723027E+02
 0.12159990998E+02 0.11256477239E+02 0.10181036002E+02 0.92883283954E+01 0.86392738448E+01
 0.80566797395E+01 0.75785878296E+01 0.72492238604E+01 0.70669023927E+01 0.70099421833E+01
 0.70673756287E+01 0.72510952215E+01 0.75810740269E+01 0.80566073318E+01 0.86344864443E+01
 0.83894193284E+01 0.87340251661E+01 0.90507373997E+01 0.93431699951E+01 0.95359757065E+01
 0.95368113750E+01 0.93461275946E+01 0.90556943264E+01 0.87384050296E+01 0.83896797586E+01
 0.80522952839E+01 0.77732017931E+01 0.75782306698E+01 0.74663110722E+01 0.74183425452E+01
 0.74175605578E+01 0.74658418405E+01 0.75810451898E+01 0.77789080178E+01 0.80567841819E+01
 0.80890259179E+01 0.81539184728E+01 0.82442649150E+01 0.83425426701E+01 0.84212532483E+01
 0.84526206282E+01 0.84237705683E+01 0.83449886936E+01 0.82435983889E+01 0.81492217675E+01
 0.80824317729E+01 0.80519654953E+01 0.80559298966E+01 0.80822093172E+01 0.81106446369E+01
 0.81216504061E+01 0.81080194922E+01 0.80797199140E+01 0.80567150722E+01 0.80568165444E+01
 0.83893066800E+01 0.81538901177E+01 0.79651365617E+01 0.78430314371E+01 0.77839375943E+01
 0.77657203486E+01 0.77664399682E+01 0.77842816214E+01 0.78401555547E+01 0.79595061163E+01
 0.81495708779E+01 0.83897151793E+01 0.86389521057E+01 0.88637999438E+01 0.90820056541E+01
 0.92331511384E+01 0.92323614498E+01 0.90791493437E+01 0.88589127951E+01 0.86345339953E+01
 0.92809798114E+01 0.87339889597E+01 0.82443729294E+01 0.78430473284E+01 0.75708789171E+01
 0.74247229416E+01 0.73804732059E+01 0.74243623814E+01 0.75690726003E+01 0.78404772938E+01
 0.82443111084E+01 0.87387621894E+01 0.92883655187E+01 0.10078726675E+02 0.11065698684E+02
 0.11910624319E+02 0.12245154250E+02 0.11912716066E+02 0.11065716772E+02 0.10073835729E+02
 0.12159424494E+02 0.10176290172E+02 0.90508204481E+01 0.83425554349E+01 0.77838440851E+01
 0.74247250281E+01 0.72575374988E+01 0.72570937197E+01 0.74239603836E+01 0.77842013627E+01
 0.83453633202E+01 0.90557391644E+01 0.10180634004E+02 0.12159826916E+02 0.14786756963E+02
 0.17315913773E+02 0.18869386793E+02 0.18872206283E+02 0.17321997695E+02 0.14791173833E+02
 0.19974559977E+02 0.14886121839E+02 0.11256455292E+02 0.93431366400E+01 0.84211852799E+01
 0.77657380867E+01 0.73805449662E+01 0.72570743139E+01 0.73797604864E+01 0.77661794162E+01
 0.84237705683E+01 0.93457092478E+01 0.11255727396E+02 0.14881231714E+02 0.19967925504E+02
 0.25357093797E+02 0.29480485352E+02 0.31025066300E+02 0.29483022165E+02 0.25362343001E+02
 0.34609264426E+02 0.25430431256E+02 0.17484651838E+02 0.12161978467E+02 0.95360186403E+01
 0.84526579383E+01 0.77664866851E+01 0.74243172404E+01 0.74239131561E+01 0.77662083950E+01
 0.84534577849E+01 0.95363587493E+01 0.12159181213E+02 0.17478989163E+02 0.25426118255E+02
 0.34610010028E+02 0.42763589136E+02 0.47568607595E+02 0.47566179781E+02 0.42759302082E+02
 0.55968543621E+02 0.42787575253E+02 0.29585315169E+02 0.19068403965E+02 0.12514823098E+02
 0.95368284258E+01 0.84237271199E+01 0.77842460829E+01 0.75690497967E+01 0.77842593334E+01
 0.84237950883E+01 0.95363328663E+01 0.12512931030E+02 0.19065931845E+02 0.29585368995E+02
 0.42792885353E+02 0.55977701639E+02 0.65785414721E+02 0.69416341120E+02 0.65778141313E+02
 0.81603915819E+02 0.65772370398E+02 0.47598532741E+02 0.31136725121E+02 0.19065556182E+02
 0.12159940470E+02 0.93460456096E+01 0.83450012196E+01 0.78401995459E+01 0.78405053937E+01
 0.83453630815E+01 0.93456606179E+01 0.12159173557E+02 0.19065941147E+02 0.31139404270E+02
 0.47602985378E+02 0.65776863729E+02 0.81606951424E+02 0.90882664942E+02 0.90881638308E+02
 0.10678048524E+03 0.90863118059E+02 0.69403158064E+02 0.47601027848E+02 0.29582773329E+02
 0.17478499162E+02 0.11256455292E+02 0.90557613404E+01 0.82436602099E+01 0.79594719325E+01
 0.82442649150E+01 0.90557231299E+01 0.11255746401E+02 0.17479005480E+02 0.29585368316E+02
 0.47603002770E+02 0.69400510888E+02 0.90855808512E+02 0.10677392948E+03 0.11267799679E+03
 0.12545488896E+03 0.11266681690E+03 0.90864042165E+02 0.65779636965E+02 0.42791994037E+02
 0.25425202687E+02 0.14881641867E+02 0.10181110954E+02 0.87384077440E+01 0.81491495943E+01
 0.81495270598E+01 0.87388011102E+01 0.10180684776E+02 0.14881232487E+02 0.25426087592E+02
 0.42792918472E+02 0.65776864220E+02 0.90855760982E+02 0.11265686396E+03 0.12545037223E+03
 0.10180016744E+03 0.96454698073E+02 0.82024393976E+02 0.62560980969E+02 0.42815282597E+02
 0.26593840709E+02 0.15849574171E+02 0.10472044456E+02 0.86132523971E+01 0.78520122969E+01
 0.75859927654E+01 0.78521371381E+01 0.86133588546E+01 0.10472022439E+02 0.15849473655E+02
 0.26593794740E+02 0.42815339165E+02 0.62561062455E+02 0.82024417705E+02 0.96454678670E+02
 0.96457699507E+02 0.96454621469E+02 0.86571505449E+02 0.69701003915E+02 0.50307906173E+02
 0.32685854076E+02 0.19684625393E+02 0.12169575422E+02 0.90753216358E+01 0.80354146235E+01
 0.75242362922E+01 0.75239317602E+01 0.80351023293E+01 0.90757344411E+01 0.12170151672E+02
 0.19684317334E+02 0.32685346869E+02 0.50309751902E+02 0.69706567598E+02 0.86578257976E+02
 0.82028914614E+02 0.86589862602E+02 0.82024412434E+02 0.69701079344E+02 0.53090103004E+02
 0.36305788924E+02 0.22674187439E+02 0.13864650488E+02 0.96442670045E+01 0.81987810191E+01
 0.74991394521E+01 0.72579475773E+01 0.74984003139E+01 0.81985701184E+01 0.96449126019E+01
 0.13864694212E+02 0.22672615523E+02 0.36304293583E+02 0.53091648539E+02 0.69705958886E+02
 0.62559160297E+02 0.69744310487E+02 0.69744950291E+02 0.62561125773E+02 0.50307881623E+02
 0.36305725479E+02 0.23802973276E+02 0.14926414235E+02 0.10147402089E+02 0.83210608127E+01
 0.75002312807E+01 0.70731999337E+01 0.70729295446E+01 0.74998491057E+01 0.83211974913E+01
 0.10147820049E+02 0.14926015347E+02 0.23800972647E+02 0.36302566190E+02 0.50304828906E+02
 0.42809215242E+02 0.50384566122E+02 0.53197867359E+02 0.50389466514E+02 0.42815290425E+02
 0.32685727619E+02 0.22674217632E+02 0.14926460195E+02 0.10349855405E+02 0.83964046619E+01
 0.75111783202E+01 0.69655974667E+01 0.67860737077E+01 0.69657892513E+01 0.75112461661E+01
 0.83965549490E+01 0.10350779908E+02 0.14927917504E+02 0.22674242537E+02 0.32682326031E+02
 0.26593349730E+02 0.32808516012E+02 0.36495677996E+02 0.36497387019E+02 0.32811500173E+02
 0.26593771701E+02 0.19684628249E+02 0.13864748199E+02 0.10147366026E+02 0.83963756306E+01
 0.75169047942E+01 0.69186215141E+01 0.66285275938E+01 0.66289129151E+01 0.69190185414E+01
 0.75164584456E+01 0.83961099384E+01 0.10149277197E+02 0.13868768773E+02 0.19687783182E+02
 0.15853970564E+02 0.19850170417E+02 0.22947892008E+02 0.24113801812E+02 0.22946284182E+02
 0.19846746221E+02 0.15849524080E+02 0.12169643179E+02 0.96442527773E+01 0.83209926444E+01
 0.75112222810E+01 0.69186393177E+01 0.65792800082E+01 0.64723716175E+01 0.65798557215E+01
 0.69184348925E+01 0.75096191520E+01 0.83194339718E+01 0.96449126019E+01 0.12173033871E+02
 0.10471618187E+02 0.12350822613E+02 0.14190993405E+02 0.15330528051E+02 0.15328632525E+02
 0.14186930051E+02 0.12347946458E+02 0.10472034598E+02 0.90753613726E+01 0.81987192085E+01
 0.75002579166E+01 0.69656436514E+01 0.66284722464E+01 0.64723567626E+01 0.64726372310E+01
 0.66289536737E+01 0.69653849994E+01 0.74983511997E+01 0.81953448198E+01 0.90723093514E+01
 0.86082168171E+01 0.92470233154E+01 0.99770720868E+01 0.10591344261E+02 0.10832299355E+02
 0.10589901426E+02 0.99770552829E+01 0.92503851586E+01 0.86133025997E+01 0.80354016906E+01
 0.74991082905E+01 0.70732511155E+01 0.67860330179E+01 0.66288764983E+01 0.65799251368E+01
 0.66289726043E+01 0.67870555932E+01 0.70748317025E+01 0.74990454426E+01 0.80320814915E+01
 0.78518412859E+01 0.81978554084E+01 0.85156182106E+01 0.87613472093E+01 0.89055554750E+01
 0.89060163131E+01 0.87631405177E+01 0.85188491395E+01 0.82008323561E+01 0.78520559766E+01
 0.75241817463E+01 0.72579701141E+01 0.70729552633E+01 0.69657520511E+01 0.69190738082E+01
 0.69184723558E+01 0.69653016145E+01 0.70748062393E+01 0.72618729800E+01 0.75272484502E+01
 0.75904896742E+01 0.76876302883E+01 0.78079602049E+01 0.79297214255E+01 0.80226113317E+01
 0.80582394110E+01 0.80241986567E+01 0.79312158986E+01 0.78073839787E+01 0.76843859619E+01
 0.75859788695E+01 0.75239062301E+01 0.74984631619E+01 0.74998333287E+01 0.75112222810E+01
 0.75164801197E+01 0.75095513060E+01 0.74983087868E+01 0.74991394521E+01 0.75272774660E+01
 0.78517429542E+01 0.76876045374E+01 0.75666816054E+01 0.74996744751E+01 0.74773373375E+01
 0.74766426675E+01 0.74771912370E+01 0.74776793044E+01 0.74977640546E+01 0.75628331474E+01
 0.76846756407E+01 0.78520824862E+01 0.80351323479E+01 0.81985842993E+01 0.83211233487E+01
 0.83965512985E+01 0.83961353192E+01 0.83194279976E+01 0.81954208113E+01 0.80321244430E+01
 0.86081389666E+01 0.81978219740E+01 0.78080543269E+01 0.74996892585E+01 0.72983260423E+01
 0.71944272562E+01 0.71640029817E+01 0.71944231985E+01 0.72973537114E+01 0.74980333973E+01
 0.78080005003E+01 0.82011282083E+01 0.86133312068E+01 0.90757656245E+01 0.96448692989E+01
 0.10147811037E+02 0.10350865898E+02 0.10149304246E+02 0.96448835262E+01 0.90723007980E+01
 0.10471651424E+02 0.92470436945E+01 0.85156903022E+01 0.79297342833E+01 0.74772561864E+01
 0.71944285744E+01 0.70654095368E+01 0.70651702420E+01 0.71940301666E+01 0.74775556152E+01
 0.79315885944E+01 0.85189463191E+01 0.92499921268E+01 0.10472045818E+02 0.12170174849E+02
 0.13864696221E+02 0.14926067163E+02 0.14927923360E+02 0.13868673071E+02 0.12172989292E+02
 0.15854071080E+02 0.12350871566E+02 0.99770357503E+01 0.87613188982E+01 0.80225525164E+01
 0.74766570726E+01 0.71640649121E+01 0.70651532449E+01 0.71633864601E+01 0.74767851544E+01
 0.80241986567E+01 0.87629814054E+01 0.99764101543E+01 0.12347405466E+02 0.15849524080E+02
 0.19684319979E+02 0.22672590618E+02 0.23800934378E+02 0.22674187439E+02 0.19687782970E+02
 0.26593403095E+02 0.19850160023E+02 0.14190895437E+02 0.10591306485E+02 0.89055932018E+01
 0.80582711043E+01 0.74772314265E+01 0.71943839923E+01 0.71939896422E+01 0.74768109388E+01
 0.80586973610E+01 0.89058745514E+01 0.10589463812E+02 0.14186963413E+02 0.19847045196E+02
 0.26593779097E+02 0.32685290005E+02 0.36304260935E+02 0.36302596987E+02 0.32682395624E+02
 0.42809177444E+02 0.32808427145E+02 0.22947845537E+02 0.15330554136E+02 0.10832386839E+02
 0.89060308158E+01 0.80241607610E+01 0.74776492182E+01 0.72973343194E+01 0.74776066802E+01
 0.80242195762E+01 0.89058513272E+01 0.10831336240E+02 0.15329036777E+02 0.22947892426E+02
 0.32811945184E+02 0.42815309195E+02 0.50309783781E+02 0.53091711249E+02 0.50304885336E+02
 0.62559094026E+02 0.50384500042E+02 0.36495721489E+02 0.24113894715E+02 0.15328667193E+02
 0.10589857156E+02 0.87630691014E+01 0.79312281947E+01 0.74978023154E+01 0.74980568746E+01
 0.79315880327E+01 0.87629383002E+01 0.10589457318E+02 0.15329045360E+02 0.24115827394E+02
 0.36498828951E+02 0.50387579571E+02 0.62561140988E+02 0.69706595838E+02 0.69705911696E+02
 0.82028890885E+02 0.69744369502E+02 0.53197932896E+02 0.36497445659E+02 0.22946237292E+02
 0.14186846710E+02 0.99770357503E+01 0.85189083832E+01 0.78074378053E+01 0.75628011498E+01
 0.78079602049E+01 0.85189334712E+01 0.99764269581E+01 0.14186978041E+02 0.22947892008E+02
 0.36498844099E+02 0.53196240345E+02 0.69739437020E+02 0.82024412434E+02 0.86578137399E+02
 0.96457711440E+02 0.86590006719E+02 0.69744967248E+02 0.50389400351E+02 0.32811440511E+02
 0.19846709042E+02 0.12347994940E+02 0.92504500927E+01 0.82008353404E+01 0.76843218283E+01
 0.76846372580E+01 0.82011646270E+01 0.92500366818E+01 0.12347404994E+02 0.19847018412E+02
 0.32811974389E+02 0.50387579488E+02 0.69739394963E+02 0.86583219686E+02 0.96454613998E+02
 0.70412610579E+02 0.66678916249E+02 0.56607361115E+02 0.43082299278E+02 0.29547666647E+02
 0.18774787782E+02 0.12064604272E+02 0.90209449192E+01 0.79063638513E+01 0.72734729315E+01
 0.70599770390E+01 0.72735721588E+01 0.79064477478E+01 0.90209252589E+01 0.12064520866E+02
 0.18774747474E+02 0.29547709022E+02 0.43082363405E+02 0.56607380805E+02 0.66678901797E+02
 0.66680563595E+02 0.66678851687E+02 0.59765933486E+02 0.47997224400E+02 0.34593791602E+02
 0.22691409162E+02 0.14313418577E+02 0.98596823904E+01 0.81688697536E+01 0.73734650597E+01