   2   2   0   0
  0.9734591E+01  0.2330000E-09  0.2330000E-09  0.4141000E-09  0.5000000E-15
  1.000000000000000E-004
  CAR 
 unknown system                          
     74.15326325     -5.34634096  301      7.42814557      1.00000000
     -5.346  0.0000E+00  0.0000E+00
     -5.081  0.0000E+00  0.0000E+00
     -4.816  0.0000E+00  0.0000E+00
     -4.551  0.0000E+00  0.0000E+00
     -4.286  0.0000E+00  0.0000E+00
     -4.021  0.0000E+00  0.0000E+00
     -3.756  0.0000E+00  0.0000E+00
     -3.491 -0.3710E-35 -0.9832E-36
     -3.226 -0.7194E-26 -0.1906E-26
     -2.961 -0.4055E-18 -0.1075E-18
     -2.696 -0.6333E-12 -0.1678E-12
     -2.431 -0.2870E-07 -0.7606E-08
     -2.166 -0.3464E-04 -0.9186E-05
     -1.901 -0.4205E-03 -0.1206E-03
     -1.636  0.8656E-02  0.2173E-02
     -1.371  0.5087E-01  0.1565E-01
     -1.106  0.9990E-01  0.4213E-01
     -0.841  0.5605E-01  0.5698E-01
     -0.576  0.1455E+00  0.9553E-01
     -0.311  0.1703E+00  0.1407E+00
     -0.046  0.1941E+00  0.1921E+00
      0.219  0.8236E-01  0.2139E+00
      0.484  0.2206E+00  0.2724E+00
      0.749  0.3040E+00  0.3529E+00
      1.014  0.2866E+00  0.4289E+00
      1.279  0.3150E+00  0.5123E+00
      1.544  0.2226E+00  0.5713E+00
      1.809  0.3988E+00  0.6770E+00
      2.074  0.8071E+00  0.8909E+00
      2.339  0.1271E+01  0.1228E+01
      2.604  0.1718E+01  0.1683E+01
      2.869  0.2310E+01  0.2295E+01
      3.134  0.2541E+01  0.2969E+01
      3.399  0.2652E+01  0.3671E+01
      3.664  0.2307E+01  0.4283E+01
      3.929  0.2597E+01  0.4971E+01
      4.194  0.3066E+01  0.5784E+01
      4.459  0.3111E+01  0.6608E+01
      4.724  0.2640E+01  0.7308E+01
      4.989  0.2192E+01  0.7888E+01
      5.254  0.2728E+01  0.8611E+01
      5.519  0.3930E+01  0.9653E+01
      5.784  0.3501E+01  0.1058E+02
      6.049  0.3707E+01  0.1156E+02
      6.314  0.3251E+01  0.1242E+02
      6.579  0.3591E+01  0.1338E+02
      6.844  0.3085E+01  0.1419E+02
      7.109  0.3128E+01  0.1502E+02
      7.374  0.3133E+01  0.1585E+02
      7.639  0.2546E+01  0.1653E+02
      7.904  0.3470E+01  0.1745E+02
      8.169  0.4677E+01  0.1869E+02
      8.434  0.4358E+01  0.1984E+02
      8.699  0.4043E+01  0.2091E+02
      8.964  0.1270E+01  0.2125E+02
      9.229  0.1460E+00  0.2129E+02
      9.494  0.5636E+00  0.2144E+02
      9.759  0.7252E+00  0.2163E+02
     10.024  0.7260E+00  0.2182E+02
     10.289  0.6557E+00  0.2200E+02
     10.554  0.5103E+00  0.2213E+02
     10.819  0.3296E+00  0.2222E+02
     11.084  0.3977E+00  0.2232E+02
     11.349  0.4025E+00  0.2243E+02
     11.614  0.5515E+00  0.2258E+02
     11.879  0.5987E+00  0.2273E+02
     12.144  0.4309E+00  0.2285E+02
     12.409  0.3834E+00  0.2295E+02
     12.674  0.5203E+00  0.2309E+02
     12.939  0.3609E+00  0.2318E+02
     13.204  0.2133E+00  0.2324E+02
     13.469  0.3355E+00  0.2333E+02
     13.734  0.3660E+00  0.2343E+02
     13.999  0.4152E+00  0.2354E+02
     14.264  0.2046E+00  0.2359E+02
     14.529  0.3280E+00  0.2368E+02
     14.794  0.5119E+00  0.2381E+02
     15.059  0.3474E+00  0.2391E+02
     15.324  0.2536E+00  0.2397E+02
     15.589  0.2491E+00  0.2404E+02
     15.854  0.2411E+00  0.2410E+02
     16.119  0.1324E+00  0.2414E+02
     16.384  0.1236E+00  0.2417E+02
     16.649  0.1754E+00  0.2422E+02
     16.914  0.3837E+00  0.2432E+02
     17.179  0.4169E+00  0.2443E+02
     17.444  0.4154E+00  0.2454E+02
     17.709  0.8749E+00  0.2477E+02
     17.974  0.9016E+00  0.2501E+02
     18.239  0.6606E+00  0.2518E+02
     18.504  0.7463E+00  0.2538E+02
     18.769  0.4141E+00  0.2549E+02
     19.034  0.6028E+00  0.2565E+02
     19.299  0.6847E+00  0.2583E+02
     19.564  0.8695E+00  0.2606E+02
     19.829  0.6305E+00  0.2623E+02
     20.094  0.7591E+00  0.2643E+02
     20.359  0.7761E+00  0.2664E+02
     20.624  0.3828E+00  0.2674E+02
     20.889  0.7770E+00  0.2695E+02
     21.154  0.6412E+00  0.2712E+02
     21.419  0.6668E+00  0.2729E+02
     21.684  0.6148E+00  0.2745E+02
     21.949  0.4328E+00  0.2757E+02
     22.214  0.7535E+00  0.2777E+02
     22.479  0.3775E+00  0.2787E+02
     22.744  0.5884E+00  0.2803E+02
     23.009  0.8245E+00  0.2824E+02
     23.274  0.4752E+00  0.2837E+02
     23.539  0.7646E+00  0.2857E+02
     23.804  0.6054E+00  0.2873E+02
     24.069  0.5573E+00  0.2888E+02
     24.334  0.6990E+00  0.2907E+02
     24.599  0.1356E+01  0.2942E+02
     24.864  0.8650E+00  0.2965E+02
     25.129  0.6725E+00  0.2983E+02
     25.394  0.9449E+00  0.3008E+02
     25.659  0.6696E+00  0.3026E+02
     25.924  0.6612E+00  0.3044E+02
     26.189  0.1037E+01  0.3071E+02
     26.454  0.9538E+00  0.3096E+02
     26.718  0.1121E+01  0.3126E+02
     26.983  0.7951E+00  0.3147E+02
     27.248  0.7563E+00  0.3167E+02
     27.513  0.1133E+01  0.3197E+02
     27.778  0.9995E+00  0.3224E+02
     28.043  0.1161E+01  0.3254E+02
     28.308  0.6361E+00  0.3271E+02
     28.573  0.5787E+00  0.3287E+02
     28.838  0.8934E+00  0.3310E+02
     29.103  0.1036E+01  0.3338E+02
     29.368  0.6189E+00  0.3354E+02
     29.633  0.9078E+00  0.3378E+02
     29.898  0.1112E+01  0.3408E+02
     30.163  0.6312E+00  0.3424E+02
     30.428  0.5083E+00  0.3438E+02
     30.693  0.7570E+00  0.3458E+02
     30.958  0.7319E+00  0.3477E+02
     31.223  0.5013E+00  0.3491E+02
     31.488  0.6091E+00  0.3507E+02
     31.753  0.8624E+00  0.3530E+02
     32.018  0.8487E+00  0.3552E+02
     32.283  0.6068E+00  0.3568E+02
     32.548  0.7481E+00  0.3588E+02
     32.813  0.6027E+00  0.3604E+02
     33.078  0.7078E+00  0.3623E+02
     33.343  0.8890E+00  0.3646E+02
     33.608  0.8302E+00  0.3668E+02
     33.873  0.7210E+00  0.3687E+02
     34.138  0.7354E+00  0.3707E+02
     34.403  0.7331E+00  0.3726E+02
     34.668  0.6144E+00  0.3743E+02
     34.933  0.8516E+00  0.3765E+02
     35.198  0.9742E+00  0.3791E+02
     35.463  0.1076E+01  0.3819E+02
     35.728  0.5814E+00  0.3835E+02
     35.993  0.1109E+01  0.3864E+02
     36.258  0.8792E+00  0.3888E+02
     36.523  0.1168E+01  0.3919E+02
     36.788  0.6045E+00  0.3935E+02
     37.053  0.8580E+00  0.3957E+02
     37.318  0.1676E+01  0.4002E+02
     37.583  0.8780E+00  0.4025E+02
     37.848  0.9335E+00  0.4050E+02
     38.113  0.1022E+01  0.4077E+02
     38.378  0.6965E+00  0.4095E+02
     38.643  0.8920E+00  0.4119E+02
     38.908  0.5837E+00  0.4134E+02
     39.173  0.6055E+00  0.4150E+02
     39.438  0.5873E+00  0.4166E+02
     39.703  0.9670E+00  0.4192E+02
     39.968  0.6535E+00  0.4209E+02
     40.233  0.5987E+00  0.4225E+02
     40.498  0.7786E+00  0.4245E+02
     40.763  0.1242E+01  0.4278E+02
     41.028  0.1089E+01  0.4307E+02
     41.293  0.6318E+00  0.4324E+02
     41.558  0.8294E+00  0.4346E+02
     41.823  0.8365E+00  0.4368E+02
     42.088  0.4999E+00  0.4381E+02
     42.353  0.1036E+01  0.4409E+02
     42.618  0.5547E+00  0.4423E+02
     42.883  0.1038E+01  0.4451E+02
     43.148  0.1126E+01  0.4481E+02
     43.413  0.1292E+01  0.4515E+02
     43.678  0.7561E+00  0.4535E+02
     43.943  0.1251E+01  0.4568E+02
     44.208  0.9581E+00  0.4594E+02
     44.473  0.6928E+00  0.4612E+02
     44.738  0.1107E+01  0.4641E+02
     45.003  0.1112E+01  0.4671E+02
     45.268  0.1229E+01  0.4703E+02
     45.533  0.1275E+01  0.4737E+02
     45.798  0.9667E+00  0.4763E+02
     46.063  0.1037E+01  0.4790E+02
     46.328  0.1037E+01  0.4818E+02
     46.593  0.9657E+00  0.4843E+02
     46.858  0.8725E+00  0.4866E+02
     47.123  0.8717E+00  0.4889E+02
     47.388  0.1074E+01  0.4918E+02
     47.653  0.7190E+00  0.4937E+02
     47.918  0.4596E+00  0.4949E+02
     48.183  0.7103E+00  0.4968E+02
     48.448  0.1109E+01  0.4997E+02
     48.713  0.1300E+01  0.5032E+02
     48.978  0.9041E+00  0.5056E+02
     49.243  0.9314E+00  0.5080E+02
     49.508  0.8489E+00  0.5103E+02
     49.773  0.1127E+01  0.5133E+02
     50.038  0.1016E+01  0.5160E+02
     50.303  0.8123E+00  0.5181E+02
     50.568  0.1209E+01  0.5213E+02
     50.833  0.1108E+01  0.5243E+02
     51.098  0.9634E+00  0.5268E+02
     51.363  0.4130E+00  0.5279E+02
     51.628  0.1068E+01  0.5307E+02
     51.893  0.1618E+01  0.5350E+02
     52.158  0.1633E+01  0.5394E+02
     52.423  0.9563E+00  0.5419E+02
     52.688  0.1167E+01  0.5450E+02
     52.953  0.1347E+01  0.5486E+02
     53.218  0.6785E+00  0.5504E+02
     53.483  0.9670E+00  0.5529E+02
     53.748  0.1452E+01  0.5568E+02
     54.013  0.1003E+01  0.5594E+02
     54.278  0.7467E+00  0.5614E+02
     54.543  0.8933E+00  0.5638E+02
     54.808  0.1127E+01  0.5668E+02
     55.073  0.1530E+01  0.5708E+02
     55.338  0.1228E+01  0.5741E+02
     55.603  0.1284E+01  0.5775E+02
     55.868  0.1126E+01  0.5805E+02
     56.133  0.1024E+01  0.5832E+02
     56.398  0.1496E+01  0.5871E+02
     56.663  0.1567E+01  0.5913E+02
     56.928  0.1366E+01  0.5949E+02
     57.193  0.1157E+01  0.5980E+02
     57.458  0.9104E+00  0.6004E+02
     57.723  0.8520E+00  0.6026E+02
     57.988  0.1304E+01  0.6061E+02
     58.253  0.2322E+01  0.6122E+02
     58.518  0.2259E+01  0.6182E+02
     58.783  0.1601E+01  0.6225E+02
     59.048  0.1088E+01  0.6254E+02
     59.313  0.1069E+01  0.6282E+02
     59.578  0.1727E+01  0.6328E+02
     59.843  0.1710E+01  0.6373E+02
     60.108  0.2073E+01  0.6428E+02
     60.373  0.1830E+01  0.6476E+02
     60.638  0.1920E+01  0.6527E+02
     60.903  0.2145E+01  0.6584E+02
     61.168  0.2143E+01  0.6641E+02
     61.433  0.1743E+01  0.6687E+02
     61.698  0.1700E+01  0.6732E+02
     61.963  0.1774E+01  0.6779E+02
     62.228  0.1200E+01  0.6811E+02
     62.493  0.1477E+01  0.6850E+02
     62.758  0.1217E+01  0.6882E+02
     63.023  0.1598E+01  0.6925E+02
     63.288  0.2501E+01  0.6991E+02
     63.553  0.1788E+01  0.7038E+02
     63.818  0.1340E+01  0.7074E+02
     64.083  0.1416E+01  0.7111E+02
     64.348  0.1722E+01  0.7157E+02
     64.613  0.1839E+01  0.7206E+02
     64.878  0.1451E+01  0.7244E+02
     65.143  0.1299E+01  0.7279E+02
     65.408  0.1095E+01  0.7308E+02
     65.673  0.1426E+01  0.7345E+02
     65.938  0.1292E+01  0.7380E+02
     66.203  0.2680E+01  0.7451E+02
     66.468  0.2187E+01  0.7509E+02
     66.733  0.2009E+01  0.7562E+02
     66.998  0.1576E+01  0.7604E+02
     67.263  0.1545E+01  0.7645E+02
     67.528  0.1647E+01  0.7688E+02
     67.793  0.1757E+01  0.7735E+02
     68.058  0.1325E+01  0.7770E+02
     68.323  0.1484E+01  0.7809E+02
     68.588  0.1659E+01  0.7853E+02
     68.853  0.1402E+01  0.7890E+02
     69.118  0.1462E+01  0.7929E+02
     69.383  0.1002E+01  0.7956E+02
     69.648  0.9587E+00  0.7981E+02
     69.913  0.3877E+00  0.7991E+02
     70.178  0.2258E+00  0.7997E+02
     70.443  0.4327E-01  0.7999E+02
     70.708  0.5592E-01  0.8000E+02
     70.973  0.2154E-03  0.8000E+02
     71.238 -0.3041E-03  0.8000E+02
     71.503 -0.3100E-06  0.8000E+02
     71.768 -0.7334E-11  0.8000E+02
     72.033  0.0000E+00  0.8000E+02
     72.298  0.0000E+00  0.8000E+02
     72.563  0.0000E+00  0.8000E+02
     72.828  0.0000E+00  0.8000E+02
     73.093  0.0000E+00  0.8000E+02
     73.358  0.0000E+00  0.8000E+02
     73.623  0.0000E+00  0.8000E+02
     73.888  0.0000E+00  0.8000E+02
     74.153  0.0000E+00  0.8000E+02
