<?xml version="1.0" encoding="ISO-8859-1"?>
<modeling>
 <generator>
  <i name="program" type="string">vasp </i>
  <i name="version" type="string">6.2.0  </i>
  <i name="subversion" type="string">18Jan21 (build Mar 17 2021 09:06:54) complex                          serial </i>
  <i name="platform" type="string">LinuxIFC </i>
  <i name="date" type="string">2021 09 09 </i>
  <i name="time" type="string">12:04:32 </i>
 </generator>
 <incar>
  <i type="string" name="PREC">normal</i>
  <i type="int" name="ICHARG">     1</i>
  <i type="int" name="IBRION">     1</i>
  <i name="EDIFF">      0.00000100</i>
  <i type="int" name="NSW">     0</i>
  <i type="int" name="ISIF">     2</i>
  <i name="ENCUT">    280.00000000</i>
  <i type="int" name="NBANDS">    40</i>
  <i type="int" name="ISMEAR">     1</i>
  <i name="SIGMA">      0.20000000</i>
  <i type="logical" name="LCHARG"> T  </i>
  <i type="int" name="KPAR">     1</i>
  <i type="int" name="NCORE">     1</i>
  <i type="string" name="GGA">PE</i>
 </incar>
 <primitive_cell>
  <structure name="primitive_cell" >
   <crystal>
    <varray name="basis" >
     <v>       2.33000000       0.00000000       0.00000000 </v>
     <v>      -1.16500000       2.01783919       0.00000000 </v>
     <v>       0.00000000       0.00000000       4.14100000 </v>
    </varray>
    <i name="volume">     19.46918197 </i>
    <varray name="rec_basis" >
     <v>       0.42918455       0.24778982       0.00000000 </v>
     <v>       0.00000000       0.49557963       0.00000000 </v>
     <v>       0.00000000       0.00000000       0.24148756 </v>
    </varray>
   </crystal>
   <varray name="positions" >
    <v>       0.00000000       0.00000000       0.00000000 </v>
    <v>       0.33333333       0.66666667       0.50000000 </v>
   </varray>
  </structure>
  <varray name="primitive_index" >
   <v type="int" >        1 </v>
   <v type="int" >        2 </v>
  </varray>
 </primitive_cell>
 <kpoints>
  <generation param="Monkhorst-Pack">
   <v type="int" name="divisions">      11       11       11 </v>
   <v name="usershift">      0.00000000       0.00000000       0.00000000 </v>
   <v name="genvec1">      0.09090909      -0.00000000       0.00000000 </v>
   <v name="genvec2">      0.00000000       0.09090909       0.00000000 </v>
   <v name="genvec3">      0.00000000       0.00000000       0.09090909 </v>
   <v name="shift">      0.00000000       0.00000000       0.00000000 </v>
  </generation>
  <varray name="kpointlist" >
   <v>       0.00000000       0.00000000       0.00000000 </v>
   <v>       0.09090909      -0.00000000       0.00000000 </v>
   <v>       0.18181818      -0.00000000       0.00000000 </v>
   <v>       0.27272727       0.00000000       0.00000000 </v>
   <v>       0.36363636       0.00000000       0.00000000 </v>
   <v>       0.45454545      -0.00000000       0.00000000 </v>
   <v>       0.09090909       0.09090909       0.00000000 </v>
   <v>       0.18181818       0.09090909       0.00000000 </v>
   <v>       0.27272727       0.09090909       0.00000000 </v>
   <v>       0.36363636       0.09090909       0.00000000 </v>
   <v>       0.45454545       0.09090909       0.00000000 </v>
   <v>       0.18181818       0.18181818       0.00000000 </v>
   <v>       0.27272727       0.18181818       0.00000000 </v>
   <v>       0.36363636       0.18181818       0.00000000 </v>
   <v>       0.27272727       0.27272727       0.00000000 </v>
   <v>       0.36363636       0.27272727       0.00000000 </v>
   <v>       0.00000000       0.00000000       0.09090909 </v>
   <v>       0.09090909      -0.00000000       0.09090909 </v>
   <v>       0.18181818      -0.00000000       0.09090909 </v>
   <v>       0.27272727       0.00000000       0.09090909 </v>
   <v>       0.36363636       0.00000000       0.09090909 </v>
   <v>       0.45454545      -0.00000000       0.09090909 </v>
   <v>       0.09090909       0.09090909       0.09090909 </v>
   <v>       0.18181818       0.09090909       0.09090909 </v>
   <v>       0.27272727       0.09090909       0.09090909 </v>
   <v>       0.36363636       0.09090909       0.09090909 </v>
   <v>       0.45454545       0.09090909       0.09090909 </v>
   <v>       0.18181818       0.18181818       0.09090909 </v>
   <v>       0.27272727       0.18181818       0.09090909 </v>
   <v>       0.36363636       0.18181818       0.09090909 </v>
   <v>       0.27272727       0.27272727       0.09090909 </v>
   <v>       0.36363636       0.27272727       0.09090909 </v>
   <v>       0.00000000       0.00000000       0.18181818 </v>
   <v>       0.09090909      -0.00000000       0.18181818 </v>
   <v>       0.18181818      -0.00000000       0.18181818 </v>
   <v>       0.27272727       0.00000000       0.18181818 </v>
   <v>       0.36363636       0.00000000       0.18181818 </v>
   <v>       0.45454545      -0.00000000       0.18181818 </v>
   <v>       0.09090909       0.09090909       0.18181818 </v>
   <v>       0.18181818       0.09090909       0.18181818 </v>
   <v>       0.27272727       0.09090909       0.18181818 </v>
   <v>       0.36363636       0.09090909       0.18181818 </v>
   <v>       0.45454545       0.09090909       0.18181818 </v>
   <v>       0.18181818       0.18181818       0.18181818 </v>
   <v>       0.27272727       0.18181818       0.18181818 </v>
   <v>       0.36363636       0.18181818       0.18181818 </v>
   <v>       0.27272727       0.27272727       0.18181818 </v>
   <v>       0.36363636       0.27272727       0.18181818 </v>
   <v>       0.00000000       0.00000000       0.27272727 </v>
   <v>       0.09090909      -0.00000000       0.27272727 </v>
   <v>       0.18181818      -0.00000000       0.27272727 </v>
   <v>       0.27272727       0.00000000       0.27272727 </v>
   <v>       0.36363636       0.00000000       0.27272727 </v>
   <v>       0.45454545      -0.00000000       0.27272727 </v>
   <v>       0.09090909       0.09090909       0.27272727 </v>
   <v>       0.18181818       0.09090909       0.27272727 </v>
   <v>       0.27272727       0.09090909       0.27272727 </v>
   <v>       0.36363636       0.09090909       0.27272727 </v>
   <v>       0.45454545       0.09090909       0.27272727 </v>
   <v>       0.18181818       0.18181818       0.27272727 </v>
   <v>       0.27272727       0.18181818       0.27272727 </v>
   <v>       0.36363636       0.18181818       0.27272727 </v>
   <v>       0.27272727       0.27272727       0.27272727 </v>
   <v>       0.36363636       0.27272727       0.27272727 </v>
   <v>       0.00000000       0.00000000       0.36363636 </v>
   <v>       0.09090909      -0.00000000       0.36363636 </v>
   <v>       0.18181818      -0.00000000       0.36363636 </v>
   <v>       0.27272727       0.00000000       0.36363636 </v>
   <v>       0.36363636       0.00000000       0.36363636 </v>
   <v>       0.45454545      -0.00000000       0.36363636 </v>
   <v>       0.09090909       0.09090909       0.36363636 </v>
   <v>       0.18181818       0.09090909       0.36363636 </v>
   <v>       0.27272727       0.09090909       0.36363636 </v>
   <v>       0.36363636       0.09090909       0.36363636 </v>
   <v>       0.45454545       0.09090909       0.36363636 </v>
   <v>       0.18181818       0.18181818       0.36363636 </v>
   <v>       0.27272727       0.18181818       0.36363636 </v>
   <v>       0.36363636       0.18181818       0.36363636 </v>
   <v>       0.27272727       0.27272727       0.36363636 </v>
   <v>       0.36363636       0.27272727       0.36363636 </v>
   <v>       0.00000000       0.00000000       0.45454545 </v>
   <v>       0.09090909      -0.00000000       0.45454545 </v>
   <v>       0.18181818      -0.00000000       0.45454545 </v>
   <v>       0.27272727       0.00000000       0.45454545 </v>
   <v>       0.36363636       0.00000000       0.45454545 </v>
   <v>       0.45454545      -0.00000000       0.45454545 </v>
   <v>       0.09090909       0.09090909       0.45454545 </v>
   <v>       0.18181818       0.09090909       0.45454545 </v>
   <v>       0.27272727       0.09090909       0.45454545 </v>
   <v>       0.36363636       0.09090909       0.45454545 </v>
   <v>       0.45454545       0.09090909       0.45454545 </v>
   <v>       0.18181818       0.18181818       0.45454545 </v>
   <v>       0.27272727       0.18181818       0.45454545 </v>
   <v>       0.36363636       0.18181818       0.45454545 </v>
   <v>       0.27272727       0.27272727       0.45454545 </v>
   <v>       0.36363636       0.27272727       0.45454545 </v>
  </varray>
  <varray name="weights" >
   <v>       0.00075131 </v>
   <v>       0.00450789 </v>
   <v>       0.00450789 </v>
   <v>       0.00450789 </v>
   <v>       0.00450789 </v>
   <v>       0.00450789 </v>
   <v>       0.00450789 </v>
   <v>       0.00901578 </v>
   <v>       0.00901578 </v>
   <v>       0.00901578 </v>
   <v>       0.00450789 </v>
   <v>       0.00450789 </v>
   <v>       0.00901578 </v>
   <v>       0.00901578 </v>
   <v>       0.00450789 </v>
   <v>       0.00450789 </v>
   <v>       0.00150263 </v>
   <v>       0.00901578 </v>
   <v>       0.00901578 </v>
   <v>       0.00901578 </v>
   <v>       0.00901578 </v>
   <v>       0.00901578 </v>
   <v>       0.00901578 </v>
   <v>       0.01803156 </v>
   <v>       0.01803156 </v>
   <v>       0.01803156 </v>
   <v>       0.00901578 </v>
   <v>       0.00901578 </v>
   <v>       0.01803156 </v>
   <v>       0.01803156 </v>
   <v>       0.00901578 </v>
   <v>       0.00901578 </v>
   <v>       0.00150263 </v>
   <v>       0.00901578 </v>
   <v>       0.00901578 </v>
   <v>       0.00901578 </v>
   <v>       0.00901578 </v>
   <v>       0.00901578 </v>
   <v>       0.00901578 </v>
   <v>       0.01803156 </v>
   <v>       0.01803156 </v>
   <v>       0.01803156 </v>
   <v>       0.00901578 </v>
   <v>       0.00901578 </v>
   <v>       0.01803156 </v>
   <v>       0.01803156 </v>
   <v>       0.00901578 </v>
   <v>       0.00901578 </v>
   <v>       0.00150263 </v>
   <v>       0.00901578 </v>
   <v>       0.00901578 </v>
   <v>       0.00901578 </v>
   <v>       0.00901578 </v>
   <v>       0.00901578 </v>
   <v>       0.00901578 </v>
   <v>       0.01803156 </v>
   <v>       0.01803156 </v>
   <v>       0.01803156 </v>
   <v>       0.00901578 </v>
   <v>       0.00901578 </v>
   <v>       0.01803156 </v>
   <v>       0.01803156 </v>
   <v>       0.00901578 </v>
   <v>       0.00901578 </v>
   <v>       0.00150263 </v>
   <v>       0.00901578 </v>
   <v>       0.00901578 </v>
   <v>       0.00901578 </v>
   <v>       0.00901578 </v>
   <v>       0.00901578 </v>
   <v>       0.00901578 </v>
   <v>       0.01803156 </v>
   <v>       0.01803156 </v>
   <v>       0.01803156 </v>
   <v>       0.00901578 </v>
   <v>       0.00901578 </v>
   <v>       0.01803156 </v>
   <v>       0.01803156 </v>
   <v>       0.00901578 </v>
   <v>       0.00901578 </v>
   <v>       0.00150263 </v>
   <v>       0.00901578 </v>
   <v>       0.00901578 </v>
   <v>       0.00901578 </v>
   <v>       0.00901578 </v>
   <v>       0.00901578 </v>
   <v>       0.00901578 </v>
   <v>       0.01803156 </v>
   <v>       0.01803156 </v>
   <v>       0.01803156 </v>
   <v>       0.00901578 </v>
   <v>       0.00901578 </v>
   <v>       0.01803156 </v>
   <v>       0.01803156 </v>
   <v>       0.00901578 </v>
   <v>       0.00901578 </v>
  </varray>
 </kpoints>
 <parameters>
  <separator name="general" >
   <i type="string" name="SYSTEM">unknown system</i>
   <i type="logical" name="LCOMPAT"> F  </i>
  </separator>
  <separator name="electronic" >
   <i type="string" name="PREC">normal</i>
   <i name="ENMAX">    280.00000000</i>
   <i name="ENAUG">    511.36800000</i>
   <i name="EDIFF">      0.00000100</i>
   <i type="int" name="IALGO">    38</i>
   <i type="int" name="IWAVPR">     0</i>
   <i type="int" name="NBANDS">    40</i>
   <i type="int" name="NBANDSLOW">    -1</i>
   <i type="int" name="NBANDSHIGH">    -1</i>
   <i name="NELECT">     16.00000000</i>
   <i type="int" name="TURBO">     0</i>
   <i type="int" name="IRESTART">     0</i>
   <i type="int" name="NREBOOT">     0</i>
   <i type="int" name="NMIN">     0</i>
   <i name="EREF">      0.00000000</i>
   <separator name="electronic smearing" >
    <i type="int" name="ISMEAR">     1</i>
    <i name="SIGMA">      0.20000000</i>
    <i name="KSPACING">      0.50000000</i>
    <i type="logical" name="KGAMMA"> T  </i>
    <i type="logical" name="KBLOWUP"> T  </i>
   </separator>
   <separator name="electronic projectors" >
    <i type="logical" name="LREAL"> F  </i>
    <v name="ROPT">      0.00000000</v>
    <i type="int" name="LMAXPAW">  -100</i>
    <i type="int" name="LMAXMIX">     2</i>
    <i type="logical" name="NLSPLINE"> F  </i>
   </separator>
   <separator name="electronic startup" >
    <i type="int" name="ISTART">     0</i>
    <i type="int" name="ICHARG">     1</i>
    <i type="int" name="INIWAV">     1</i>
   </separator>
   <separator name="electronic spin" >
    <i type="int" name="ISPIN">     1</i>
    <i type="logical" name="LNONCOLLINEAR"> F  </i>
    <v name="MAGMOM">      1.00000000      1.00000000</v>
    <i name="NUPDOWN">     -1.00000000</i>
    <i type="logical" name="LSORBIT"> F  </i>
    <v name="SAXIS">      0.00000000      0.00000000      1.00000000</v>
    <i type="logical" name="LSPIRAL"> F  </i>
    <v name="QSPIRAL">      0.00000000      0.00000000      0.00000000</v>
    <i type="logical" name="LZEROZ"> F  </i>
   </separator>
   <separator name="electronic exchange-correlation" >
    <i type="logical" name="LASPH"> F  </i>
    <i type="logical" name="LMETAGGA"> F  </i>
   </separator>
   <separator name="electronic convergence" >
    <i type="int" name="NELM">    60</i>
    <i type="int" name="NELMDL">    -5</i>
    <i type="int" name="NELMIN">     2</i>
    <i name="ENINI">    280.00000000</i>
    <separator name="electronic convergence detail" >
     <i type="logical" name="LDIAG"> T  </i>
     <i type="logical" name="LSUBROT"> F  </i>
     <i name="WEIMIN">      0.00000000</i>
     <i name="EBREAK">      0.00000001</i>
     <i name="DEPER">      0.30000000</i>
     <i type="int" name="NRMM">     4</i>
     <i name="TIME">      0.40000000</i>
    </separator>
   </separator>
   <separator name="electronic mixer" >
    <i name="AMIX">      0.40000000</i>
    <i name="BMIX">      1.00000000</i>
    <i name="AMIN">      0.10000000</i>
    <i name="AMIX_MAG">      1.60000000</i>
    <i name="BMIX_MAG">      1.00000000</i>
    <separator name="electronic mixer details" >
     <i type="int" name="IMIX">     4</i>
     <i type="logical" name="MIXFIRST"> F  </i>
     <i type="int" name="MAXMIX">   -45</i>
     <i name="WC">    100.00000000</i>
     <i type="int" name="INIMIX">     1</i>
     <i type="int" name="MIXPRE">     1</i>
     <i type="int" name="MREMOVE">     5</i>
    </separator>
   </separator>
   <separator name="electronic dipolcorrection" >
    <i type="logical" name="LDIPOL"> F  </i>
    <i type="logical" name="LMONO"> F  </i>
    <i type="int" name="IDIPOL">     0</i>
    <i name="EPSILON">      1.00000000</i>
    <v name="DIPOL">   -100.00000000   -100.00000000   -100.00000000</v>
    <i name="EFIELD">      0.00000000</i>
   </separator>
  </separator>
  <separator name="grids" >
   <i type="int" name="NGX">    10</i>
   <i type="int" name="NGY">    10</i>
   <i type="int" name="NGZ">    18</i>
   <i type="int" name="NGXF">    20</i>
   <i type="int" name="NGYF">    20</i>
   <i type="int" name="NGZF">    36</i>
   <i type="logical" name="ADDGRID"> F  </i>
  </separator>
  <separator name="ionic" >
   <i type="int" name="NSW">     0</i>
   <i type="int" name="IBRION">    -1</i>
   <i type="int" name="MDALGO">     0</i>
   <i type="int" name="ISIF">     2</i>
   <i name="PSTRESS">      0.00000000</i>
   <i name="EDIFFG">      0.00001000</i>
   <i type="int" name="NFREE">     0</i>
   <i name="POTIM">      0.50000000</i>
   <i name="SMASS">     -3.00000000</i>
   <i name="SCALEE">      1.00000000</i>
  </separator>
  <separator name="ionic md" >
   <i name="TEBEG">      0.00010000</i>
   <i name="TEEND">      0.00010000</i>
   <i type="int" name="NBLOCK">     1</i>
   <i type="int" name="KBLOCK">     1</i>
   <i type="int" name="NPACO">   256</i>
   <i name="APACO">     16.00000000</i>
  </separator>
  <separator name="symmetry" >
   <i type="int" name="ISYM">     2</i>
   <i name="SYMPREC">      0.00001000</i>
  </separator>
  <separator name="dos" >
   <i type="int" name="LORBIT">     0</i>
   <v name="RWIGS">     -1.00000000</v>
   <i type="int" name="NEDOS">   301</i>
   <i name="EMIN">     10.00000000</i>
   <i name="EMAX">    -10.00000000</i>
   <i name="EFERMI">      0.00000000</i>
  </separator>
  <separator name="writing" >
   <i type="int" name="NWRITE">     2</i>
   <i type="logical" name="LWAVE"> T  </i>
   <i type="logical" name="LDOWNSAMPLE"> F  </i>
   <i type="logical" name="LCHARG"> T  </i>
   <i type="logical" name="LPARD"> F  </i>
   <i type="logical" name="LVTOT"> F  </i>
   <i type="logical" name="LVHAR"> F  </i>
   <i type="logical" name="LELF"> F  </i>
   <i type="logical" name="LOPTICS"> F  </i>
   <v name="STM">      0.00000000      0.00000000      0.00000000      0.00000000      0.00000000      0.00000000      0.00000000</v>
  </separator>
  <separator name="performance" >
   <i type="int" name="NPAR">     1</i>
   <i type="int" name="NSIM">     4</i>
   <i type="int" name="NBLK">    -1</i>
   <i type="logical" name="LPLANE"> T  </i>
   <i type="logical" name="LSCALAPACK"> F  </i>
   <i type="logical" name="LSCAAWARE"> F  </i>
   <i type="logical" name="LSCALU"> F  </i>
   <i type="logical" name="LASYNC"> F  </i>
   <i type="logical" name="LORBITALREAL"> F  </i>
  </separator>
  <separator name="miscellaneous" >
   <i type="int" name="IDIOT">     3</i>
   <i type="int" name="PHON_NSTRUCT">    -1</i>
   <i type="logical" name="LMUSIC"> F  </i>
   <v name="POMASS">     55.84700000</v>
   <v name="DARWINR">      0.00000000</v>
   <v name="DARWINV">      1.00000000</v>
   <i type="logical" name="LCORR"> T  </i>
  </separator>
  <i type="logical" name="GGA_COMPAT"> T  </i>
  <i type="logical" name="LBERRY"> F  </i>
  <i type="int" name="ICORELEVEL">     0</i>
  <i type="logical" name="LDAU"> F  </i>
  <i type="int" name="I_CONSTRAINED_M">     0</i>
  <separator name="electronic exchange-correlation" >
   <i type="string" name="GGA">PE</i>
   <i type="int" name="VOSKOWN">     0</i>
   <i type="logical" name="LHFCALC"> F  </i>
   <i type="string" name="PRECFOCK"></i>
   <i type="logical" name="LSYMGRAD"> F  </i>
   <i type="logical" name="LHFONE"> F  </i>
   <i type="logical" name="LRHFCALC"> F  </i>
   <i type="logical" name="LTHOMAS"> F  </i>
   <i type="logical" name="LMODELHF"> F  </i>
   <i type="logical" name="LFOCKACE"> F  </i>
   <i name="ENCUT4O">     -1.00000000</i>
   <i type="int" name="EXXOEP">     0</i>
   <i type="int" name="FOURORBIT">     0</i>
   <i name="AEXX">      0.00000000</i>
   <i name="HFALPHA">      0.00000000</i>
   <i name="MCALPHA">      0.00000000</i>
   <i name="ALDAX">      1.00000000</i>
   <i name="AGGAX">      1.00000000</i>
   <i name="ALDAC">      1.00000000</i>
   <i name="AGGAC">      1.00000000</i>
   <i type="int" name="NKREDX">     1</i>
   <i type="int" name="NKREDY">     1</i>
   <i type="int" name="NKREDZ">     1</i>
   <i type="logical" name="SHIFTRED"> F  </i>
   <i type="logical" name="ODDONLY"> F  </i>
   <i type="logical" name="EVENONLY"> F  </i>
   <i type="int" name="LMAXFOCK">     0</i>
   <i type="int" name="NMAXFOCKAE">     0</i>
   <i type="logical" name="LFOCKAEDFT"> F  </i>
   <i name="HFSCREEN">      0.00000000</i>
   <i name="HFSCREENC">      0.00000000</i>
   <i type="int" name="NBANDSGWLOW">     0</i>
  </separator>
  <separator name="vdW DFT" >
   <i type="logical" name="LUSE_VDW"> F  </i>
   <i name="Zab_VDW">     -0.84910000</i>
   <i name="PARAM1">      0.12340000</i>
   <i name="PARAM2">      1.00000000</i>
   <i name="PARAM3">      0.00000000</i>
  </separator>
  <separator name="model GW" >
   <i type="int" name="MODEL_GW">     0</i>
   <i name="MODEL_EPS0">      5.84075459</i>
   <i name="MODEL_ALPHA">      1.00000000</i>
  </separator>
  <separator name="linear response parameters" >
   <i type="logical" name="LEPSILON"> F  </i>
   <i type="logical" name="LRPA"> F  </i>
   <i type="logical" name="LNABLA"> F  </i>
   <i type="logical" name="LVEL"> F  </i>
   <i type="int" name="KINTER">     0</i>
   <i name="CSHIFT">      0.10000000</i>
   <i name="OMEGAMAX">     -1.00000000</i>
   <i name="DEG_THRESHOLD">      0.00200000</i>
   <i name="RTIME">     -0.10000000</i>
   <i name="WPLASMAI">      0.00000000</i>
   <v name="DFIELD">      0.00000000      0.00000000      0.00000000</v>
   <v name="WPLASMA">      0.00000000      0.00000000      0.00000000      0.00000000      0.00000000      0.00000000      0.00000000      0.00000000      0.00000000</v>
  </separator>
  <separator name="orbital magnetization" >
   <i type="logical" name="NUCIND"> F  </i>
   <v name="MAGPOS">      0.00000000      0.00000000      0.00000000</v>
   <i type="logical" name="LNICSALL"> T  </i>
   <i type="logical" name="ORBITALMAG"> F  </i>
   <i type="logical" name="LMAGBLOCH"> F  </i>
   <i type="logical" name="LCHIMAG"> F  </i>
   <i type="logical" name="LGAUGE"> T  </i>
   <i type="int" name="MAGATOM">     0</i>
   <v name="MAGDIPOL">      0.00000000      0.00000000      0.00000000</v>
   <v name="AVECCONST">      0.00000000      0.00000000      0.00000000</v>
  </separator>
  <separator name="response functions" >
   <i type="logical" name="LFINITE_TEMPERATURE"> F  </i>
   <i type="logical" name="LADDER"> F  </i>
   <i type="logical" name="LRPAFORCE"> F  </i>
   <i type="logical" name="LFXC"> F  </i>
   <i type="logical" name="LHARTREE"> T  </i>
   <i type="int" name="IBSE">     0</i>
   <v type="int" name="KPOINT">    -1     0     0     0</v>
   <i type="logical" name="LTCTC"> F  </i>
   <i type="logical" name="LTCTE"> F  </i>
   <i type="logical" name="LTETE"> F  </i>
   <i type="logical" name="LTRIPLET"> F  </i>
   <i type="logical" name="LFXCEPS"> F  </i>
   <i type="logical" name="LFXHEG"> F  </i>
   <i type="int" name="NATURALO">     2</i>
   <i type="logical" name="LHOLEGF"> F  </i>
   <i type="logical" name="L2ORDER"> F  </i>
   <i type="logical" name="LDMP1"> F  </i>
   <i type="logical" name="LMP2LT"> F  </i>
   <i type="logical" name="LSMP2LT"> F  </i>
   <i type="logical" name="LGWLF"> F  </i>
   <i name="ENCUTGW">     -2.00000000</i>
   <i name="ENCUTGWSOFT">     -2.00000000</i>
   <i name="ENCUTLF">     -1.00000000</i>
   <i type="logical" name="LESF_SPLINES"> F  </i>
   <i type="int" name="LMAXMP2">    -1</i>
   <i name="SCISSOR">      0.00000000</i>
   <i type="int" name="NOMEGA">     0</i>
   <i type="int" name="NOMEGAR">     0</i>
   <i type="int" name="NBANDSGW">    -1</i>
   <i type="int" name="NBANDSO">    -1</i>
   <i type="int" name="NBANDSV">    -1</i>
   <i type="int" name="NELM">     1</i>
   <i type="int" name="NELMHF">     1</i>
   <i type="int" name="DIM">     3</i>
   <i type="int" name="IESPILON">     4</i>
   <i type="int" name="ANTIRES">     0</i>
   <i name="OMEGAMAX">    -30.00000000</i>
   <i name="OMEGAMIN">    -30.00000000</i>
   <i name="OMEGATL">   -200.00000000</i>
   <i type="int" name="OMEGAGRID">     0</i>
   <i name="CSHIFT">     -0.10000000</i>
   <i type="logical" name="LSELFENERGY"> F  </i>
   <i type="logical" name="LSPECTRAL"> F  </i>
   <i type="logical" name="LSPECTRALGW"> F  </i>
   <i type="logical" name="LSINGLES"> F  </i>
   <i type="logical" name="LFERMIGW"> F  </i>
   <i type="logical" name="ODDONLYGW"> F  </i>
   <i type="logical" name="EVENONLYGW"> F  </i>
   <i type="int" name="NKREDLFX">     1</i>
   <i type="int" name="NKREDLFY">     1</i>
   <i type="int" name="NKREDLFZ">     1</i>
   <i type="int" name="MAXMEM">  2800</i>
   <i type="int" name="TELESCOPE">     0</i>
   <i type="int" name="NTAUPAR">    -1</i>
   <i type="int" name="NOMEGAPAR">    -1</i>
   <i name="DAMP_NEWTON">      0.80000001</i>
   <i name="LAMBDA">      1.00000000</i>
  </separator>
  <separator name="External order field" >
   <i name="OFIELD_KAPPA">      0.00000000</i>
   <v name="OFIELD_K">      0.00000000      0.00000000      0.00000000</v>
   <i name="OFIELD_Q6_NEAR">      0.00000000</i>
   <i name="OFIELD_Q6_FAR">      0.00000000</i>
   <i name="OFIELD_A">      0.00000000</i>
  </separator>
 </parameters>
 <atominfo>
  <atoms>       2 </atoms>
  <types>       1 </types>
  <array name="atoms" >
   <dimension dim="1">ion</dimension>
   <field type="string">element</field>
   <field type="int">atomtype</field>
   <set>
    <rc><c>Fe</c><c>   1</c></rc>
    <rc><c>Fe</c><c>   1</c></rc>
   </set>
  </array>
  <array name="atomtypes" >
   <dimension dim="1">type</dimension>
   <field type="int">atomspertype</field>
   <field type="string">element</field>
   <field>mass</field>
   <field>valence</field>
   <field type="string">pseudopotential</field>
   <set>
    <rc><c>   2</c><c>Fe</c><c>     55.84700000</c><c>      8.00000000</c><c>  PAW_PBE Fe 06Sep2000                  </c></rc>
   </set>
  </array>
 </atominfo>
 <structure name="initialpos" >
  <crystal>
   <varray name="basis" >
    <v>       2.33000000       0.00000000       0.00000000 </v>
    <v>      -1.16500000       2.01783919       0.00000000 </v>
    <v>       0.00000000       0.00000000       4.14100000 </v>
   </varray>
   <i name="volume">     19.46918197 </i>
   <varray name="rec_basis" >
    <v>       0.42918455       0.24778982       0.00000000 </v>
    <v>       0.00000000       0.49557963       0.00000000 </v>
    <v>       0.00000000       0.00000000       0.24148756 </v>
   </varray>
  </crystal>
  <varray name="positions" >
   <v>       0.00000000       0.00000000       0.00000000 </v>
   <v>       0.33333333       0.66666667       0.50000000 </v>
  </varray>
 </structure>
 <calculation>
  <scstep>
   <time name="dav">    0.80    0.82</time>
   <time name="total">    0.81    0.83</time>
   <energy>
    <i name="alphaZ">    141.99626079 </i>
    <i name="ewald">  -1245.24340281 </i>
    <i name="hartreedc">   -200.95811669 </i>
    <i name="XCdc">      8.79041871 </i>
    <i name="pawpsdc">   1109.69170683 </i>
    <i name="pawaedc">  -1125.09647265 </i>
    <i name="eentropy">     -0.00163029 </i>
    <i name="bandstr">    182.26340326 </i>
    <i name="atom">   1188.57490811 </i>
    <i name="e_fr_energy">     60.01707525 </i>
    <i name="e_wo_entrp">     60.01870554 </i>
    <i name="e_0_energy">     60.01761868 </i>
   </energy>
  </scstep>
  <scstep>
   <time name="dav">    0.69    0.69</time>
   <time name="total">    0.70    0.70</time>
   <energy>
    <i name="e_fr_energy">    -14.75980813 </i>
    <i name="e_wo_entrp">    -14.76113289 </i>
    <i name="e_0_energy">    -14.76024972 </i>
   </energy>
  </scstep>
  <scstep>
   <time name="dav">    0.79    0.79</time>
   <time name="total">    0.80    0.80</time>
   <energy>
    <i name="e_fr_energy">    -18.96879907 </i>
    <i name="e_wo_entrp">    -18.96947710 </i>
    <i name="e_0_energy">    -18.96902508 </i>
   </energy>
  </scstep>
  <scstep>
   <time name="dav">    0.75    0.75</time>
   <time name="total">    0.76    0.76</time>
   <energy>
    <i name="e_fr_energy">    -18.98528774 </i>
    <i name="e_wo_entrp">    -18.98590566 </i>
    <i name="e_0_energy">    -18.98549371 </i>
   </energy>
  </scstep>
  <scstep>
   <time name="dav">    0.81    0.81</time>
   <time name="total">    0.84    0.84</time>
   <energy>
    <i name="e_fr_energy">    -18.98530307 </i>
    <i name="e_wo_entrp">    -18.98592092 </i>
    <i name="e_0_energy">    -18.98550902 </i>
   </energy>
  </scstep>
  <scstep>
   <time name="dav">    0.91    0.91</time>
   <time name="total">    0.94    0.94</time>
   <energy>
    <i name="e_fr_energy">    -16.20289215 </i>
    <i name="e_wo_entrp">    -16.20515226 </i>
    <i name="e_0_energy">    -16.20364552 </i>
   </energy>
  </scstep>
  <scstep>
   <time name="dav">    0.82    0.82</time>
   <time name="total">    0.85    0.85</time>
   <energy>
    <i name="e_fr_energy">    -16.04298816 </i>
    <i name="e_wo_entrp">    -16.04515572 </i>
    <i name="e_0_energy">    -16.04371068 </i>
   </energy>
  </scstep>
  <scstep>
   <time name="dav">    0.81    0.81</time>
   <time name="total">    0.85    0.85</time>
   <energy>
    <i name="e_fr_energy">    -16.01346454 </i>
    <i name="e_wo_entrp">    -16.01567519 </i>
    <i name="e_0_energy">    -16.01420143 </i>
   </energy>
  </scstep>
  <scstep>
   <time name="dav">    0.88    0.88</time>
   <time name="total">    0.91    0.91</time>
   <energy>
    <i name="e_fr_energy">    -16.00380376 </i>
    <i name="e_wo_entrp">    -16.00601516 </i>
    <i name="e_0_energy">    -16.00454090 </i>
   </energy>
  </scstep>
  <scstep>
   <time name="dav">    0.72    0.72</time>
   <time name="total">    0.76    0.76</time>
   <energy>
    <i name="e_fr_energy">    -16.00383247 </i>
    <i name="e_wo_entrp">    -16.00604018 </i>
    <i name="e_0_energy">    -16.00456837 </i>
   </energy>
  </scstep>
  <scstep>
   <time name="dav">    0.74    0.74</time>
   <time name="total">    0.77    0.77</time>
   <energy>
    <i name="e_fr_energy">    -16.00382236 </i>
    <i name="e_wo_entrp">    -16.00602996 </i>
    <i name="e_0_energy">    -16.00455823 </i>
   </energy>
  </scstep>
  <scstep>
   <time name="dav">    0.58    0.58</time>
   <time name="total">    0.62    0.62</time>
   <energy>
    <i name="e_fr_energy">    -16.00382111 </i>
    <i name="e_wo_entrp">    -16.00602888 </i>
    <i name="e_0_energy">    -16.00455704 </i>
   </energy>
  </scstep>
  <scstep>
   <time name="dav">    0.55    0.55</time>
   <time name="total">    0.56    0.56</time>
   <energy>
    <i name="alphaZ">    141.99626079 </i>
    <i name="ewald">  -1245.24340281 </i>
    <i name="hartreedc">   -167.09926520 </i>
    <i name="XCdc">      7.20599735 </i>
    <i name="pawpsdc">   1532.94414688 </i>
    <i name="pawaedc">  -1550.90764576 </i>
    <i name="eentropy">      0.00220775 </i>
    <i name="bandstr">     76.52297145 </i>
    <i name="atom">   1188.57490811 </i>
    <i name="e_fr_energy">    -16.00382145 </i>
    <i name="e_wo_entrp">    -16.00602920 </i>
    <i name="e_0_energy">    -16.00455737 </i>
   </energy>
  </scstep>
  <structure>
   <crystal>
    <varray name="basis" >
     <v>       2.33000000       0.00000000       0.00000000 </v>
     <v>      -1.16500000       2.01783919       0.00000000 </v>
     <v>       0.00000000       0.00000000       4.14100000 </v>
    </varray>
    <i name="volume">     19.46918197 </i>
    <varray name="rec_basis" >
     <v>       0.42918455       0.24778982       0.00000000 </v>
     <v>       0.00000000       0.49557963       0.00000000 </v>
     <v>       0.00000000       0.00000000       0.24148756 </v>
    </varray>
   </crystal>
   <varray name="positions" >
    <v>       0.00000000       0.00000000       0.00000000 </v>
    <v>       0.33333333       0.66666667       0.50000000 </v>
   </varray>
  </structure>
  <varray name="forces" >
   <v>       0.00000000      -0.00000000      -0.00000000 </v>
   <v>      -0.00000000       0.00000000       0.00000000 </v>
  </varray>
  <varray name="stress" >
   <v>     355.67190001      -0.00000000       0.00000000 </v>
   <v>      -0.00000000     355.67190001      -0.00000000 </v>
   <v>       0.00000000      -0.00000000    -235.96248336 </v>
  </varray>
  <energy>
   <i name="e_fr_energy">    -16.00382145 </i>
   <i name="e_wo_entrp">    -16.00602920 </i>
   <i name="e_0_energy">    -16.00455737 </i>
  </energy>
  <time name="totalsc">   10.46   10.49</time>
  <eigenvalues>
   <array>
    <dimension dim="1">band</dimension>
    <dimension dim="2">kpoint</dimension>
    <dimension dim="3">spin</dimension>
    <field>eigene</field>
    <field>occ</field>
    <set>
     <set comment="spin 1">
      <set comment="kpoint 1">
       <r>   -1.7327    1.0000 </r>
       <r>    2.1537    1.0000 </r>
       <r>    5.0227    1.0000 </r>
       <r>    5.7517    1.0000 </r>
       <r>    5.7518    1.0000 </r>
       <r>    6.0680    1.0000 </r>
       <r>    6.0681    1.0000 </r>
       <r>    6.5835    1.0000 </r>
       <r>    7.1337    1.0289 </r>
       <r>    7.1338    1.0289 </r>
       <r>    8.2292   -0.0000 </r>
       <r>    8.2292   -0.0000 </r>
       <r>   15.0178    0.0000 </r>
       <r>   31.1112    0.0000 </r>
       <r>   31.3809    0.0000 </r>
       <r>   34.4145    0.0000 </r>
       <r>   37.1476    0.0000 </r>
       <r>   37.1477    0.0000 </r>
       <r>   37.9223    0.0000 </r>
       <r>   37.9225    0.0000 </r>
       <r>   38.1830    0.0000 </r>
       <r>   40.5434    0.0000 </r>
       <r>   40.5434    0.0000 </r>
       <r>   41.5666    0.0000 </r>
       <r>   44.3119    0.0000 </r>
       <r>   44.3119    0.0000 </r>
       <r>   45.0641    0.0000 </r>
       <r>   48.3797    0.0000 </r>
       <r>   48.3801    0.0000 </r>
       <r>   50.2959    0.0000 </r>
       <r>   50.2960    0.0000 </r>
       <r>   52.7239    0.0000 </r>
       <r>   60.3982    0.0000 </r>
       <r>   62.6691    0.0000 </r>
       <r>   62.6700    0.0000 </r>
       <r>   62.7934    0.0000 </r>
       <r>   63.7723    0.0000 </r>
       <r>   65.1597    0.0000 </r>
       <r>   65.1607    0.0000 </r>
       <r>   66.4431    0.0000 </r>
      </set>
      <set comment="kpoint 2">
       <r>   -1.3880    1.0000 </r>
       <r>    2.4156    1.0000 </r>
       <r>    5.0525    1.0000 </r>
       <r>    5.6704    1.0000 </r>
       <r>    5.7389    1.0000 </r>
       <r>    5.9449    1.0000 </r>
       <r>    5.9589    1.0000 </r>
       <r>    6.2629    1.0000 </r>
       <r>    6.9652    1.0025 </r>
       <r>    7.0155    1.0065 </r>
       <r>    8.2626   -0.0000 </r>
       <r>    9.3478   -0.0000 </r>
       <r>   15.0405    0.0000 </r>
       <r>   30.1904    0.0000 </r>
       <r>   31.4915    0.0000 </r>
       <r>   32.8574    0.0000 </r>
       <r>   34.2844    0.0000 </r>
       <r>   36.3756    0.0000 </r>
       <r>   36.4818    0.0000 </r>
       <r>   38.0596    0.0000 </r>
       <r>   39.9461    0.0000 </r>
       <r>   40.8434    0.0000 </r>
       <r>   40.9450    0.0000 </r>
       <r>   41.6043    0.0000 </r>
       <r>   45.5282    0.0000 </r>
       <r>   45.7285    0.0000 </r>
       <r>   45.8944    0.0000 </r>
       <r>   46.0714    0.0000 </r>
       <r>   49.5140    0.0000 </r>
       <r>   51.6461    0.0000 </r>
       <r>   52.8063    0.0000 </r>
       <r>   54.6641    0.0000 </r>
       <r>   59.4852    0.0000 </r>
       <r>   61.5605    0.0000 </r>
       <r>   61.5941    0.0000 </r>
       <r>   62.3717    0.0000 </r>
       <r>   62.3768    0.0000 </r>
       <r>   66.0183    0.0000 </r>
       <r>   66.4096    0.0000 </r>
       <r>   67.0856    0.0000 </r>
      </set>
      <set comment="kpoint 3">
       <r>   -0.4158    1.0000 </r>
       <r>    3.0292    1.0000 </r>
       <r>    4.6421    1.0000 </r>
       <r>    4.8947    1.0000 </r>
       <r>    5.4618    1.0000 </r>
       <r>    6.0593    1.0000 </r>
       <r>    6.5337    1.0000 </r>
       <r>    6.5664    1.0000 </r>
       <r>    6.7334    1.0000 </r>
       <r>    6.7949    1.0000 </r>
       <r>    8.3119   -0.0000 </r>
       <r>   11.2180   -0.0000 </r>
       <r>   15.1392    0.0000 </r>
       <r>   26.4534    0.0000 </r>
       <r>   31.3506    0.0000 </r>
       <r>   31.5685    0.0000 </r>
       <r>   31.7805    0.0000 </r>
       <r>   32.6423    0.0000 </r>
       <r>   36.9524    0.0000 </r>
       <r>   37.7815    0.0000 </r>
       <r>   38.3389    0.0000 </r>
       <r>   39.0203    0.0000 </r>
       <r>   41.9361    0.0000 </r>
       <r>   42.8000    0.0000 </r>
       <r>   45.7374    0.0000 </r>
       <r>   46.7742    0.0000 </r>
       <r>   48.2321    0.0000 </r>
       <r>   50.4897    0.0000 </r>
       <r>   52.4487    0.0000 </r>
       <r>   54.8605    0.0000 </r>
       <r>   55.5226    0.0000 </r>
       <r>   57.9705    0.0000 </r>
       <r>   58.1111    0.0000 </r>
       <r>   58.7627    0.0000 </r>
       <r>   59.8311    0.0000 </r>
       <r>   61.2273    0.0000 </r>
       <r>   63.2149    0.0000 </r>
       <r>   66.2758    0.0000 </r>
       <r>   67.0407    0.0000 </r>
       <r>   67.2645    0.0000 </r>
      </set>
      <set comment="kpoint 4">
       <r>    0.9517    1.0000 </r>
       <r>    3.3082    1.0000 </r>
       <r>    3.7865    1.0000 </r>
       <r>    4.8703    1.0000 </r>
       <r>    5.2749    1.0000 </r>
       <r>    6.0709    1.0000 </r>
       <r>    6.4147    1.0000 </r>
       <r>    6.8583    1.0002 </r>
       <r>    7.3519    0.7982 </r>
       <r>    7.5431    0.0917 </r>
       <r>    8.3388   -0.0000 </r>
       <r>   13.3393    0.0000 </r>
       <r>   15.3685    0.0000 </r>
       <r>   22.3888    0.0000 </r>
       <r>   28.1371    0.0000 </r>
       <r>   28.8558    0.0000 </r>
       <r>   29.9159    0.0000 </r>
       <r>   32.6717    0.0000 </r>
       <r>   35.1637    0.0000 </r>
       <r>   37.9833    0.0000 </r>
       <r>   38.3483    0.0000 </r>
       <r>   38.7219    0.0000 </r>
       <r>   39.4669    0.0000 </r>
       <r>   42.9929    0.0000 </r>
       <r>   49.3697    0.0000 </r>
       <r>   50.7721    0.0000 </r>
       <r>   51.8147    0.0000 </r>
       <r>   52.9433    0.0000 </r>
       <r>   53.7683    0.0000 </r>
       <r>   55.2992    0.0000 </r>
       <r>   56.6934    0.0000 </r>
       <r>   58.3024    0.0000 </r>
       <r>   59.6318    0.0000 </r>
       <r>   59.6875    0.0000 </r>
       <r>   60.9159    0.0000 </r>
       <r>   62.9570    0.0000 </r>
       <r>   64.0641    0.0000 </r>
       <r>   66.1713    0.0000 </r>
       <r>   67.5361    0.0000 </r>
       <r>   67.7988    0.0000 </r>
      </set>
      <set comment="kpoint 5">
       <r>    2.1415    1.0000 </r>
       <r>    3.0190    1.0000 </r>
       <r>    3.2181    1.0000 </r>
       <r>    5.0440    1.0000 </r>
       <r>    5.6302    1.0000 </r>
       <r>    5.7330    1.0000 </r>
       <r>    6.1502    1.0000 </r>
       <r>    8.1742   -0.0000 </r>
       <r>    8.1778   -0.0000 </r>
       <r>    8.2962   -0.0000 </r>
       <r>    8.3388   -0.0000 </r>
       <r>   15.3099    0.0000 </r>
       <r>   15.6093    0.0000 </r>
       <r>   19.3999    0.0000 </r>
       <r>   24.7818    0.0000 </r>
       <r>   26.9440    0.0000 </r>
       <r>   27.0289    0.0000 </r>
       <r>   31.8666    0.0000 </r>
       <r>   34.1193    0.0000 </r>
       <r>   37.3595    0.0000 </r>
       <r>   37.9234    0.0000 </r>
       <r>   39.5730    0.0000 </r>
       <r>   39.9723    0.0000 </r>
       <r>   43.1373    0.0000 </r>
       <r>   50.4071    0.0000 </r>
       <r>   51.9239    0.0000 </r>
       <r>   52.8118    0.0000 </r>
       <r>   56.0216    0.0000 </r>
       <r>   56.0624    0.0000 </r>
       <r>   56.4753    0.0000 </r>
       <r>   58.4409    0.0000 </r>
       <r>   59.8019    0.0000 </r>
       <r>   60.2839    0.0000 </r>
       <r>   60.9991    0.0000 </r>
       <r>   62.8715    0.0000 </r>
       <r>   64.4074    0.0000 </r>
       <r>   65.8795    0.0000 </r>
       <r>   66.7137    0.0000 </r>
       <r>   67.5306    0.0000 </r>
       <r>   68.1249    0.0000 </r>
      </set>
      <set comment="kpoint 6">
       <r>    2.5623    1.0000 </r>
       <r>    2.7875    1.0000 </r>
       <r>    2.9378    1.0000 </r>
       <r>    5.3736    1.0000 </r>
       <r>    5.6340    1.0000 </r>
       <r>    5.9854    1.0000 </r>
       <r>    6.0017    1.0000 </r>
       <r>    8.3332   -0.0000 </r>
       <r>    8.6900   -0.0000 </r>
       <r>    8.8038   -0.0000 </r>
       <r>    9.9452   -0.0000 </r>
       <r>   13.4957    0.0000 </r>
       <r>   17.7577    0.0000 </r>
       <r>   19.3066    0.0000 </r>
       <r>   22.1112    0.0000 </r>
       <r>   24.2755    0.0000 </r>
       <r>   25.8749    0.0000 </r>
       <r>   31.2452    0.0000 </r>
       <r>   33.7995    0.0000 </r>
       <r>   36.1861    0.0000 </r>
       <r>   37.7053    0.0000 </r>
       <r>   40.5367    0.0000 </r>
       <r>   42.3346    0.0000 </r>
       <r>   42.7906    0.0000 </r>
       <r>   47.0134    0.0000 </r>
       <r>   52.4330    0.0000 </r>
       <r>   53.8641    0.0000 </r>
       <r>   57.7810    0.0000 </r>
       <r>   58.3110    0.0000 </r>
       <r>   59.1998    0.0000 </r>
       <r>   60.2720    0.0000 </r>
       <r>   61.3751    0.0000 </r>
       <r>   61.4120    0.0000 </r>
       <r>   63.0402    0.0000 </r>
       <r>   63.8583    0.0000 </r>
       <r>   65.1048    0.0000 </r>
       <r>   66.4828    0.0000 </r>
       <r>   66.6577    0.0000 </r>
       <r>   68.1019    0.0000 </r>
       <r>   68.6844    0.0000 </r>
      </set>
      <set comment="kpoint 7">
       <r>   -0.7265    1.0000 </r>
       <r>    2.8743    1.0000 </r>
       <r>    4.9252    1.0000 </r>
       <r>    4.9306    1.0000 </r>
       <r>    5.7085    1.0000 </r>
       <r>    5.7164    1.0000 </r>
       <r>    6.3797    1.0000 </r>
       <r>    6.5486    1.0000 </r>
       <r>    6.6748    1.0000 </r>
       <r>    6.9674    1.0027 </r>
       <r>    8.2670   -0.0000 </r>
       <r>   10.6964   -0.0000 </r>
       <r>   15.1051    0.0000 </r>
       <r>   28.1837    0.0000 </r>
       <r>   29.5775    0.0000 </r>
       <r>   32.0657    0.0000 </r>
       <r>   33.5198    0.0000 </r>
       <r>   35.2110    0.0000 </r>
       <r>   35.4129    0.0000 </r>
       <r>   36.8282    0.0000 </r>
       <r>   37.7409    0.0000 </r>
       <r>   42.6551    0.0000 </r>
       <r>   42.7021    0.0000 </r>
       <r>   43.6075    0.0000 </r>
       <r>   44.4281    0.0000 </r>
       <r>   44.7926    0.0000 </r>
       <r>   45.0364    0.0000 </r>
       <r>   51.0561    0.0000 </r>
       <r>   53.1322    0.0000 </r>
       <r>   53.4498    0.0000 </r>
       <r>   53.6289    0.0000 </r>
       <r>   57.3757    0.0000 </r>
       <r>   58.4405    0.0000 </r>
       <r>   59.4418    0.0000 </r>
       <r>   60.3973    0.0000 </r>
       <r>   61.2869    0.0000 </r>
       <r>   62.5631    0.0000 </r>
       <r>   66.3559    0.0000 </r>
       <r>   67.1819    0.0000 </r>
       <r>   67.5721    0.0000 </r>
      </set>
      <set comment="kpoint 8">
       <r>    0.4718    1.0000 </r>
       <r>    3.4539    1.0000 </r>
       <r>    4.0971    1.0000 </r>
       <r>    4.6212    1.0000 </r>
       <r>    5.3803    1.0000 </r>
       <r>    6.0758    1.0000 </r>
       <r>    6.1807    1.0000 </r>
       <r>    6.6943    1.0000 </r>
       <r>    7.1331    1.0287 </r>
       <r>    7.4468    0.4213 </r>
       <r>    8.2583   -0.0000 </r>
       <r>   12.5969   -0.0000 </r>
       <r>   15.3158    0.0000 </r>
       <r>   24.4695    0.0000 </r>
       <r>   27.1476    0.0000 </r>
       <r>   29.9811    0.0000 </r>
       <r>   32.1288    0.0000 </r>
       <r>   32.7898    0.0000 </r>
       <r>   35.8840    0.0000 </r>
       <r>   35.9417    0.0000 </r>
       <r>   37.1693    0.0000 </r>
       <r>   41.6986    0.0000 </r>
       <r>   42.0165    0.0000 </r>
       <r>   43.3318    0.0000 </r>
       <r>   46.3910    0.0000 </r>
       <r>   47.2565    0.0000 </r>
       <r>   49.3610    0.0000 </r>
       <r>   53.2907    0.0000 </r>
       <r>   55.3879    0.0000 </r>
       <r>   55.6675    0.0000 </r>
       <r>   56.2765    0.0000 </r>
       <r>   58.2792    0.0000 </r>
       <r>   58.9622    0.0000 </r>
       <r>   59.3949    0.0000 </r>
       <r>   60.3474    0.0000 </r>
       <r>   60.8314    0.0000 </r>
       <r>   63.3545    0.0000 </r>
       <r>   66.4417    0.0000 </r>
       <r>   67.6990    0.0000 </r>
       <r>   68.0521    0.0000 </r>
      </set>
      <set comment="kpoint 9">
       <r>    1.8495    1.0000 </r>
       <r>    3.3723    1.0000 </r>
       <r>    3.4725    1.0000 </r>
       <r>    4.7179    1.0000 </r>
       <r>    5.4602    1.0000 </r>
       <r>    5.6788    1.0000 </r>
       <r>    6.3063    1.0000 </r>
       <r>    7.0120    1.0061 </r>
       <r>    7.9576   -0.0006 </r>
       <r>    8.2403   -0.0000 </r>
       <r>    8.4502   -0.0000 </r>
       <r>   14.7674    0.0000 </r>
       <r>   15.6753    0.0000 </r>
       <r>   20.7020    0.0000 </r>
       <r>   25.3962    0.0000 </r>
       <r>   26.5387    0.0000 </r>
       <r>   29.4016    0.0000 </r>
       <r>   31.0215    0.0000 </r>
       <r>   35.1793    0.0000 </r>
       <r>   36.4367    0.0000 </r>
       <r>   37.3729    0.0000 </r>
       <r>   41.0931    0.0000 </r>
       <r>   41.4426    0.0000 </r>
       <r>   44.4075    0.0000 </r>
       <r>   48.3883    0.0000 </r>
       <r>   51.0306    0.0000 </r>
       <r>   52.3097    0.0000 </r>
       <r>   52.5996    0.0000 </r>
       <r>   54.6095    0.0000 </r>
       <r>   56.8137    0.0000 </r>
       <r>   57.7477    0.0000 </r>
       <r>   59.7517    0.0000 </r>
       <r>   60.6796    0.0000 </r>
       <r>   60.8190    0.0000 </r>
       <r>   62.1693    0.0000 </r>
       <r>   63.9049    0.0000 </r>
       <r>   65.9942    0.0000 </r>
       <r>   66.4864    0.0000 </r>
       <r>   66.8811    0.0000 </r>
       <r>   68.2135    0.0000 </r>
      </set>
      <set comment="kpoint 10">
       <r>    2.6704    1.0000 </r>
       <r>    3.0480    1.0000 </r>
       <r>    3.1003    1.0000 </r>
       <r>    5.1604    1.0000 </r>
       <r>    5.4247    1.0000 </r>
       <r>    5.8673    1.0000 </r>
       <r>    5.9770    1.0000 </r>
       <r>    8.0048   -0.0002 </r>
       <r>    8.2198   -0.0000 </r>
       <r>    8.5242   -0.0000 </r>
       <r>    9.7186   -0.0000 </r>
       <r>   14.9265    0.0000 </r>
       <r>   17.0543    0.0000 </r>
       <r>   19.1203    0.0000 </r>
       <r>   23.4894    0.0000 </r>
       <r>   24.0027    0.0000 </r>
       <r>   26.1319    0.0000 </r>
       <r>   30.1184    0.0000 </r>
       <r>   34.2270    0.0000 </r>
       <r>   35.9435    0.0000 </r>
       <r>   38.7637    0.0000 </r>
       <r>   41.4262    0.0000 </r>
       <r>   42.2372    0.0000 </r>
       <r>   43.8298    0.0000 </r>
       <r>   49.0109    0.0000 </r>
       <r>   51.1133    0.0000 </r>
       <r>   52.7360    0.0000 </r>
       <r>   54.6273    0.0000 </r>
       <r>   56.2829    0.0000 </r>
       <r>   58.2030    0.0000 </r>
       <r>   59.3156    0.0000 </r>
       <r>   60.8218    0.0000 </r>
       <r>   61.5473    0.0000 </r>
       <r>   63.7624    0.0000 </r>
       <r>   64.3585    0.0000 </r>
       <r>   65.3191    0.0000 </r>
       <r>   65.3899    0.0000 </r>
       <r>   67.2187    0.0000 </r>
       <r>   67.8108    0.0000 </r>
       <r>   68.8438    0.0000 </r>
      </set>
      <set comment="kpoint 11">
       <r>    2.7754    1.0000 </r>
       <r>    2.9660    1.0000 </r>
       <r>    2.9779    1.0000 </r>
       <r>    5.3408    1.0000 </r>
       <r>    5.5843    1.0000 </r>
       <r>    5.8477    1.0000 </r>
       <r>    5.9733    1.0000 </r>
       <r>    8.2102   -0.0000 </r>
       <r>    8.5749   -0.0000 </r>
       <r>    8.6034   -0.0000 </r>
       <r>   10.9843   -0.0000 </r>
       <r>   13.2246    0.0000 </r>
       <r>   18.6092    0.0000 </r>
       <r>   19.7546    0.0000 </r>
       <r>   21.6777    0.0000 </r>
       <r>   23.0837    0.0000 </r>
       <r>   24.7003    0.0000 </r>
       <r>   29.8014    0.0000 </r>
       <r>   33.8276    0.0000 </r>
       <r>   35.7949    0.0000 </r>
       <r>   39.0549    0.0000 </r>
       <r>   42.2337    0.0000 </r>
       <r>   42.7373    0.0000 </r>
       <r>   43.8488    0.0000 </r>
       <r>   46.7752    0.0000 </r>
       <r>   52.4711    0.0000 </r>
       <r>   52.7583    0.0000 </r>
       <r>   55.2721    0.0000 </r>
       <r>   58.2878    0.0000 </r>
       <r>   58.5088    0.0000 </r>
       <r>   61.5238    0.0000 </r>
       <r>   61.7404    0.0000 </r>
       <r>   61.7591    0.0000 </r>
       <r>   62.0454    0.0000 </r>
       <r>   63.9388    0.0000 </r>
       <r>   66.5347    0.0000 </r>
       <r>   67.2914    0.0000 </r>
       <r>   67.3316    0.0000 </r>
       <r>   67.5510    0.0000 </r>
       <r>   69.5536    0.0000 </r>
      </set>
      <set comment="kpoint 12">
       <r>    1.7648    1.0000 </r>
       <r>    3.6238    1.0000 </r>
       <r>    3.9292    1.0000 </r>
       <r>    4.1465    1.0000 </r>
       <r>    5.4465    1.0000 </r>
       <r>    5.6027    1.0000 </r>
       <r>    6.4396    1.0000 </r>
       <r>    6.4457    1.0000 </r>
       <r>    7.9315   -0.0011 </r>
       <r>    8.1331   -0.0000 </r>
       <r>    8.5245   -0.0000 </r>
       <r>   14.5037    0.0000 </r>
       <r>   15.8204    0.0000 </r>
       <r>   22.4412    0.0000 </r>
       <r>   23.2653    0.0000 </r>
       <r>   28.0764    0.0000 </r>
       <r>   29.5629    0.0000 </r>
       <r>   31.7836    0.0000 </r>
       <r>   32.4533    0.0000 </r>
       <r>   36.8611    0.0000 </r>
       <r>   38.8509    0.0000 </r>
       <r>   42.7912    0.0000 </r>
       <r>   43.2782    0.0000 </r>
       <r>   45.4199    0.0000 </r>
       <r>   46.2689    0.0000 </r>
       <r>   48.3106    0.0000 </r>
       <r>   49.4352    0.0000 </r>
       <r>   54.0127    0.0000 </r>
       <r>   55.4399    0.0000 </r>
       <r>   56.2968    0.0000 </r>
       <r>   56.5191    0.0000 </r>
       <r>   60.1449    0.0000 </r>
       <r>   60.2836    0.0000 </r>
       <r>   62.8050    0.0000 </r>
       <r>   63.1075    0.0000 </r>
       <r>   63.2302    0.0000 </r>
       <r>   63.5372    0.0000 </r>
       <r>   66.5498    0.0000 </r>
       <r>   66.9620    0.0000 </r>
       <r>   69.6014    0.0000 </r>
      </set>
      <set comment="kpoint 13">
       <r>    2.9798    1.0000 </r>
       <r>    3.3229    1.0000 </r>
       <r>    3.6154    1.0000 </r>
       <r>    4.3887    1.0000 </r>
       <r>    5.3232    1.0000 </r>
       <r>    5.7483    1.0000 </r>
       <r>    6.0181    1.0000 </r>
       <r>    7.0522    1.0116 </r>
       <r>    8.0251   -0.0001 </r>
       <r>    8.4492   -0.0000 </r>
       <r>    9.8802   -0.0000 </r>
       <r>   16.4120    0.0000 </r>
       <r>   16.7199    0.0000 </r>
       <r>   19.4823    0.0000 </r>
       <r>   21.5935    0.0000 </r>
       <r>   25.4211    0.0000 </r>
       <r>   27.9135    0.0000 </r>
       <r>   28.2348    0.0000 </r>
       <r>   31.1325    0.0000 </r>
       <r>   39.0847    0.0000 </r>
       <r>   39.3514    0.0000 </r>
       <r>   42.7181    0.0000 </r>
       <r>   44.9090    0.0000 </r>
       <r>   46.4141    0.0000 </r>
       <r>   47.3101    0.0000 </r>
       <r>   49.3590    0.0000 </r>
       <r>   50.6412    0.0000 </r>
       <r>   51.9262    0.0000 </r>
       <r>   55.1948    0.0000 </r>
       <r>   56.2177    0.0000 </r>
       <r>   58.5703    0.0000 </r>
       <r>   60.8740    0.0000 </r>
       <r>   61.9641    0.0000 </r>
       <r>   63.3301    0.0000 </r>
       <r>   65.1793    0.0000 </r>
       <r>   65.3962    0.0000 </r>
       <r>   66.6872    0.0000 </r>
       <r>   67.1776    0.0000 </r>
       <r>   68.4516    0.0000 </r>
       <r>   70.0520    0.0000 </r>
      </set>
      <set comment="kpoint 14">
       <r>    3.1879    1.0000 </r>
       <r>    3.3030    1.0000 </r>
       <r>    3.4489    1.0000 </r>
       <r>    4.9320    1.0000 </r>
       <r>    5.2920    1.0000 </r>
       <r>    5.6127    1.0000 </r>
       <r>    6.0356    1.0000 </r>
       <r>    7.8123   -0.0102 </r>
       <r>    7.9638   -0.0005 </r>
       <r>    8.4455   -0.0000 </r>
       <r>   11.5490   -0.0000 </r>
       <r>   14.6952    0.0000 </r>
       <r>   18.9889    0.0000 </r>
       <r>   19.7307    0.0000 </r>
       <r>   20.7090    0.0000 </r>
       <r>   22.7060    0.0000 </r>
       <r>   25.2309    0.0000 </r>
       <r>   27.2939    0.0000 </r>
       <r>   30.4761    0.0000 </r>
       <r>   39.3512    0.0000 </r>
       <r>   41.1802    0.0000 </r>
       <r>   42.9830    0.0000 </r>
       <r>   44.4104    0.0000 </r>
       <r>   45.4917    0.0000 </r>
       <r>   49.2427    0.0000 </r>
       <r>   49.8008    0.0000 </r>
       <r>   51.5074    0.0000 </r>
       <r>   52.3441    0.0000 </r>
       <r>   56.1252    0.0000 </r>
       <r>   57.2513    0.0000 </r>
       <r>   58.0167    0.0000 </r>
       <r>   60.9778    0.0000 </r>
       <r>   61.7079    0.0000 </r>
       <r>   62.0119    0.0000 </r>
       <r>   66.3281    0.0000 </r>
       <r>   66.6442    0.0000 </r>
       <r>   68.2602    0.0000 </r>
       <r>   68.4342    0.0000 </r>
       <r>   68.6040    0.0000 </r>
       <r>   68.6713    0.0000 </r>
      </set>
      <set comment="kpoint 15">
       <r>    3.3344    1.0000 </r>
       <r>    3.7418    1.0000 </r>
       <r>    4.0753    1.0000 </r>
       <r>    4.0965    1.0000 </r>
       <r>    5.1565    1.0000 </r>
       <r>    5.5898    1.0000 </r>
       <r>    6.0727    1.0000 </r>
       <r>    7.3328    0.8571 </r>
       <r>    7.8350   -0.0071 </r>
       <r>    8.4058   -0.0000 </r>
       <r>   11.6956   -0.0000 </r>
       <r>   16.8431    0.0000 </r>
       <r>   17.4614    0.0000 </r>
       <r>   19.0259    0.0000 </r>
       <r>   20.4544    0.0000 </r>
       <r>   24.7253    0.0000 </r>
       <r>   24.8600    0.0000 </r>
       <r>   26.9951    0.0000 </r>
       <r>   27.8585    0.0000 </r>
       <r>   40.7844    0.0000 </r>
       <r>   41.6851    0.0000 </r>
       <r>   45.5751    0.0000 </r>
       <r>   46.6340    0.0000 </r>
       <r>   46.9132    0.0000 </r>
       <r>   47.1169    0.0000 </r>
       <r>   47.8161    0.0000 </r>
       <r>   50.4053    0.0000 </r>
       <r>   52.9121    0.0000 </r>
       <r>   53.1789    0.0000 </r>
       <r>   57.1888    0.0000 </r>
       <r>   57.5018    0.0000 </r>
       <r>   60.0674    0.0000 </r>
       <r>   61.6048    0.0000 </r>
       <r>   62.1672    0.0000 </r>
       <r>   66.2118    0.0000 </r>
       <r>   67.0840    0.0000 </r>
       <r>   67.2354    0.0000 </r>
       <r>   68.4510    0.0000 </r>
       <r>   68.8520    0.0000 </r>
       <r>   70.2321    0.0000 </r>
      </set>
      <set comment="kpoint 16">
       <r>    3.3735    1.0000 </r>
       <r>    3.8701    1.0000 </r>
       <r>    3.9463    1.0000 </r>
       <r>    4.4669    1.0000 </r>
       <r>    5.2307    1.0000 </r>
       <r>    5.2596    1.0000 </r>
       <r>    6.2241    1.0000 </r>
       <r>    7.7336   -0.0264 </r>
       <r>    7.7618   -0.0200 </r>
       <r>    8.0621   -0.0000 </r>
       <r>   13.5055    0.0000 </r>
       <r>   14.8685    0.0000 </r>
       <r>   17.0751    0.0000 </r>
       <r>   21.0409    0.0000 </r>
       <r>   21.4239    0.0000 </r>
       <r>   22.5252    0.0000 </r>
       <r>   24.5552    0.0000 </r>
       <r>   25.2699    0.0000 </r>
       <r>   27.2463    0.0000 </r>
       <r>   41.1651    0.0000 </r>
       <r>   44.1398    0.0000 </r>
       <r>   45.0882    0.0000 </r>
       <r>   45.7346    0.0000 </r>
       <r>   46.3777    0.0000 </r>
       <r>   47.9833    0.0000 </r>
       <r>   48.8875    0.0000 </r>
       <r>   52.1523    0.0000 </r>
       <r>   52.5161    0.0000 </r>
       <r>   52.8009    0.0000 </r>
       <r>   56.2207    0.0000 </r>
       <r>   57.4963    0.0000 </r>
       <r>   58.1299    0.0000 </r>
       <r>   61.1566    0.0000 </r>
       <r>   61.5291    0.0000 </r>
       <r>   66.2671    0.0000 </r>
       <r>   67.3299    0.0000 </r>
       <r>   68.6824    0.0000 </r>
       <r>   68.7393    0.0000 </r>
       <r>   69.2402    0.0000 </r>
       <r>   69.5403    0.0000 </r>
      </set>
      <set comment="kpoint 17">
       <r>   -1.6511    1.0000 </r>
       <r>    2.1229    1.0000 </r>
       <r>    5.0008    1.0000 </r>
       <r>    5.7441    1.0000 </r>
       <r>    5.7442    1.0000 </r>
       <r>    6.0512    1.0000 </r>
       <r>    6.0513    1.0000 </r>
       <r>    6.3665    1.0000 </r>
       <r>    7.1712    1.0349 </r>
       <r>    7.1712    1.0349 </r>
       <r>    8.2193   -0.0000 </r>
       <r>    8.2193   -0.0000 </r>
       <r>   15.3936    0.0000 </r>
       <r>   30.3353    0.0000 </r>
       <r>   31.5947    0.0000 </r>
       <r>   34.2460    0.0000 </r>
       <r>   37.1937    0.0000 </r>
       <r>   37.1938    0.0000 </r>
       <r>   37.9307    0.0000 </r>
       <r>   37.9309    0.0000 </r>
       <r>   38.6756    0.0000 </r>
       <r>   40.4779    0.0000 </r>
       <r>   40.4779    0.0000 </r>
       <r>   41.8267    0.0000 </r>
       <r>   43.9916    0.0000 </r>
       <r>   43.9916    0.0000 </r>
       <r>   45.2888    0.0000 </r>
       <r>   48.6273    0.0000 </r>
       <r>   48.6276    0.0000 </r>
       <r>   50.6960    0.0000 </r>
       <r>   50.6961    0.0000 </r>
       <r>   52.5622    0.0000 </r>
       <r>   59.6009    0.0000 </r>
       <r>   62.4503    0.0000 </r>
       <r>   62.4511    0.0000 </r>
       <r>   62.9499    0.0000 </r>
       <r>   63.6884    0.0000 </r>
       <r>   63.6890    0.0000 </r>
       <r>   64.6633    0.0000 </r>
       <r>   65.2484    0.0000 </r>
      </set>
      <set comment="kpoint 18">
       <r>   -1.3083    1.0000 </r>
       <r>    2.3890    1.0000 </r>
       <r>    5.0402    1.0000 </r>
       <r>    5.5760    1.0000 </r>
       <r>    5.6428    1.0000 </r>
       <r>    5.9467    1.0000 </r>
       <r>    5.9798    1.0000 </r>
       <r>    6.2428    1.0000 </r>
       <r>    7.0116    1.0061 </r>
       <r>    7.0591    1.0127 </r>
       <r>    8.2473   -0.0000 </r>
       <r>    9.1964   -0.0000 </r>
       <r>   15.4511    0.0000 </r>
       <r>   30.0991    0.0000 </r>
       <r>   30.9788    0.0000 </r>
       <r>   32.8368    0.0000 </r>
       <r>   34.3342    0.0000 </r>
       <r>   35.7193    0.0000 </r>
       <r>   37.0826    0.0000 </r>
       <r>   38.4075    0.0000 </r>
       <r>   39.6619    0.0000 </r>
       <r>   40.9542    0.0000 </r>
       <r>   41.0172    0.0000 </r>
       <r>   41.8166    0.0000 </r>
       <r>   45.1788    0.0000 </r>
       <r>   45.4158    0.0000 </r>
       <r>   46.5255    0.0000 </r>
       <r>   46.5570    0.0000 </r>
       <r>   49.3860    0.0000 </r>
       <r>   51.9010    0.0000 </r>
       <r>   53.0186    0.0000 </r>
       <r>   54.5909    0.0000 </r>
       <r>   58.2880    0.0000 </r>
       <r>   61.0590    0.0000 </r>
       <r>   61.8723    0.0000 </r>
       <r>   62.4745    0.0000 </r>
       <r>   62.9694    0.0000 </r>
       <r>   64.8037    0.0000 </r>
       <r>   65.4288    0.0000 </r>
       <r>   66.0794    0.0000 </r>
      </set>
      <set comment="kpoint 19">
       <r>   -0.3441    1.0000 </r>
       <r>    3.0163    1.0000 </r>
       <r>    4.5610    1.0000 </r>
       <r>    4.9116    1.0000 </r>
       <r>    5.4296    1.0000 </r>
       <r>    5.9860    1.0000 </r>
       <r>    6.4863    1.0000 </r>
       <r>    6.6793    1.0000 </r>
       <r>    6.7318    1.0000 </r>
       <r>    6.8632    1.0002 </r>
       <r>    8.2930   -0.0000 </r>
       <r>   10.8663   -0.0000 </r>
       <r>   15.6778    0.0000 </r>
       <r>   26.5102    0.0000 </r>
       <r>   30.8801    0.0000 </r>
       <r>   31.4424    0.0000 </r>
       <r>   32.0506    0.0000 </r>
       <r>   32.2937    0.0000 </r>
       <r>   36.5541    0.0000 </r>
       <r>   38.0858    0.0000 </r>
       <r>   38.5600    0.0000 </r>
       <r>   38.9394    0.0000 </r>
       <r>   42.3004    0.0000 </r>
       <r>   43.3157    0.0000 </r>
       <r>   45.9809    0.0000 </r>
       <r>   46.7228    0.0000 </r>
       <r>   48.0278    0.0000 </r>
       <r>   50.5285    0.0000 </r>
       <r>   52.2141    0.0000 </r>
       <r>   54.9737    0.0000 </r>
       <r>   55.8283    0.0000 </r>
       <r>   56.6522    0.0000 </r>
       <r>   57.7303    0.0000 </r>
       <r>   59.3321    0.0000 </r>
       <r>   60.0521    0.0000 </r>
       <r>   61.4941    0.0000 </r>
       <r>   63.2223    0.0000 </r>
       <r>   65.8108    0.0000 </r>
       <r>   66.0330    0.0000 </r>
       <r>   67.7975    0.0000 </r>
      </set>
      <set comment="kpoint 20">
       <r>    1.0001    1.0000 </r>
       <r>    3.3039    1.0000 </r>
       <r>    3.7656    1.0000 </r>
       <r>    4.8716    1.0000 </r>
       <r>    5.2359    1.0000 </r>
       <r>    6.0885    1.0000 </r>
       <r>    6.4360    1.0000 </r>
       <r>    6.9006    1.0006 </r>
       <r>    7.3613    0.7661 </r>
       <r>    7.5275    0.1318 </r>
       <r>    8.3158   -0.0000 </r>
       <r>   12.6312   -0.0000 </r>
       <r>   16.2085    0.0000 </r>
       <r>   22.4531    0.0000 </r>
       <r>   27.7182    0.0000 </r>
       <r>   28.9620    0.0000 </r>
       <r>   30.1924    0.0000 </r>
       <r>   32.4309    0.0000 </r>
       <r>   34.9897    0.0000 </r>
       <r>   37.1910    0.0000 </r>
       <r>   37.3843    0.0000 </r>
       <r>   39.7045    0.0000 </r>
       <r>   40.4378    0.0000 </r>
       <r>   43.6450    0.0000 </r>
       <r>   49.4693    0.0000 </r>
       <r>   50.4219    0.0000 </r>
       <r>   51.4325    0.0000 </r>
       <r>   51.4493    0.0000 </r>
       <r>   55.1551    0.0000 </r>
       <r>   55.4490    0.0000 </r>
       <r>   56.9543    0.0000 </r>
       <r>   58.5073    0.0000 </r>
       <r>   58.9294    0.0000 </r>
       <r>   59.3728    0.0000 </r>
       <r>   61.4291    0.0000 </r>
       <r>   62.5783    0.0000 </r>
       <r>   64.3574    0.0000 </r>
       <r>   66.2128    0.0000 </r>
       <r>   66.2764    0.0000 </r>
       <r>   67.9966    0.0000 </r>
      </set>
      <set comment="kpoint 21">
       <r>    2.1269    1.0000 </r>
       <r>    2.9779    1.0000 </r>
       <r>    3.3181    1.0000 </r>
       <r>    4.8154    1.0000 </r>
       <r>    5.7255    1.0000 </r>
       <r>    5.9363    1.0000 </r>
       <r>    6.1856    1.0000 </r>
       <r>    8.1374   -0.0000 </r>
       <r>    8.1723   -0.0000 </r>
       <r>    8.2095   -0.0000 </r>
       <r>    8.3851   -0.0000 </r>
       <r>   14.0517    0.0000 </r>
       <r>   16.8870    0.0000 </r>
       <r>   19.5047    0.0000 </r>
       <r>   24.4137    0.0000 </r>
       <r>   27.0670    0.0000 </r>
       <r>   27.4390    0.0000 </r>
       <r>   31.8345    0.0000 </r>
       <r>   34.0830    0.0000 </r>
       <r>   36.1284    0.0000 </r>
       <r>   38.0411    0.0000 </r>
       <r>   39.1966    0.0000 </r>
       <r>   41.0223    0.0000 </r>
       <r>   43.8743    0.0000 </r>
       <r>   49.1018    0.0000 </r>
       <r>   52.6067    0.0000 </r>
       <r>   53.2318    0.0000 </r>
       <r>   55.0169    0.0000 </r>
       <r>   55.6733    0.0000 </r>
       <r>   57.5483    0.0000 </r>
       <r>   58.3836    0.0000 </r>
       <r>   59.6690    0.0000 </r>
       <r>   60.8045    0.0000 </r>
       <r>   60.9270    0.0000 </r>
       <r>   62.9493    0.0000 </r>
       <r>   64.3651    0.0000 </r>
       <r>   65.7441    0.0000 </r>
       <r>   66.1425    0.0000 </r>
       <r>   68.0790    0.0000 </r>
       <r>   68.1959    0.0000 </r>
      </set>
      <set comment="kpoint 22">
       <r>    2.4914    1.0000 </r>
       <r>    2.6656    1.0000 </r>
       <r>    3.1874    1.0000 </r>
       <r>    4.8827    1.0000 </r>
       <r>    5.9156    1.0000 </r>
       <r>    6.0416    1.0000 </r>
       <r>    6.2901    1.0000 </r>
       <r>    8.2708   -0.0000 </r>
       <r>    8.6956   -0.0000 </r>
       <r>    8.8044   -0.0000 </r>
       <r>    9.8500   -0.0000 </r>
       <r>   13.2966    0.0000 </r>
       <r>   17.6484    0.0000 </r>
       <r>   19.3495    0.0000 </r>
       <r>   22.2052    0.0000 </r>
       <r>   24.6476    0.0000 </r>
       <r>   26.0052    0.0000 </r>
       <r>   31.2502    0.0000 </r>
       <r>   33.7675    0.0000 </r>
       <r>   35.2484    0.0000 </r>
       <r>   38.6943    0.0000 </r>
       <r>   39.6651    0.0000 </r>
       <r>   41.1923    0.0000 </r>
       <r>   44.5719    0.0000 </r>
       <r>   46.8871    0.0000 </r>
       <r>   53.1705    0.0000 </r>
       <r>   53.3149    0.0000 </r>
       <r>   56.7382    0.0000 </r>
       <r>   58.2063    0.0000 </r>
       <r>   59.4912    0.0000 </r>
       <r>   60.9375    0.0000 </r>
       <r>   61.2660    0.0000 </r>
       <r>   61.3929    0.0000 </r>
       <r>   63.1124    0.0000 </r>
       <r>   64.2129    0.0000 </r>
       <r>   65.2438    0.0000 </r>
       <r>   66.0975    0.0000 </r>
       <r>   67.3440    0.0000 </r>
       <r>   68.1823    0.0000 </r>
       <r>   68.4380    0.0000 </r>
      </set>
      <set comment="kpoint 23">
       <r>   -0.6517    1.0000 </r>
       <r>    2.8570    1.0000 </r>
       <r>    4.8299    1.0000 </r>
       <r>    4.9365    1.0000 </r>
       <r>    5.6302    1.0000 </r>
       <r>    5.7322    1.0000 </r>
       <r>    6.3530    1.0000 </r>
       <r>    6.5729    1.0000 </r>
       <r>    6.7299    1.0000 </r>
       <r>    7.0130    1.0062 </r>
       <r>    8.2507   -0.0000 </r>
       <r>   10.4075   -0.0000 </r>
       <r>   15.5975    0.0000 </r>
       <r>   28.2217    0.0000 </r>
       <r>   29.6330    0.0000 </r>
       <r>   31.4135    0.0000 </r>
       <r>   33.1117    0.0000 </r>
       <r>   35.3830    0.0000 </r>
       <r>   35.8493    0.0000 </r>
       <r>   36.1838    0.0000 </r>
       <r>   38.4743    0.0000 </r>
       <r>   42.7117    0.0000 </r>
       <r>   42.7167    0.0000 </r>
       <r>   43.6298    0.0000 </r>
       <r>   44.0001    0.0000 </r>
       <r>   45.2507    0.0000 </r>
       <r>   45.6816    0.0000 </r>
       <r>   50.8955    0.0000 </r>
       <r>   52.7194    0.0000 </r>
       <r>   53.7683    0.0000 </r>
       <r>   53.9955    0.0000 </r>
       <r>   56.9298    0.0000 </r>
       <r>   57.0948    0.0000 </r>
       <r>   59.9683    0.0000 </r>
       <r>   60.7031    0.0000 </r>
       <r>   61.7129    0.0000 </r>
       <r>   62.5660    0.0000 </r>
       <r>   65.5084    0.0000 </r>
       <r>   66.1464    0.0000 </r>
       <r>   67.6311    0.0000 </r>
      </set>
      <set comment="kpoint 24">
       <r>    0.5325    1.0000 </r>
       <r>    3.4550    1.0000 </r>
       <r>    4.0400    1.0000 </r>
       <r>    4.6436    1.0000 </r>
       <r>    5.3537    1.0000 </r>
       <r>    5.9019    1.0000 </r>
       <r>    6.3920    1.0000 </r>
       <r>    6.6619    1.0000 </r>
       <r>    7.1885    1.0353 </r>
       <r>    7.4272    0.5042 </r>
       <r>    8.2422   -0.0000 </r>
       <r>   12.0498   -0.0000 </r>
       <r>   16.0157    0.0000 </r>
       <r>   24.5322    0.0000 </r>
       <r>   27.2099    0.0000 </r>
       <r>   29.6589    0.0000 </r>
       <r>   31.6345    0.0000 </r>
       <r>   33.1794    0.0000 </r>
       <r>   34.8343    0.0000 </r>
       <r>   36.3919    0.0000 </r>
       <r>   37.6775    0.0000 </r>
       <r>   41.4784    0.0000 </r>
       <r>   42.3912    0.0000 </r>
       <r>   43.9060    0.0000 </r>
       <r>   46.2959    0.0000 </r>
       <r>   47.2131    0.0000 </r>
       <r>   49.5626    0.0000 </r>
       <r>   52.5818    0.0000 </r>
       <r>   54.8441    0.0000 </r>
       <r>   55.8280    0.0000 </r>
       <r>   56.7648    0.0000 </r>
       <r>   58.1639    0.0000 </r>
       <r>   58.3714    0.0000 </r>
       <r>   59.9027    0.0000 </r>
       <r>   60.1367    0.0000 </r>
       <r>   61.4181    0.0000 </r>
       <r>   63.4470    0.0000 </r>
       <r>   66.1645    0.0000 </r>
       <r>   66.6868    0.0000 </r>
       <r>   67.6686    0.0000 </r>
      </set>
      <set comment="kpoint 25">
       <r>    1.8707    1.0000 </r>
       <r>    3.3455    1.0000 </r>
       <r>    3.5067    1.0000 </r>
       <r>    4.6904    1.0000 </r>
       <r>    5.3970    1.0000 </r>
       <r>    5.8015    1.0000 </r>
       <r>    6.3126    1.0000 </r>
       <r>    7.0277    1.0079 </r>
       <r>    7.9772   -0.0004 </r>
       <r>    8.1459   -0.0000 </r>
       <r>    8.4956   -0.0000 </r>
       <r>   13.7200    0.0000 </r>
       <r>   16.8232    0.0000 </r>
       <r>   20.7713    0.0000 </r>
       <r>   25.4258    0.0000 </r>
       <r>   26.2573    0.0000 </r>
       <r>   29.7137    0.0000 </r>
       <r>   30.8352    0.0000 </r>
       <r>   35.3221    0.0000 </r>
       <r>   35.8745    0.0000 </r>
       <r>   37.1478    0.0000 </r>
       <r>   40.8879    0.0000 </r>
       <r>   42.2929    0.0000 </r>
       <r>   44.9690    0.0000 </r>
       <r>   48.1038    0.0000 </r>
       <r>   49.8505    0.0000 </r>
       <r>   51.9165    0.0000 </r>
       <r>   53.7835    0.0000 </r>
       <r>   54.9302    0.0000 </r>
       <r>   56.2229    0.0000 </r>
       <r>   58.2108    0.0000 </r>
       <r>   59.8127    0.0000 </r>
       <r>   60.1690    0.0000 </r>
       <r>   61.1876    0.0000 </r>
       <r>   62.4849    0.0000 </r>
       <r>   63.7418    0.0000 </r>
       <r>   65.6428    0.0000 </r>
       <r>   66.5300    0.0000 </r>
       <r>   66.7485    0.0000 </r>
       <r>   67.7417    0.0000 </r>
      </set>
      <set comment="kpoint 26">
       <r>    2.5936    1.0000 </r>
       <r>    2.9663    1.0000 </r>
       <r>    3.3127    1.0000 </r>
       <r>    4.7939    1.0000 </r>
       <r>    5.7839    1.0000 </r>
       <r>    5.8363    1.0000 </r>
       <r>    6.1000    1.0000 </r>
       <r>    7.9898   -0.0003 </r>
       <r>    8.1553   -0.0000 </r>
       <r>    8.5390   -0.0000 </r>
       <r>    9.7012   -0.0000 </r>
       <r>   14.4174    0.0000 </r>
       <r>   17.3243    0.0000 </r>
       <r>   19.3964    0.0000 </r>
       <r>   23.1274    0.0000 </r>
       <r>   24.2548    0.0000 </r>
       <r>   26.5140    0.0000 </r>
       <r>   29.9134    0.0000 </r>
       <r>   34.4325    0.0000 </r>
       <r>   35.8536    0.0000 </r>
       <r>   38.0407    0.0000 </r>
       <r>   40.5477    0.0000 </r>
       <r>   43.2032    0.0000 </r>
       <r>   44.5035    0.0000 </r>
       <r>   48.4174    0.0000 </r>
       <r>   50.9601    0.0000 </r>
       <r>   52.8549    0.0000 </r>
       <r>   55.0105    0.0000 </r>
       <r>   56.8043    0.0000 </r>
       <r>   57.9445    0.0000 </r>
       <r>   59.2243    0.0000 </r>
       <r>   60.7078    0.0000 </r>
       <r>   61.5184    0.0000 </r>
       <r>   63.4869    0.0000 </r>
       <r>   64.7848    0.0000 </r>
       <r>   65.3224    0.0000 </r>
       <r>   65.5987    0.0000 </r>
       <r>   66.6804    0.0000 </r>
       <r>   67.7494    0.0000 </r>
       <r>   69.2214    0.0000 </r>
      </set>
      <set comment="kpoint 27">
       <r>    2.6916    1.0000 </r>
       <r>    2.7898    1.0000 </r>
       <r>    3.3045    1.0000 </r>
       <r>    4.8645    1.0000 </r>
       <r>    5.7585    1.0000 </r>
       <r>    6.0983    1.0000 </r>
       <r>    6.1129    1.0000 </r>
       <r>    8.1446   -0.0000 </r>
       <r>    8.5688   -0.0000 </r>
       <r>    8.6035   -0.0000 </r>
       <r>   10.9192   -0.0000 </r>
       <r>   13.1400    0.0000 </r>
       <r>   18.4641    0.0000 </r>
       <r>   19.3411    0.0000 </r>
       <r>   22.2511    0.0000 </r>
       <r>   23.3005    0.0000 </r>
       <r>   24.9144    0.0000 </r>
       <r>   29.5924    0.0000 </r>
       <r>   34.0178    0.0000 </r>
       <r>   35.7482    0.0000 </r>
       <r>   38.6928    0.0000 </r>
       <r>   40.5399    0.0000 </r>
       <r>   42.9708    0.0000 </r>
       <r>   45.7265    0.0000 </r>
       <r>   46.4955    0.0000 </r>
       <r>   51.4909    0.0000 </r>
       <r>   53.3745    0.0000 </r>
       <r>   55.9107    0.0000 </r>
       <r>   58.3360    0.0000 </r>
       <r>   58.5026    0.0000 </r>
       <r>   61.1797    0.0000 </r>
       <r>   61.3134    0.0000 </r>
       <r>   61.6806    0.0000 </r>
       <r>   62.5990    0.0000 </r>
       <r>   63.5760    0.0000 </r>
       <r>   66.9494    0.0000 </r>
       <r>   67.0326    0.0000 </r>
       <r>   67.6706    0.0000 </r>
       <r>   67.8560    0.0000 </r>
       <r>   69.3341    0.0000 </r>
      </set>
      <set comment="kpoint 28">
       <r>    1.8006    1.0000 </r>
       <r>    3.5775    1.0000 </r>
       <r>    3.9648    1.0000 </r>
       <r>    4.1661    1.0000 </r>
       <r>    5.4425    1.0000 </r>
       <r>    5.5550    1.0000 </r>
       <r>    6.4212    1.0000 </r>
       <r>    6.5270    1.0000 </r>
       <r>    7.9693   -0.0004 </r>
       <r>    8.0434   -0.0001 </r>
       <r>    8.5662   -0.0000 </r>
       <r>   13.5985    0.0000 </r>
       <r>   16.8420    0.0000 </r>
       <r>   22.5106    0.0000 </r>
       <r>   23.3456    0.0000 </r>
       <r>   27.7765    0.0000 </r>
       <r>   29.1559    0.0000 </r>
       <r>   32.2086    0.0000 </r>
       <r>   32.7146    0.0000 </r>
       <r>   35.9050    0.0000 </r>
       <r>   39.3949    0.0000 </r>
       <r>   43.2237    0.0000 </r>
       <r>   43.4636    0.0000 </r>
       <r>   45.2194    0.0000 </r>
       <r>   45.6362    0.0000 </r>
       <r>   49.0002    0.0000 </r>
       <r>   49.2947    0.0000 </r>
       <r>   53.8216    0.0000 </r>
       <r>   54.5710    0.0000 </r>
       <r>   56.0190    0.0000 </r>
       <r>   58.1599    0.0000 </r>
       <r>   60.1817    0.0000 </r>
       <r>   60.2535    0.0000 </r>
       <r>   62.1783    0.0000 </r>
       <r>   62.4085    0.0000 </r>
       <r>   63.8623    0.0000 </r>
       <r>   64.1658    0.0000 </r>
       <r>   66.6657    0.0000 </r>
       <r>   66.9608    0.0000 </r>
       <r>   67.2068    0.0000 </r>
      </set>
      <set comment="kpoint 29">
       <r>    2.9385    1.0000 </r>
       <r>    3.3484    1.0000 </r>
       <r>    3.6428    1.0000 </r>
       <r>    4.3861    1.0000 </r>
       <r>    5.3519    1.0000 </r>
       <r>    5.7298    1.0000 </r>
       <r>    6.0455    1.0000 </r>
       <r>    7.0813    1.0171 </r>
       <r>    7.9537   -0.0006 </r>
       <r>    8.4791   -0.0000 </r>
       <r>    9.8977   -0.0000 </r>
       <r>   15.1948    0.0000 </r>
       <r>   17.9294    0.0000 </r>
       <r>   19.6325    0.0000 </r>
       <r>   21.6665    0.0000 </r>
       <r>   25.0617    0.0000 </r>
       <r>   27.5384    0.0000 </r>
       <r>   28.7145    0.0000 </r>
       <r>   31.5723    0.0000 </r>
       <r>   37.5200    0.0000 </r>
       <r>   40.1330    0.0000 </r>
       <r>   43.0482    0.0000 </r>
       <r>   44.6498    0.0000 </r>
       <r>   46.5449    0.0000 </r>
       <r>   47.3065    0.0000 </r>
       <r>   48.4733    0.0000 </r>
       <r>   51.6378    0.0000 </r>
       <r>   52.0777    0.0000 </r>
       <r>   54.7562    0.0000 </r>
       <r>   57.0269    0.0000 </r>
       <r>   58.7041    0.0000 </r>
       <r>   60.9012    0.0000 </r>
       <r>   61.8966    0.0000 </r>
       <r>   63.2724    0.0000 </r>
       <r>   65.0276    0.0000 </r>
       <r>   65.5514    0.0000 </r>
       <r>   66.2150    0.0000 </r>
       <r>   67.4335    0.0000 </r>
       <r>   68.1032    0.0000 </r>
       <r>   68.9930    0.0000 </r>
      </set>
      <set comment="kpoint 30">
       <r>    3.0555    1.0000 </r>
       <r>    3.3322    1.0000 </r>
       <r>    3.6250    1.0000 </r>
       <r>    4.6838    1.0000 </r>
       <r>    5.4415    1.0000 </r>
       <r>    5.6079    1.0000 </r>
       <r>    6.1421    1.0000 </r>
       <r>    7.8183   -0.0093 </r>
       <r>    7.8904   -0.0026 </r>
       <r>    8.4645   -0.0000 </r>
       <r>   11.5646   -0.0000 </r>
       <r>   14.5908    0.0000 </r>
       <r>   18.4948    0.0000 </r>
       <r>   20.1988    0.0000 </r>
       <r>   20.6148    0.0000 </r>
       <r>   22.8563    0.0000 </r>
       <r>   25.6540    0.0000 </r>
       <r>   26.9125    0.0000 </r>
       <r>   30.9651    0.0000 </r>
       <r>   38.7950    0.0000 </r>
       <r>   40.5292    0.0000 </r>
       <r>   42.1477    0.0000 </r>
       <r>   45.3367    0.0000 </r>
       <r>   46.2174    0.0000 </r>
       <r>   48.7878    0.0000 </r>
       <r>   49.1083    0.0000 </r>
       <r>   51.9466    0.0000 </r>
       <r>   53.4141    0.0000 </r>
       <r>   56.4095    0.0000 </r>
       <r>   57.0851    0.0000 </r>
       <r>   58.1462    0.0000 </r>
       <r>   60.9804    0.0000 </r>
       <r>   61.3126    0.0000 </r>
       <r>   62.4462    0.0000 </r>
       <r>   66.0470    0.0000 </r>
       <r>   66.4154    0.0000 </r>
       <r>   67.6622    0.0000 </r>
       <r>   68.1603    0.0000 </r>
       <r>   68.5145    0.0000 </r>
       <r>   69.0443    0.0000 </r>
      </set>
      <set comment="kpoint 31">
       <r>    3.3269    1.0000 </r>
       <r>    3.7528    1.0000 </r>
       <r>    4.0229    1.0000 </r>
       <r>    4.1496    1.0000 </r>
       <r>    5.2170    1.0000 </r>
       <r>    5.5137    1.0000 </r>
       <r>    6.1020    1.0000 </r>
       <r>    7.3716    0.7288 </r>
       <r>    7.7600   -0.0204 </r>
       <r>    8.4331   -0.0000 </r>
       <r>   11.7347   -0.0000 </r>
       <r>   16.4569    0.0000 </r>
       <r>   17.5355    0.0000 </r>
       <r>   19.0387    0.0000 </r>
       <r>   20.8632    0.0000 </r>
       <r>   24.4051    0.0000 </r>
       <r>   24.4453    0.0000 </r>
       <r>   27.5706    0.0000 </r>
       <r>   28.3657    0.0000 </r>
       <r>   39.2641    0.0000 </r>
       <r>   42.4136    0.0000 </r>
       <r>   44.9374    0.0000 </r>
       <r>   45.2555    0.0000 </r>
       <r>   47.3814    0.0000 </r>
       <r>   47.4772    0.0000 </r>
       <r>   48.9257    0.0000 </r>
       <r>   51.1984    0.0000 </r>
       <r>   52.8153    0.0000 </r>
       <r>   53.1446    0.0000 </r>
       <r>   57.3010    0.0000 </r>
       <r>   57.8624    0.0000 </r>
       <r>   60.1689    0.0000 </r>
       <r>   61.1935    0.0000 </r>
       <r>   62.5479    0.0000 </r>
       <r>   66.2017    0.0000 </r>
       <r>   66.9283    0.0000 </r>
       <r>   67.1584    0.0000 </r>
       <r>   68.6566    0.0000 </r>
       <r>   68.9148    0.0000 </r>
       <r>   69.9414    0.0000 </r>
      </set>
      <set comment="kpoint 32">
       <r>    3.3751    1.0000 </r>
       <r>    3.8910    1.0000 </r>
       <r>    3.9847    1.0000 </r>
       <r>    4.4083    1.0000 </r>
       <r>    5.2021    1.0000 </r>
       <r>    5.2774    1.0000 </r>
       <r>    6.2441    1.0000 </r>
       <r>    7.6850   -0.0350 </r>
       <r>    7.7632   -0.0196 </r>
       <r>    8.0930   -0.0000 </r>
       <r>   13.5790    0.0000 </r>
       <r>   14.8614    0.0000 </r>
       <r>   17.0823    0.0000 </r>
       <r>   20.7444    0.0000 </r>
       <r>   20.8257    0.0000 </r>
       <r>   23.0437    0.0000 </r>
       <r>   24.4188    0.0000 </r>
       <r>   25.6913    0.0000 </r>
       <r>   27.7942    0.0000 </r>
       <r>   40.1855    0.0000 </r>
       <r>   42.8527    0.0000 </r>
       <r>   44.7933    0.0000 </r>
       <r>   45.4672    0.0000 </r>
       <r>   47.5698    0.0000 </r>
       <r>   48.2919    0.0000 </r>
       <r>   50.0522    0.0000 </r>
       <r>   51.8665    0.0000 </r>
       <r>   52.7962    0.0000 </r>
       <r>   53.1907    0.0000 </r>
       <r>   56.0129    0.0000 </r>
       <r>   57.3256    0.0000 </r>
       <r>   58.4306    0.0000 </r>
       <r>   61.2726    0.0000 </r>
       <r>   61.5984    0.0000 </r>
       <r>   66.2219    0.0000 </r>
       <r>   67.3138    0.0000 </r>
       <r>   68.4066    0.0000 </r>
       <r>   68.7853    0.0000 </r>
       <r>   69.4566    0.0000 </r>
       <r>   69.6590    0.0000 </r>
      </set>
      <set comment="kpoint 33">
       <r>   -1.4098    1.0000 </r>
       <r>    2.0106    1.0000 </r>
       <r>    4.9396    1.0000 </r>
       <r>    5.7270    1.0000 </r>
       <r>    5.7270    1.0000 </r>
       <r>    5.8510    1.0000 </r>
       <r>    6.0043    1.0000 </r>
       <r>    6.0044    1.0000 </r>
       <r>    7.2738    0.9825 </r>
       <r>    7.2738    0.9824 </r>
       <r>    8.1836   -0.0000 </r>
       <r>    8.1837   -0.0000 </r>
       <r>   16.4022    0.0000 </r>
[...]
       <r>   22.7996    0.0000 </r>
       <r>   23.5389    0.0000 </r>
       <r>   27.7045    0.0000 </r>
       <r>   28.8171    0.0000 </r>
       <r>   33.5029    0.0000 </r>
       <r>   34.5752    0.0000 </r>
       <r>   36.9543    0.0000 </r>
       <r>   38.5078    0.0000 </r>
       <r>   43.6672    0.0000 </r>
       <r>   44.0510    0.0000 </r>
       <r>   53.4050    0.0000 </r>
       <r>   54.0591    0.0000 </r>
       <r>   54.2896    0.0000 </r>
       <r>   55.8096    0.0000 </r>
       <r>   57.9555    0.0000 </r>
       <r>   58.5430    0.0000 </r>
       <r>   58.8909    0.0000 </r>
       <r>   59.8925    0.0000 </r>
       <r>   62.0456    0.0000 </r>
       <r>   62.4635    0.0000 </r>
       <r>   64.4813    0.0000 </r>
       <r>   64.7493    0.0000 </r>
       <r>   66.5007    0.0000 </r>
       <r>   66.6085    0.0000 </r>
       <r>   67.5543    0.0000 </r>
       <r>   68.1541    0.0000 </r>
      </set>
      <set comment="kpoint 95">
       <r>    3.3514    1.0000 </r>
       <r>    3.4141    1.0000 </r>
       <r>    4.3734    1.0000 </r>
       <r>    4.5975    1.0000 </r>
       <r>    5.0207    1.0000 </r>
       <r>    5.2361    1.0000 </r>
       <r>    6.4738    1.0000 </r>
       <r>    6.6805    1.0000 </r>
       <r>    8.2644   -0.0000 </r>
       <r>    8.4623   -0.0000 </r>
       <r>   12.6433   -0.0000 </r>
       <r>   13.1675    0.0000 </r>
       <r>   19.0473    0.0000 </r>
       <r>   19.4814    0.0000 </r>
       <r>   20.9268    0.0000 </r>
       <r>   21.3318    0.0000 </r>
       <r>   27.8873    0.0000 </r>
       <r>   29.4956    0.0000 </r>
       <r>   33.5714    0.0000 </r>
       <r>   34.9659    0.0000 </r>
       <r>   36.6695    0.0000 </r>
       <r>   37.7971    0.0000 </r>
       <r>   46.0143    0.0000 </r>
       <r>   46.4373    0.0000 </r>
       <r>   50.3962    0.0000 </r>
       <r>   50.4812    0.0000 </r>
       <r>   56.3437    0.0000 </r>
       <r>   57.5848    0.0000 </r>
       <r>   58.1477    0.0000 </r>
       <r>   58.5362    0.0000 </r>
       <r>   60.2859    0.0000 </r>
       <r>   60.2997    0.0000 </r>
       <r>   60.8120    0.0000 </r>
       <r>   60.8628    0.0000 </r>
       <r>   63.2902    0.0000 </r>
       <r>   63.9763    0.0000 </r>
       <r>   66.3532    0.0000 </r>
       <r>   66.3598    0.0000 </r>
       <r>   67.2401    0.0000 </r>
       <r>   67.3625    0.0000 </r>
      </set>
      <set comment="kpoint 96">
       <r>    3.5689    1.0000 </r>
       <r>    3.7040    1.0000 </r>
       <r>    4.3064    1.0000 </r>
       <r>    4.4005    1.0000 </r>
       <r>    5.0212    1.0000 </r>
       <r>    5.1569    1.0000 </r>
       <r>    6.5262    1.0000 </r>
       <r>    6.6822    1.0000 </r>
       <r>    8.2441   -0.0000 </r>
       <r>    8.3153   -0.0000 </r>
       <r>   14.5204    0.0000 </r>
       <r>   14.6638    0.0000 </r>
       <r>   17.3250    0.0000 </r>
       <r>   17.6656    0.0000 </r>
       <r>   20.2714    0.0000 </r>
       <r>   20.7141    0.0000 </r>
       <r>   29.6010    0.0000 </r>
       <r>   30.3785    0.0000 </r>
       <r>   32.6321    0.0000 </r>
       <r>   32.9125    0.0000 </r>
       <r>   36.3984    0.0000 </r>
       <r>   37.2249    0.0000 </r>
       <r>   47.2289    0.0000 </r>
       <r>   47.8690    0.0000 </r>
       <r>   52.0150    0.0000 </r>
       <r>   52.4250    0.0000 </r>
       <r>   54.7862    0.0000 </r>
       <r>   55.1600    0.0000 </r>
       <r>   57.9031    0.0000 </r>
       <r>   58.7054    0.0000 </r>
       <r>   60.2574    0.0000 </r>
       <r>   60.8305    0.0000 </r>
       <r>   61.1406    0.0000 </r>
       <r>   61.7279    0.0000 </r>
       <r>   62.5859    0.0000 </r>
       <r>   63.8175    0.0000 </r>
       <r>   65.3570    0.0000 </r>
       <r>   66.0474    0.0000 </r>
       <r>   68.8472    0.0000 </r>
       <r>   69.0529    0.0000 </r>
      </set>
     </set>
    </set>
   </array>
  </eigenvalues>
  <separator name="orbital magnetization" >
   <v name="MAGDIPOLOUT">      0.00000000      0.00000000      0.00000000</v>
  </separator>
  <dos>
   <i name="efermi">      7.42814557 </i>
   <total>
    <array>
     <dimension dim="1">gridpoints</dimension>
     <dimension dim="2">spin</dimension>
     <field>energy</field>
     <field>total</field>
     <field>integrated</field>
     <set>
      <set comment="spin 1">
       <r>    -5.3463     0.0000     0.0000 </r>
       <r>    -5.0813     0.0000     0.0000 </r>
       <r>    -4.8163     0.0000     0.0000 </r>
       <r>    -4.5513     0.0000     0.0000 </r>
       <r>    -4.2863     0.0000     0.0000 </r>
       <r>    -4.0213     0.0000     0.0000 </r>
       <r>    -3.7563     0.0000     0.0000 </r>
       <r>    -3.4914    -0.0000    -0.0000 </r>
       <r>    -3.2264    -0.0000    -0.0000 </r>
       <r>    -2.9614    -0.0000    -0.0000 </r>
       <r>    -2.6964    -0.0000    -0.0000 </r>
       <r>    -2.4314    -0.0000    -0.0000 </r>
       <r>    -2.1664    -0.0000    -0.0000 </r>
       <r>    -1.9014    -0.0004    -0.0001 </r>
       <r>    -1.6364     0.0087     0.0022 </r>
       <r>    -1.3714     0.0509     0.0157 </r>
       <r>    -1.1064     0.0999     0.0421 </r>
       <r>    -0.8414     0.0561     0.0570 </r>
       <r>    -0.5764     0.1455     0.0955 </r>
       <r>    -0.3114     0.1703     0.1407 </r>
       <r>    -0.0464     0.1941     0.1921 </r>
       <r>     0.2186     0.0824     0.2139 </r>
       <r>     0.4836     0.2206     0.2724 </r>
       <r>     0.7486     0.3040     0.3529 </r>
       <r>     1.0136     0.2866     0.4289 </r>
       <r>     1.2786     0.3150     0.5123 </r>
       <r>     1.5436     0.2226     0.5713 </r>
       <r>     1.8086     0.3988     0.6770 </r>
       <r>     2.0736     0.8071     0.8909 </r>
       <r>     2.3386     1.2707     1.2276 </r>
       <r>     2.6036     1.7183     1.6830 </r>
       <r>     2.8686     2.3103     2.2952 </r>
       <r>     3.1336     2.5415     2.9687 </r>
       <r>     3.3986     2.6519     3.6714 </r>
       <r>     3.6636     2.3069     4.2828 </r>
       <r>     3.9286     2.5970     4.9710 </r>
       <r>     4.1936     3.0662     5.7835 </r>
       <r>     4.4586     3.1114     6.6080 </r>
       <r>     4.7236     2.6398     7.3076 </r>
       <r>     4.9886     2.1920     7.8884 </r>
       <r>     5.2536     2.7281     8.6114 </r>
       <r>     5.5186     3.9301     9.6529 </r>
       <r>     5.7836     3.5015    10.5808 </r>
       <r>     6.0486     3.7072    11.5632 </r>
       <r>     6.3136     3.2507    12.4246 </r>
       <r>     6.5786     3.5906    13.3761 </r>
       <r>     6.8436     3.0848    14.1936 </r>
       <r>     7.1086     3.1278    15.0224 </r>
       <r>     7.3736     3.1328    15.8526 </r>
       <r>     7.6386     2.5465    16.5274 </r>
       <r>     7.9036     3.4698    17.4469 </r>
       <r>     8.1686     4.6770    18.6863 </r>
       <r>     8.4336     4.3575    19.8410 </r>
       <r>     8.6986     4.0427    20.9123 </r>
       <r>     8.9636     1.2703    21.2490 </r>
       <r>     9.2286     0.1460    21.2877 </r>
       <r>     9.4936     0.5636    21.4370 </r>
       <r>     9.7586     0.7252    21.6292 </r>
       <r>    10.0236     0.7260    21.8216 </r>
       <r>    10.2886     0.6557    21.9953 </r>
       <r>    10.5536     0.5103    22.1306 </r>
       <r>    10.8186     0.3296    22.2179 </r>
       <r>    11.0836     0.3977    22.3233 </r>
       <r>    11.3486     0.4025    22.4300 </r>
       <r>    11.6136     0.5515    22.5761 </r>
       <r>    11.8786     0.5987    22.7348 </r>
       <r>    12.1436     0.4309    22.8489 </r>
       <r>    12.4086     0.3834    22.9506 </r>
       <r>    12.6736     0.5203    23.0884 </r>
       <r>    12.9386     0.3609    23.1841 </r>
       <r>    13.2036     0.2133    23.2406 </r>
       <r>    13.4686     0.3355    23.3295 </r>
       <r>    13.7336     0.3660    23.4265 </r>
       <r>    13.9986     0.4152    23.5365 </r>
       <r>    14.2636     0.2046    23.5907 </r>
       <r>    14.5286     0.3280    23.6777 </r>
       <r>    14.7936     0.5119    23.8133 </r>
       <r>    15.0586     0.3474    23.9054 </r>
       <r>    15.3236     0.2536    23.9726 </r>
       <r>    15.5886     0.2491    24.0386 </r>
       <r>    15.8536     0.2411    24.1025 </r>
       <r>    16.1186     0.1324    24.1375 </r>
       <r>    16.3836     0.1236    24.1703 </r>
       <r>    16.6485     0.1754    24.2168 </r>
       <r>    16.9135     0.3837    24.3185 </r>
       <r>    17.1785     0.4169    24.4289 </r>
       <r>    17.4435     0.4154    24.5390 </r>
       <r>    17.7085     0.8749    24.7709 </r>
       <r>    17.9735     0.9016    25.0098 </r>
       <r>    18.2385     0.6606    25.1848 </r>
       <r>    18.5035     0.7463    25.3826 </r>
       <r>    18.7685     0.4141    25.4923 </r>
       <r>    19.0335     0.6028    25.6521 </r>
       <r>    19.2985     0.6847    25.8335 </r>
       <r>    19.5635     0.8695    26.0639 </r>
       <r>    19.8285     0.6305    26.2310 </r>
       <r>    20.0935     0.7591    26.4322 </r>
       <r>    20.3585     0.7761    26.6379 </r>
       <r>    20.6235     0.3828    26.7393 </r>
       <r>    20.8885     0.7770    26.9452 </r>
       <r>    21.1535     0.6412    27.1151 </r>
       <r>    21.4185     0.6668    27.2918 </r>
       <r>    21.6835     0.6148    27.4548 </r>
       <r>    21.9485     0.4328    27.5694 </r>
       <r>    22.2135     0.7535    27.7691 </r>
       <r>    22.4785     0.3775    27.8692 </r>
       <r>    22.7435     0.5884    28.0251 </r>
       <r>    23.0085     0.8245    28.2436 </r>
       <r>    23.2735     0.4752    28.3695 </r>
       <r>    23.5385     0.7646    28.5721 </r>
       <r>    23.8035     0.6054    28.7325 </r>
       <r>    24.0685     0.5573    28.8802 </r>
       <r>    24.3335     0.6990    29.0655 </r>
       <r>    24.5985     1.3563    29.4249 </r>
       <r>    24.8635     0.8650    29.6541 </r>
       <r>    25.1285     0.6725    29.8323 </r>
       <r>    25.3935     0.9449    30.0827 </r>
       <r>    25.6585     0.6696    30.2602 </r>
       <r>    25.9235     0.6612    30.4354 </r>
       <r>    26.1885     1.0373    30.7103 </r>
       <r>    26.4535     0.9538    30.9630 </r>
       <r>    26.7185     1.1213    31.2602 </r>
       <r>    26.9835     0.7951    31.4708 </r>
       <r>    27.2485     0.7563    31.6713 </r>
       <r>    27.5135     1.1333    31.9716 </r>
       <r>    27.7785     0.9995    32.2365 </r>
       <r>    28.0435     1.1606    32.5440 </r>
       <r>    28.3085     0.6361    32.7126 </r>
       <r>    28.5735     0.5787    32.8659 </r>
       <r>    28.8385     0.8934    33.1027 </r>
       <r>    29.1035     1.0363    33.3773 </r>
       <r>    29.3685     0.6189    33.5413 </r>
       <r>    29.6335     0.9078    33.7819 </r>
       <r>    29.8985     1.1119    34.0766 </r>
       <r>    30.1635     0.6312    34.2438 </r>
       <r>    30.4285     0.5083    34.3785 </r>
       <r>    30.6935     0.7570    34.5791 </r>
       <r>    30.9585     0.7319    34.7731 </r>
       <r>    31.2235     0.5013    34.9059 </r>
       <r>    31.4885     0.6091    35.0673 </r>
       <r>    31.7535     0.8624    35.2958 </r>
       <r>    32.0185     0.8487    35.5207 </r>
       <r>    32.2835     0.6068    35.6815 </r>
       <r>    32.5485     0.7481    35.8798 </r>
       <r>    32.8135     0.6027    36.0395 </r>
       <r>    33.0785     0.7078    36.2271 </r>
       <r>    33.3435     0.8890    36.4626 </r>
       <r>    33.6085     0.8302    36.6826 </r>
       <r>    33.8735     0.7210    36.8737 </r>
       <r>    34.1385     0.7354    37.0686 </r>
       <r>    34.4035     0.7331    37.2629 </r>
       <r>    34.6685     0.6144    37.4257 </r>
       <r>    34.9335     0.8516    37.6514 </r>
       <r>    35.1985     0.9742    37.9095 </r>
       <r>    35.4635     1.0756    38.1946 </r>
       <r>    35.7285     0.5814    38.3486 </r>
       <r>    35.9935     1.1088    38.6425 </r>
       <r>    36.2585     0.8792    38.8755 </r>
       <r>    36.5235     1.1684    39.1851 </r>
       <r>    36.7884     0.6045    39.3453 </r>
       <r>    37.0534     0.8580    39.5726 </r>
       <r>    37.3184     1.6757    40.0167 </r>
       <r>    37.5834     0.8780    40.2494 </r>
       <r>    37.8484     0.9335    40.4967 </r>
       <r>    38.1134     1.0223    40.7676 </r>
       <r>    38.3784     0.6965    40.9522 </r>
       <r>    38.6434     0.8920    41.1886 </r>
       <r>    38.9084     0.5837    41.3433 </r>
       <r>    39.1734     0.6055    41.5037 </r>
       <r>    39.4384     0.5873    41.6594 </r>
       <r>    39.7034     0.9670    41.9156 </r>
       <r>    39.9684     0.6535    42.0888 </r>
       <r>    40.2334     0.5987    42.2475 </r>
       <r>    40.4984     0.7786    42.4538 </r>
       <r>    40.7634     1.2417    42.7828 </r>
       <r>    41.0284     1.0893    43.0715 </r>
       <r>    41.2934     0.6318    43.2389 </r>
       <r>    41.5584     0.8294    43.4587 </r>
       <r>    41.8234     0.8365    43.6804 </r>
       <r>    42.0884     0.4999    43.8128 </r>
       <r>    42.3534     1.0364    44.0875 </r>
       <r>    42.6184     0.5547    44.2344 </r>
       <r>    42.8834     1.0377    44.5094 </r>
       <r>    43.1484     1.1258    44.8078 </r>
       <r>    43.4134     1.2919    45.1501 </r>
       <r>    43.6784     0.7561    45.3505 </r>
       <r>    43.9434     1.2506    45.6819 </r>
       <r>    44.2084     0.9581    45.9358 </r>
       <r>    44.4734     0.6928    46.1194 </r>
       <r>    44.7384     1.1068    46.4127 </r>
       <r>    45.0034     1.1118    46.7073 </r>
       <r>    45.2684     1.2292    47.0331 </r>
       <r>    45.5334     1.2751    47.3710 </r>
       <r>    45.7984     0.9667    47.6271 </r>
       <r>    46.0634     1.0366    47.9018 </r>
       <r>    46.3284     1.0375    48.1768 </r>
       <r>    46.5934     0.9657    48.4327 </r>
       <r>    46.8584     0.8725    48.6639 </r>
       <r>    47.1234     0.8717    48.8949 </r>
       <r>    47.3884     1.0741    49.1795 </r>
       <r>    47.6534     0.7190    49.3700 </r>
       <r>    47.9184     0.4596    49.4918 </r>
       <r>    48.1834     0.7103    49.6800 </r>
       <r>    48.4484     1.1086    49.9738 </r>
       <r>    48.7134     1.2999    50.3183 </r>
       <r>    48.9784     0.9041    50.5579 </r>
       <r>    49.2434     0.9314    50.8047 </r>
       <r>    49.5084     0.8489    51.0296 </r>
       <r>    49.7734     1.1268    51.3282 </r>
       <r>    50.0384     1.0162    51.5975 </r>
       <r>    50.3034     0.8123    51.8128 </r>
       <r>    50.5684     1.2093    52.1332 </r>
       <r>    50.8334     1.1080    52.4269 </r>
       <r>    51.0984     0.9634    52.6822 </r>
       <r>    51.3634     0.4130    52.7916 </r>
       <r>    51.6284     1.0682    53.0747 </r>
       <r>    51.8934     1.6178    53.5034 </r>
       <r>    52.1584     1.6335    53.9362 </r>
       <r>    52.4234     0.9563    54.1897 </r>
       <r>    52.6884     1.1675    54.4990 </r>
       <r>    52.9534     1.3466    54.8559 </r>
       <r>    53.2184     0.6785    55.0357 </r>
       <r>    53.4834     0.9670    55.2919 </r>
       <r>    53.7484     1.4524    55.6768 </r>
       <r>    54.0134     1.0027    55.9425 </r>
       <r>    54.2784     0.7467    56.1404 </r>
       <r>    54.5434     0.8933    56.3771 </r>
       <r>    54.8084     1.1267    56.6757 </r>
       <r>    55.0734     1.5301    57.0812 </r>
       <r>    55.3384     1.2281    57.4066 </r>
       <r>    55.6034     1.2836    57.7468 </r>
       <r>    55.8684     1.1261    58.0452 </r>
       <r>    56.1334     1.0243    58.3166 </r>
       <r>    56.3984     1.4964    58.7132 </r>
       <r>    56.6634     1.5674    59.1285 </r>
       <r>    56.9283     1.3656    59.4904 </r>
       <r>    57.1933     1.1569    59.7970 </r>
       <r>    57.4583     0.9104    60.0382 </r>
       <r>    57.7233     0.8520    60.2640 </r>
       <r>    57.9883     1.3035    60.6095 </r>
       <r>    58.2533     2.3217    61.2247 </r>
       <r>    58.5183     2.2586    61.8232 </r>
       <r>    58.7833     1.6005    62.2474 </r>
       <r>    59.0483     1.0881    62.5357 </r>
       <r>    59.3133     1.0694    62.8191 </r>
       <r>    59.5783     1.7273    63.2768 </r>
       <r>    59.8433     1.7097    63.7299 </r>
       <r>    60.1083     2.0733    64.2793 </r>
       <r>    60.3733     1.8295    64.7642 </r>
       <r>    60.6383     1.9196    65.2729 </r>
       <r>    60.9033     2.1454    65.8414 </r>
       <r>    61.1683     2.1426    66.4092 </r>
       <r>    61.4333     1.7430    66.8711 </r>
       <r>    61.6983     1.6997    67.3215 </r>
       <r>    61.9633     1.7744    67.7917 </r>
       <r>    62.2283     1.2000    68.1097 </r>
       <r>    62.4933     1.4772    68.5011 </r>
       <r>    62.7583     1.2171    68.8237 </r>
       <r>    63.0233     1.5981    69.2472 </r>
       <r>    63.2883     2.5013    69.9100 </r>
       <r>    63.5533     1.7881    70.3839 </r>
       <r>    63.8183     1.3403    70.7390 </r>
       <r>    64.0833     1.4164    71.1144 </r>
       <r>    64.3483     1.7224    71.5708 </r>
       <r>    64.6133     1.8392    72.0582 </r>
       <r>    64.8783     1.4513    72.4428 </r>
       <r>    65.1433     1.2988    72.7870 </r>
       <r>    65.4083     1.0948    73.0771 </r>
       <r>    65.6733     1.4259    73.4549 </r>
       <r>    65.9383     1.2919    73.7973 </r>
       <r>    66.2033     2.6800    74.5075 </r>
       <r>    66.4683     2.1873    75.0871 </r>
       <r>    66.7333     2.0088    75.6194 </r>
       <r>    66.9983     1.5764    76.0372 </r>
       <r>    67.2633     1.5445    76.4465 </r>
       <r>    67.5283     1.6466    76.8828 </r>
       <r>    67.7933     1.7573    77.3485 </r>
       <r>    68.0583     1.3251    77.6996 </r>
       <r>    68.3233     1.4844    78.0930 </r>
       <r>    68.5883     1.6593    78.5327 </r>
       <r>    68.8533     1.4020    78.9042 </r>
       <r>    69.1183     1.4617    79.2916 </r>
       <r>    69.3833     1.0019    79.5571 </r>
       <r>    69.6483     0.9587    79.8111 </r>
       <r>    69.9133     0.3877    79.9139 </r>
       <r>    70.1783     0.2258    79.9737 </r>
       <r>    70.4433     0.0433    79.9852 </r>
       <r>    70.7083     0.0559    80.0000 </r>
       <r>    70.9733     0.0002    80.0001 </r>
       <r>    71.2383    -0.0003    80.0000 </r>
       <r>    71.5033    -0.0000    80.0000 </r>
       <r>    71.7683    -0.0000    80.0000 </r>
       <r>    72.0333     0.0000    80.0000 </r>
       <r>    72.2983     0.0000    80.0000 </r>
       <r>    72.5633     0.0000    80.0000 </r>
       <r>    72.8283     0.0000    80.0000 </r>
       <r>    73.0933     0.0000    80.0000 </r>
       <r>    73.3583     0.0000    80.0000 </r>
       <r>    73.6233     0.0000    80.0000 </r>
       <r>    73.8883     0.0000    80.0000 </r>
       <r>    74.1533     0.0000    80.0000 </r>
      </set>
     </set>
    </array>
   </total>
  </dos>
 </calculation>
 <structure name="finalpos" >
  <crystal>
   <varray name="basis" >
    <v>       2.33000000       0.00000000       0.00000000 </v>
    <v>      -1.16500000       2.01783919       0.00000000 </v>
    <v>       0.00000000       0.00000000       4.14100000 </v>
   </varray>
   <i name="volume">     19.46918197 </i>
   <varray name="rec_basis" >
    <v>       0.42918455       0.24778982       0.00000000 </v>
    <v>       0.00000000       0.49557963       0.00000000 </v>
    <v>       0.00000000       0.00000000       0.24148756 </v>
   </varray>
  </crystal>
  <varray name="positions" >
   <v>       0.00000000       0.00000000       0.00000000 </v>
   <v>       0.33333333       0.66666667       0.50000000 </v>
  </varray>
 </structure>
</modeling>
