unknown system                          
   1.00000000000000     
     3.635000    0.000000    0.000000
     0.000000    3.635000    0.000000
     0.000000    0.000000    3.635000
   Cu
     4
Direct
  0.000000  0.000000  0.000000
  0.500000  0.500000  0.000000
  0.500000  0.000000  0.500000
  0.000000  0.500000  0.500000
 
   24   24   24
  824.63      743.19      540.46      310.98      138.97      53.053      26.259      14.219      7.7198      7.1297    
  7.2238      5.3383      3.9838      5.3383      7.2238      7.1297      7.7198      14.219      26.259      53.053    
  138.97      310.98      540.46      743.19      743.19      669.22      485.34      278.02      123.94      48.354    
  25.092      13.697      7.7879      7.4421      7.8171      6.4216      5.3383      6.4216      7.8171      7.4421    
  7.7879      13.697      25.092      48.354      123.94      278.02      485.34      669.22      540.46      485.34    
  349.09      197.59      88.311      37.772      22.030      12.348      7.8595      7.8192      8.4325      7.8171    
  7.2238      7.8171      8.4325      7.8192      7.8595      12.348      22.030      37.772      88.311      197.59    
  349.09      485.34      310.98      278.02      197.59      110.98      52.427      27.883      17.752      10.640    
  7.7484      7.6081      7.8192      7.4421      7.1297      7.4421      7.8192      7.6081      7.7484      10.640    
  17.752      27.883      52.427      110.98      197.59      278.02      138.97      123.94      88.311      52.427    
  30.684      20.667      13.322      9.1104      7.7638      7.7484      7.8595      7.7879      7.7198      7.7879    
  7.8595      7.7484      7.7638      9.1104      13.322      20.667      30.684      52.427      88.311      123.94    
  53.053      48.354      37.772      27.883      20.667      14.224      9.9826      8.5284      9.1104      10.640    
  12.348      13.697      14.219      13.697      12.348      10.640      9.1104      8.5284      9.9826      14.224    
  20.667      27.883      37.772      48.354      26.259      25.092      22.030      17.752      13.322      9.9826    
  8.7399      9.9826      13.322      17.752      22.030      25.092      26.259      25.092      22.030      17.752    
  13.322      9.9826      8.7399      9.9826      13.322      17.752      22.030      25.092      14.219      13.697    
  12.348      10.640      9.1104      8.5284      9.9826      14.224      20.667      27.883      37.772      48.354    
  53.053      48.354      37.772      27.883      20.667      14.224      9.9826      8.5284      9.1104      10.640    
  12.348      13.697      7.7198      7.7879      7.8595      7.7484      7.7638      9.1104      13.322      20.667    
  30.684      52.427      88.311      123.94      138.97      123.94      88.311      52.427      30.684      20.667    
  13.322      9.1104      7.7638      7.7484      7.8595      7.7879      7.1297      7.4421      7.8192      7.6081    
  7.7484      10.640      17.752      27.883      52.427      110.98      197.59      278.02      310.98      278.02    
  197.59      110.98      52.427      27.883      17.752      10.640      7.7484      7.6081      7.8192      7.4421    
  7.2238      7.8171      8.4325      7.8192      7.8595      12.348      22.030      37.772      88.311      197.59    
  349.09      485.34      540.46      485.34      349.09      197.59      88.311      37.772      22.030      12.348    
  7.8595      7.8192      8.4325      7.8171      5.3383      6.4216      7.8171      7.4421      7.7879      13.697    
  25.092      48.354      123.94      278.02      485.34      669.22      743.19      669.22      485.34      278.02    
  123.94      48.354      25.092      13.697      7.7879      7.4421      7.8171      6.4216      3.9838      5.3383    
  7.2238      7.1297      7.7198      14.219      26.259      53.053      138.97      310.98      540.46      743.19    
  824.63      743.19      540.46      310.98      138.97      53.053      26.259      14.219      7.7198      7.1297    
  7.2238      5.3383      5.3383      6.4216      7.8171      7.4421      7.7879      13.697      25.092      48.354    
  123.94      278.02      485.34      669.22      743.19      669.22      485.34      278.02      123.94      48.354    
  25.092      13.697      7.7879      7.4421      7.8171      6.4216      7.2238      7.8171      8.4325      7.8192    
  7.8595      12.348      22.030      37.772      88.311      197.59      349.09      485.34      540.46      485.34    
  349.09      197.59      88.311      37.772      22.030      12.348      7.8595      7.8192      8.4325      7.8171    
  7.1297      7.4421      7.8192      7.6081      7.7484      10.640      17.752      27.883      52.427      110.98    
  197.59      278.02      310.98      278.02      197.59      110.98      52.427      27.883      17.752      10.640    
  7.7484      7.6081      7.8192      7.4421      7.7198      7.7879      7.8595      7.7484      7.7638      9.1104    
  13.322      20.667      30.684      52.427      88.311      123.94      138.97      123.94      88.311      52.427    
  30.684      20.667      13.322      9.1104      7.7638      7.7484      7.8595      7.7879      14.219      13.697    
  12.348      10.640      9.1104      8.5284      9.9826      14.224      20.667      27.883      37.772      48.354    
  53.053      48.354      37.772      27.883      20.667      14.224      9.9826      8.5284      9.1104      10.640    
  12.348      13.697      26.259      25.092      22.030      17.752      13.322      9.9826      8.7399      9.9826    
  13.322      17.752      22.030      25.092      26.259      25.092      22.030      17.752      13.322      9.9826    
  8.7399      9.9826      13.322      17.752      22.030      25.092      53.053      48.354      37.772      27.883    
  20.667      14.224      9.9826      8.5284      9.1104      10.640      12.348      13.697      14.219      13.697    
  12.348      10.640      9.1104      8.5284      9.9826      14.224      20.667      27.883      37.772      48.354    
  138.97      123.94      88.311      52.427      30.684      20.667      13.322      9.1104      7.7638      7.7484    
  7.8595      7.7879      7.7198      7.7879      7.8595      7.7484      7.7638      9.1104      13.322      20.667    
  30.684      52.427      88.311      123.94      310.98      278.02      197.59      110.98      52.427      27.883    
  17.752      10.640      7.7484      7.6081      7.8192      7.4421      7.1297      7.4421      7.8192      7.6081    
  7.7484      10.640      17.752      27.883      52.427      110.98      197.59      278.02      540.46      485.34    
  349.09      197.59      88.311      37.772      22.030      12.348      7.8595      7.8192      8.4325      7.8171    
  7.2238      7.8171      8.4325      7.8192      7.8595      12.348      22.030      37.772      88.311      197.59    
  349.09      485.34      743.19      669.22      485.34      278.02      123.94      48.354      25.092      13.697    
  7.7879      7.4421      7.8171      6.4216      5.3383      6.4216      7.8171      7.4421      7.7879      13.697    
  25.092      48.354      123.94      278.02      485.34      669.22      743.19      669.22      485.34      278.02    
  123.94      48.354      25.092      13.697      7.7879      7.4421      7.8171      6.4216      5.3383      6.4216    
  7.8171      7.4421      7.7879      13.697      25.092      48.354      123.94      278.02      485.34      669.22    
  669.22      602.07      435.42      248.33      110.59      44.292      24.023      13.217      7.8283      7.6614    
  8.2491      7.2694      6.4216      7.2694      8.2491      7.6614      7.8283      13.217      24.023      44.292    
  110.59      248.33      435.42      602.07      485.34      435.42      312.30      176.17      79.117      35.187    
  21.129      11.982      7.8627      7.8854      8.5948      8.2491      7.8171      8.2491      8.5948      7.8854    
  7.8627      11.982      21.129      35.187      79.117      176.17      312.30      435.42      278.02      248.33    
  176.17      99.084      47.796      26.642      17.094      10.437      7.7684      7.6347      7.8854      7.6614    
  7.4421      7.6614      7.8854      7.6347      7.7684      10.437      17.094      26.642      47.796      99.084    
  176.17      248.33      123.94      110.59      79.117      47.796      29.087      19.912      12.961      9.0610    
  7.8137      7.7684      7.8627      7.8283      7.7879      7.8283      7.8627      7.7684      7.8137      9.0610    
  12.961      19.912      29.087      47.796      79.117      110.59      48.354      44.292      35.187      26.642    
  19.912      13.816      9.8729      8.5382      9.0610      10.437      11.982      13.217      13.697      13.217    
  11.982      10.437      9.0610      8.5382      9.8729      13.816      19.912      26.642      35.187      44.292    
  25.092      24.023      21.129      17.094      12.961      9.8729      8.7295      9.8729      12.961      17.094    
  21.129      24.023      25.092      24.023      21.129      17.094      12.961      9.8729      8.7295      9.8729    
  12.961      17.094      21.129      24.023      13.697      13.217      11.982      10.437      9.0610      8.5382    
  9.8729      13.816      19.912      26.642      35.187      44.292      48.354      44.292      35.187      26.642    
  19.912      13.816      9.8729      8.5382      9.0610      10.437      11.982      13.217      7.7879      7.8283    
  7.8627      7.7684      7.8137      9.0610      12.961      19.912      29.087      47.796      79.117      110.59    
  123.94      110.59      79.117      47.796      29.087      19.912      12.961      9.0610      7.8137      7.7684    
  7.8627      7.8283      7.4421      7.6614      7.8854      7.6347      7.7684      10.437      17.094      26.642    
  47.796      99.084      176.17      248.33      278.02      248.33      176.17      99.084      47.796      26.642    
  17.094      10.437      7.7684      7.6347      7.8854      7.6614      7.8171      8.2491      8.5948      7.8854    
  7.8627      11.982      21.129      35.187      79.117      176.17      312.30      435.42      485.34      435.42    
  312.30      176.17      79.117      35.187      21.129      11.982      7.8627      7.8854      8.5948      8.2491    
  6.4216      7.2694      8.2491      7.6614      7.8283      13.217      24.023      44.292      110.59      248.33    
  435.42      602.07      669.22      602.07      435.42      248.33      110.59      44.292      24.023      13.217    
  7.8283      7.6614      8.2491      7.2694      5.3383      6.4216      7.8171      7.4421      7.7879      13.697    
  25.092      48.354      123.94      278.02      485.34      669.22      743.19      669.22      485.34      278.02    
  123.94      48.354      25.092      13.697      7.7879      7.4421      7.8171      6.4216      6.4216      7.2694    
  8.2491      7.6614      7.8283      13.217      24.023      44.292      110.59      248.33      435.42      602.07    
  669.22      602.07      435.42      248.33      110.59      44.292      24.023      13.217      7.8283      7.6614    
  8.2491      7.2694      7.8171      8.2491      8.5948      7.8854      7.8627      11.982      21.129      35.187    
  79.117      176.17      312.30      435.42      485.34      435.42      312.30      176.17      79.117      35.187    
  21.129      11.982      7.8627      7.8854      8.5948      8.2491      7.4421      7.6614      7.8854      7.6347    
  7.7684      10.437      17.094      26.642      47.796      99.084      176.17      248.33      278.02      248.33    
  176.17      99.084      47.796      26.642      17.094      10.437      7.7684      7.6347      7.8854      7.6614    
  7.7879      7.8283      7.8627      7.7684      7.8137      9.0610      12.961      19.912      29.087      47.796    
  79.117      110.59      123.94      110.59      79.117      47.796      29.087      19.912      12.961      9.0610    
  7.8137      7.7684      7.8627      7.8283      13.697      13.217      11.982      10.437      9.0610      8.5382    
  9.8729      13.816      19.912      26.642      35.187      44.292      48.354      44.292      35.187      26.642    
  19.912      13.816      9.8729      8.5382      9.0610      10.437      11.982      13.217      25.092      24.023    
  21.129      17.094      12.961      9.8729      8.7295      9.8729      12.961      17.094      21.129      24.023    
  25.092      24.023      21.129      17.094      12.961      9.8729      8.7295      9.8729      12.961      17.094    
  21.129      24.023      48.354      44.292      35.187      26.642      19.912      13.816      9.8729      8.5382    
  9.0610      10.437      11.982      13.217      13.697      13.217      11.982      10.437      9.0610      8.5382    
  9.8729      13.816      19.912      26.642      35.187      44.292      123.94      110.59      79.117      47.796    
  29.087      19.912      12.961      9.0610      7.8137      7.7684      7.8627      7.8283      7.7879      7.8283    
  7.8627      7.7684      7.8137      9.0610      12.961      19.912      29.087      47.796      79.117      110.59    
  278.02      248.33      176.17      99.084      47.796      26.642      17.094      10.437      7.7684      7.6347    
  7.8854      7.6614      7.4421      7.6614      7.8854      7.6347      7.7684      10.437      17.094      26.642    
  47.796      99.084      176.17      248.33      485.34      435.42      312.30      176.17      79.117      35.187    
  21.129      11.982      7.8627      7.8854      8.5948      8.2491      7.8171      8.2491      8.5948      7.8854    
  7.8627      11.982      21.129      35.187      79.117      176.17      312.30      435.42      669.22      602.07    
  435.42      248.33      110.59      44.292      24.023      13.217      7.8283      7.6614      8.2491      7.2694    
  6.4216      7.2694      8.2491      7.6614      7.8283      13.217      24.023      44.292      110.59      248.33    
  435.42      602.07      540.46      485.34      349.09      197.59      88.311      37.772      22.030      12.348    
  7.8595      7.8192      8.4325      7.8171      7.2238      7.8171      8.4325      7.8192      7.8595      12.348    
  22.030      37.772      88.311      197.59      349.09      485.34      485.34      435.42      312.30      176.17    
  79.117      35.187      21.129      11.982      7.8627      7.8854      8.5948      8.2491      7.8171      8.2491    
  8.5948      7.8854      7.8627      11.982      21.129      35.187      79.117      176.17      312.30      435.42    
  349.09      312.30      222.30      124.70      57.835      29.421      18.673      11.053      7.8585      7.8924    
  8.5660      8.5948      8.4325      8.5948      8.5660      7.8924      7.8585      11.053      18.673      29.421    
  57.835      124.70      222.30      312.30      197.59      176.17      124.70      71.241      37.440      23.637    
  15.334      9.9089      7.8202      7.6663      7.8924      7.8854      7.8192      7.8854      7.8924      7.6663    
  7.8202      9.9089      15.334      23.637      37.440      71.241      124.70      176.17      88.311      79.117    
  57.835      37.440      25.475      17.878      12.011      8.9028      7.9170      7.8202      7.8585      7.8627    
  7.8595      7.8627      7.8585      7.8202      7.9170      8.9028      12.011      17.878      25.475      37.440    
  57.835      79.117      37.772      35.187      29.421      23.637      17.878      12.766      9.5898      8.5323    
  8.9028      9.9089      11.053      11.982      12.348      11.982      11.053      9.9089      8.9028      8.5323    
  9.5898      12.766      17.878      23.637      29.421      35.187      22.030      21.129      18.673      15.334    
  12.011      9.5898      8.7059      9.5898      12.011      15.334      18.673      21.129      22.030      21.129    
  18.673      15.334      12.011      9.5898      8.7059      9.5898      12.011      15.334      18.673      21.129    
  12.348      11.982      11.053      9.9089      8.9028      8.5323      9.5898      12.766      17.878      23.637    
  29.421      35.187      37.772      35.187      29.421      23.637      17.878      12.766      9.5898      8.5323    
  8.9028      9.9089      11.053      11.982      7.8595      7.8627      7.8585      7.8202      7.9170      8.9028    
  12.011      17.878      25.475      37.440      57.835      79.117      88.311      79.117      57.835      37.440    
  25.475      17.878      12.011      8.9028      7.9170      7.8202      7.8585      7.8627      7.8192      7.8854    
  7.8924      7.6663      7.8202      9.9089      15.334      23.637      37.440      71.241      124.70      176.17    
  197.59      176.17      124.70      71.241      37.440      23.637      15.334      9.9089      7.8202      7.6663    
  7.8924      7.8854      8.4325      8.5948      8.5660      7.8924      7.8585      11.053      18.673      29.421    
  57.835      124.70      222.30      312.30      349.09      312.30      222.30      124.70      57.835      29.421    
  18.673      11.053      7.8585      7.8924      8.5660      8.5948      7.8171      8.2491      8.5948      7.8854    
  7.8627      11.982      21.129      35.187      79.117      176.17      312.30      435.42      485.34      435.42    
  312.30      176.17      79.117      35.187      21.129      11.982      7.8627      7.8854      8.5948      8.2491    
  7.2238      7.8171      8.4325      7.8192      7.8595      12.348      22.030      37.772      88.311      197.59    
  349.09      485.34      540.46      485.34      349.09      197.59      88.311      37.772      22.030      12.348    
  7.8595      7.8192      8.4325      7.8171      7.8171      8.2491      8.5948      7.8854      7.8627      11.982    
  21.129      35.187      79.117      176.17      312.30      435.42      485.34      435.42      312.30      176.17    
  79.117      35.187      21.129      11.982      7.8627      7.8854      8.5948      8.2491      8.4325      8.5948    
  8.5660      7.8924      7.8585      11.053      18.673      29.421      57.835      124.70      222.30      312.30    
  349.09      312.30      222.30      124.70      57.835      29.421      18.673      11.053      7.8585      7.8924    
  8.5660      8.5948      7.8192      7.8854      7.8924      7.6663      7.8202      9.9089      15.334      23.637    
  37.440      71.241      124.70      176.17      197.59      176.17      124.70      71.241      37.440      23.637    
  15.334      9.9089      7.8202      7.6663      7.8924      7.8854      7.8595      7.8627      7.8585      7.8202    
  7.9170      8.9028      12.011      17.878      25.475      37.440      57.835      79.117      88.311      79.117    
  57.835      37.440      25.475      17.878      12.011      8.9028      7.9170      7.8202      7.8585      7.8627    
  12.348      11.982      11.053      9.9089      8.9028      8.5323      9.5898      12.766      17.878      23.637    
  29.421      35.187      37.772      35.187      29.421      23.637      17.878      12.766      9.5898      8.5323    
  8.9028      9.9089      11.053      11.982      22.030      21.129      18.673      15.334      12.011      9.5898    
  8.7059      9.5898      12.011      15.334      18.673      21.129      22.030      21.129      18.673      15.334    
  12.011      9.5898      8.7059      9.5898      12.011      15.334      18.673      21.129      37.772      35.187    
  29.421      23.637      17.878      12.766      9.5898      8.5323      8.9028      9.9089      11.053      11.982    
  12.348      11.982      11.053      9.9089      8.9028      8.5323      9.5898      12.766      17.878      23.637    
  29.421      35.187      88.311      79.117      57.835      37.440      25.475      17.878      12.011      8.9028    
  7.9170      7.8202      7.8585      7.8627      7.8595      7.8627      7.8585      7.8202      7.9170      8.9028    
  12.011      17.878      25.475      37.440      57.835      79.117      197.59      176.17      124.70      71.241    
  37.440      23.637      15.334      9.9089      7.8202      7.6663      7.8924      7.8854      7.8192      7.8854    
  7.8924      7.6663      7.8202      9.9089      15.334      23.637      37.440      71.241      124.70      176.17    
  349.09      312.30      222.30      124.70      57.835      29.421      18.673      11.053      7.8585      7.8924    
  8.5660      8.5948      8.4325      8.5948      8.5660      7.8924      7.8585      11.053      18.673      29.421    
  57.835      124.70      222.30      312.30      485.34      435.42      312.30      176.17      79.117      35.187    
  21.129      11.982      7.8627      7.8854      8.5948      8.2491      7.8171      8.2491      8.5948      7.8854    
  7.8627      11.982      21.129      35.187      79.117      176.17      312.30      435.42      310.98      278.02    
  197.59      110.98      52.427      27.883      17.752      10.640      7.7484      7.6081      7.8192      7.4421    
  7.1297      7.4421      7.8192      7.6081      7.7484      10.640      17.752      27.883      52.427      110.98    
  197.59      278.02      278.02      248.33      176.17      99.084      47.796      26.642      17.094      10.437    
  7.7684      7.6347      7.8854      7.6614      7.4421      7.6614      7.8854      7.6347      7.7684      10.437    
  17.094      26.642      47.796      99.084      176.17      248.33      197.59      176.17      124.70      71.241    
  37.440      23.637      15.334      9.9089      7.8202      7.6663      7.8924      7.8854      7.8192      7.8854    
  7.8924      7.6663      7.8202      9.9089      15.334      23.637      37.440      71.241      124.70      176.17    
  110.98      99.084      71.241      43.951      27.957      19.580      13.016      9.2393      7.8698      7.6537    
  7.6663      7.6347      7.6081      7.6347      7.6663      7.6537      7.8698      9.2393      13.016      19.580    
  27.957      43.951      71.241      99.084      52.427      47.796      37.440      27.957      21.247      15.154    
  10.800      8.6456      7.9831      7.8698      7.8202      7.7684      7.7484      7.7684      7.8202      7.8698    
  7.9831      8.6456      10.800      15.154      21.247      27.957      37.440      47.796      27.883      26.642    
  23.637      19.580      15.154      11.469      9.2420      8.4678      8.6456      9.2393      9.9089      10.437    
  10.640      10.437      9.9089      9.2393      8.6456      8.4678      9.2420      11.469      15.154      19.580    
  23.637      26.642      17.752      17.094      15.334      13.016      10.800      9.2420      8.6852      9.2420    
  10.800      13.016      15.334      17.094      17.752      17.094      15.334      13.016      10.800      9.2420    
  8.6852      9.2420      10.800      13.016      15.334      17.094      10.640      10.437      9.9089      9.2393    
  8.6456      8.4678      9.2420      11.469      15.154      19.580      23.637      26.642      27.883      26.642    
  23.637      19.580      15.154      11.469      9.2420      8.4678      8.6456      9.2393      9.9089      10.437    
  7.7484      7.7684      7.8202      7.8698      7.9831      8.6456      10.800      15.154      21.247      27.957    
  37.440      47.796      52.427      47.796      37.440      27.957      21.247      15.154      10.800      8.6456    
  7.9831      7.8698      7.8202      7.7684      7.6081      7.6347      7.6663      7.6537      7.8698      9.2393    
  13.016      19.580      27.957      43.951      71.241      99.084      110.98      99.084      71.241      43.951    
  27.957      19.580      13.016      9.2393      7.8698      7.6537      7.6663      7.6347      7.8192      7.8854    
  7.8924      7.6663      7.8202      9.9089      15.334      23.637      37.440      71.241      124.70      176.17    
  197.59      176.17      124.70      71.241      37.440      23.637      15.334      9.9089      7.8202      7.6663    
  7.8924      7.8854      7.4421      7.6614      7.8854      7.6347      7.7684      10.437      17.094      26.642    
  47.796      99.084      176.17      248.33      278.02      248.33      176.17      99.084      47.796      26.642    
  17.094      10.437      7.7684      7.6347      7.8854      7.6614      7.1297      7.4421      7.8192      7.6081    
  7.7484      10.640      17.752      27.883      52.427      110.98      197.59      278.02      310.98      278.02    
  197.59      110.98      52.427      27.883      17.752      10.640      7.7484      7.6081      7.8192      7.4421    
  7.4421      7.6614      7.8854      7.6347      7.7684      10.437      17.094      26.642      47.796      99.084    
  176.17      248.33      278.02      248.33      176.17      99.084      47.796      26.642      17.094      10.437    
  7.7684      7.6347      7.8854      7.6614      7.8192      7.8854      7.8924      7.6663      7.8202      9.9089    
  15.334      23.637      37.440      71.241      124.70      176.17      197.59      176.17      124.70      71.241    
  37.440      23.637      15.334      9.9089      7.8202      7.6663      7.8924      7.8854      7.6081      7.6347    
  7.6663      7.6537      7.8698      9.2393      13.016      19.580      27.957      43.951      71.241      99.084    
  110.98      99.084      71.241      43.951      27.957      19.580      13.016      9.2393      7.8698      7.6537    
  7.6663      7.6347      7.7484      7.7684      7.8202      7.8698      7.9831      8.6456      10.800      15.154    
  21.247      27.957      37.440      47.796      52.427      47.796      37.440      27.957      21.247      15.154    
  10.800      8.6456      7.9831      7.8698      7.8202      7.7684      10.640      10.437      9.9089      9.2393    
  8.6456      8.4678      9.2420      11.469      15.154      19.580      23.637      26.642      27.883      26.642    
  23.637      19.580      15.154      11.469      9.2420      8.4678      8.6456      9.2393      9.9089      10.437    
  17.752      17.094      15.334      13.016      10.800      9.2420      8.6852      9.2420      10.800      13.016    
  15.334      17.094      17.752      17.094      15.334      13.016      10.800      9.2420      8.6852      9.2420    
  10.800      13.016      15.334      17.094      27.883      26.642      23.637      19.580      15.154      11.469    
  9.2420      8.4678      8.6456      9.2393      9.9089      10.437      10.640      10.437      9.9089      9.2393    
  8.6456      8.4678      9.2420      11.469      15.154      19.580      23.637      26.642      52.427      47.796    
  37.440      27.957      21.247      15.154      10.800      8.6456      7.9831      7.8698      7.8202      7.7684    
  7.7484      7.7684      7.8202      7.8698      7.9831      8.6456      10.800      15.154      21.247      27.957    
  37.440      47.796      110.98      99.084      71.241      43.951      27.957      19.580      13.016      9.2393    
  7.8698      7.6537      7.6663      7.6347      7.6081      7.6347      7.6663      7.6537      7.8698      9.2393    
  13.016      19.580      27.957      43.951      71.241      99.084      197.59      176.17      124.70      71.241    
  37.440      23.637      15.334      9.9089      7.8202      7.6663      7.8924      7.8854      7.8192      7.8854    
  7.8924      7.6663      7.8202      9.9089      15.334      23.637      37.440      71.241      124.70      176.17    
  278.02      248.33      176.17      99.084      47.796      26.642      17.094      10.437      7.7684      7.6347    
  7.8854      7.6614      7.4421      7.6614      7.8854      7.6347      7.7684      10.437      17.094      26.642    
  47.796      99.084      176.17      248.33      138.97      123.94      88.311      52.427      30.684      20.667    
  13.322      9.1104      7.7638      7.7484      7.8595      7.7879      7.7198      7.7879      7.8595      7.7484    
  7.7638      9.1104      13.322      20.667      30.684      52.427      88.311      123.94      123.94      110.59    
  79.117      47.796      29.087      19.912      12.961      9.0610      7.8137      7.7684      7.8627      7.8283    
  7.7879      7.8283      7.8627      7.7684      7.8137      9.0610      12.961      19.912      29.087      47.796    
  79.117      110.59      88.311      79.117      57.835      37.440      25.475      17.878      12.011      8.9028    
  7.9170      7.8202      7.8585      7.8627      7.8595      7.8627      7.8585      7.8202      7.9170      8.9028    
  12.011      17.878      25.475      37.440      57.835      79.117      52.427      47.796      37.440      27.957    
  21.247      15.154      10.800      8.6456      7.9831      7.8698      7.8202      7.7684      7.7484      7.7684    
  7.8202      7.8698      7.9831      8.6456      10.800      15.154      21.247      27.957      37.440      47.796    
  30.684      29.087      25.475      21.247      16.558      12.435      9.6890      8.3970      8.0341      7.9831    
  7.9170      7.8137      7.7638      7.8137      7.9170      7.9831      8.0341      8.3970      9.6890      12.435    
  16.558      21.247      25.475      29.087      20.667      19.912      17.878      15.154      12.435      10.275    
  8.9391      8.3934      8.3970      8.6456      8.9028      9.0610      9.1104      9.0610      8.9028      8.6456    
  8.3970      8.3934      8.9391      10.275      12.435      15.154      17.878      19.912      13.322      12.961    