unknown system                          
   1.00000000000000     
     3.635000    0.000000    0.000000
     0.000000    3.635000    0.000000
     0.000000    0.000000    3.635000
   Cu
     4
Direct
  0.000000  0.000000  0.000000
  0.500000  0.500000  0.000000
  0.500000  0.000000  0.500000
  0.000000  0.500000  0.500000
 
   24   24   24
 0.82462733067E+03 0.74319192503E+03 0.54045825895E+03 0.31098495425E+03 0.13897014927E+03
 0.53052947789E+02 0.26259163855E+02 0.14219067689E+02 0.77197916706E+01 0.71296892860E+01
 0.72237835691E+01 0.53382588955E+01 0.39837634508E+01 0.53382588955E+01 0.72237835691E+01
 0.71296892860E+01 0.77197916706E+01 0.14219067689E+02 0.26259163855E+02 0.53052947789E+02
 0.13897014927E+03 0.31098495425E+03 0.54045825895E+03 0.74319192503E+03 0.74319192503E+03
 0.66921917439E+03 0.48534086550E+03 0.27801670043E+03 0.12393769761E+03 0.48354410954E+02
 0.25091853347E+02 0.13697419249E+02 0.77878650228E+01 0.74421476697E+01 0.78170949462E+01
 0.64216173009E+01 0.53382588955E+01 0.64216173009E+01 0.78170949462E+01 0.74421476697E+01
 0.77878650228E+01 0.13697419249E+02 0.25091853347E+02 0.48354410954E+02 0.12393769761E+03
 0.27801670043E+03 0.48534086550E+03 0.66921917439E+03 0.54045825895E+03 0.48534086550E+03
 0.34908738851E+03 0.19758500815E+03 0.88311280521E+02 0.37772385720E+02 0.22030474397E+02
 0.12347915175E+02 0.78595316441E+01 0.78192054736E+01 0.84325072615E+01 0.78170949462E+01
 0.72237835691E+01 0.78170949462E+01 0.84325072615E+01 0.78192054736E+01 0.78595316441E+01
 0.12347915175E+02 0.22030474397E+02 0.37772385720E+02 0.88311280521E+02 0.19758500815E+03
 0.34908738851E+03 0.48534086550E+03 0.31098495425E+03 0.27801670043E+03 0.19758500815E+03
 0.11097558899E+03 0.52426779103E+02 0.27883490981E+02 0.17752177741E+02 0.10640184213E+02
 0.77484357446E+01 0.76080927799E+01 0.78192054736E+01 0.74421476697E+01 0.71296892860E+01
 0.74421476697E+01 0.78192054736E+01 0.76080927799E+01 0.77484357446E+01 0.10640184213E+02
 0.17752177741E+02 0.27883490981E+02 0.52426779103E+02 0.11097558899E+03 0.19758500815E+03
 0.27801670043E+03 0.13897014927E+03 0.12393769761E+03 0.88311280521E+02 0.52426779103E+02
 0.30683612633E+02 0.20666754451E+02 0.13321993758E+02 0.91104040271E+01 0.77637742476E+01
 0.77484357446E+01 0.78595316441E+01 0.77878650228E+01 0.77197916706E+01 0.77878650228E+01
 0.78595316441E+01 0.77484357446E+01 0.77637742476E+01 0.91104040271E+01 0.13321993758E+02
 0.20666754451E+02 0.30683612633E+02 0.52426779103E+02 0.88311280521E+02 0.12393769761E+03
 0.53052947789E+02 0.48354410954E+02 0.37772385720E+02 0.27883490981E+02 0.20666754451E+02
 0.14224336930E+02 0.99825813106E+01 0.85284144133E+01 0.91104040271E+01 0.10640184213E+02
 0.12347915175E+02 0.13697419249E+02 0.14219067689E+02 0.13697419249E+02 0.12347915175E+02
 0.10640184213E+02 0.91104040271E+01 0.85284144133E+01 0.99825813106E+01 0.14224336930E+02
 0.20666754451E+02 0.27883490981E+02 0.37772385720E+02 0.48354410954E+02 0.26259163855E+02
 0.25091853347E+02 0.22030474397E+02 0.17752177741E+02 0.13321993758E+02 0.99825813106E+01
 0.87399224920E+01 0.99825813106E+01 0.13321993758E+02 0.17752177741E+02 0.22030474397E+02
 0.25091853347E+02 0.26259163855E+02 0.25091853347E+02 0.22030474397E+02 0.17752177741E+02
 0.13321993758E+02 0.99825813106E+01 0.87399224920E+01 0.99825813106E+01 0.13321993758E+02
 0.17752177741E+02 0.22030474397E+02 0.25091853347E+02 0.14219067689E+02 0.13697419249E+02
 0.12347915175E+02 0.10640184213E+02 0.91104040271E+01 0.85284144133E+01 0.99825813106E+01
 0.14224336930E+02 0.20666754451E+02 0.27883490981E+02 0.37772385720E+02 0.48354410954E+02
 0.53052947789E+02 0.48354410954E+02 0.37772385720E+02 0.27883490981E+02 0.20666754451E+02
 0.14224336930E+02 0.99825813106E+01 0.85284144133E+01 0.91104040271E+01 0.10640184213E+02
 0.12347915175E+02 0.13697419249E+02 0.77197916706E+01 0.77878650228E+01 0.78595316441E+01
 0.77484357446E+01 0.77637742476E+01 0.91104040271E+01 0.13321993758E+02 0.20666754451E+02
 0.30683612633E+02 0.52426779103E+02 0.88311280521E+02 0.12393769761E+03 0.13897014927E+03
 0.12393769761E+03 0.88311280521E+02 0.52426779103E+02 0.30683612633E+02 0.20666754451E+02
 0.13321993758E+02 0.91104040271E+01 0.77637742476E+01 0.77484357446E+01 0.78595316441E+01
 0.77878650228E+01 0.71296892860E+01 0.74421476697E+01 0.78192054736E+01 0.76080927799E+01
 0.77484357446E+01 0.10640184213E+02 0.17752177741E+02 0.27883490981E+02 0.52426779103E+02
 0.11097558899E+03 0.19758500815E+03 0.27801670043E+03 0.31098495425E+03 0.27801670043E+03
 0.19758500815E+03 0.11097558899E+03 0.52426779103E+02 0.27883490981E+02 0.17752177741E+02
 0.10640184213E+02 0.77484357446E+01 0.76080927799E+01 0.78192054736E+01 0.74421476697E+01
 0.72237835691E+01 0.78170949462E+01 0.84325072615E+01 0.78192054736E+01 0.78595316441E+01
 0.12347915175E+02 0.22030474397E+02 0.37772385720E+02 0.88311280521E+02 0.19758500815E+03
 0.34908738851E+03 0.48534086550E+03 0.54045825895E+03 0.48534086550E+03 0.34908738851E+03
 0.19758500815E+03 0.88311280521E+02 0.37772385720E+02 0.22030474397E+02 0.12347915175E+02
 0.78595316441E+01 0.78192054736E+01 0.84325072615E+01 0.78170949462E+01 0.53382588955E+01
 0.64216173009E+01 0.78170949462E+01 0.74421476697E+01 0.77878650228E+01 0.13697419249E+02
 0.25091853347E+02 0.48354410954E+02 0.12393769761E+03 0.27801670043E+03 0.48534086550E+03
 0.66921917439E+03 0.74319192503E+03 0.66921917439E+03 0.48534086550E+03 0.27801670043E+03
 0.12393769761E+03 0.48354410954E+02 0.25091853347E+02 0.13697419249E+02 0.77878650228E+01
 0.74421476697E+01 0.78170949462E+01 0.64216173009E+01 0.39837634508E+01 0.53382588955E+01
 0.72237835691E+01 0.71296892860E+01 0.77197916706E+01 0.14219067689E+02 0.26259163855E+02
 0.53052947789E+02 0.13897014927E+03 0.31098495425E+03 0.54045825895E+03 0.74319192503E+03
 0.82462733067E+03 0.74319192503E+03 0.54045825895E+03 0.31098495425E+03 0.13897014927E+03
 0.53052947789E+02 0.26259163855E+02 0.14219067689E+02 0.77197916706E+01 0.71296892860E+01
 0.72237835691E+01 0.53382588955E+01 0.53382588955E+01 0.64216173009E+01 0.78170949461E+01
 0.74421476697E+01 0.77878650228E+01 0.13697419249E+02 0.25091853347E+02 0.48354410954E+02
 0.12393769761E+03 0.27801670043E+03 0.48534086550E+03 0.66921917439E+03 0.74319192503E+03
 0.66921917439E+03 0.48534086550E+03 0.27801670043E+03 0.12393769761E+03 0.48354410954E+02
 0.25091853347E+02 0.13697419249E+02 0.77878650228E+01 0.74421476697E+01 0.78170949462E+01
 0.64216173009E+01 0.72237835691E+01 0.78170949462E+01 0.84325072615E+01 0.78192054736E+01
 0.78595316441E+01 0.12347915175E+02 0.22030474397E+02 0.37772385720E+02 0.88311280521E+02
 0.19758500815E+03 0.34908738851E+03 0.48534086550E+03 0.54045825895E+03 0.48534086550E+03
 0.34908738851E+03 0.19758500815E+03 0.88311280521E+02 0.37772385720E+02 0.22030474397E+02
 0.12347915175E+02 0.78595316441E+01 0.78192054736E+01 0.84325072615E+01 0.78170949462E+01
 0.71296892860E+01 0.74421476697E+01 0.78192054736E+01 0.76080927799E+01 0.77484357446E+01
 0.10640184213E+02 0.17752177741E+02 0.27883490981E+02 0.52426779103E+02 0.11097558899E+03
 0.19758500815E+03 0.27801670043E+03 0.31098495425E+03 0.27801670043E+03 0.19758500815E+03
 0.11097558899E+03 0.52426779103E+02 0.27883490981E+02 0.17752177741E+02 0.10640184213E+02
 0.77484357446E+01 0.76080927799E+01 0.78192054736E+01 0.74421476697E+01 0.77197916706E+01
 0.77878650228E+01 0.78595316441E+01 0.77484357446E+01 0.77637742476E+01 0.91104040271E+01
 0.13321993758E+02 0.20666754451E+02 0.30683612633E+02 0.52426779103E+02 0.88311280521E+02
 0.12393769761E+03 0.13897014927E+03 0.12393769761E+03 0.88311280521E+02 0.52426779103E+02
 0.30683612633E+02 0.20666754451E+02 0.13321993758E+02 0.91104040271E+01 0.77637742476E+01
 0.77484357446E+01 0.78595316441E+01 0.77878650228E+01 0.14219067689E+02 0.13697419249E+02
 0.12347915175E+02 0.10640184213E+02 0.91104040271E+01 0.85284144133E+01 0.99825813106E+01
 0.14224336930E+02 0.20666754451E+02 0.27883490981E+02 0.37772385720E+02 0.48354410954E+02
 0.53052947789E+02 0.48354410954E+02 0.37772385720E+02 0.27883490981E+02 0.20666754451E+02
 0.14224336930E+02 0.99825813106E+01 0.85284144133E+01 0.91104040271E+01 0.10640184213E+02
 0.12347915175E+02 0.13697419249E+02 0.26259163855E+02 0.25091853347E+02 0.22030474397E+02
 0.17752177741E+02 0.13321993758E+02 0.99825813106E+01 0.87399224920E+01 0.99825813106E+01
 0.13321993758E+02 0.17752177741E+02 0.22030474397E+02 0.25091853347E+02 0.26259163855E+02
 0.25091853347E+02 0.22030474397E+02 0.17752177741E+02 0.13321993758E+02 0.99825813106E+01
 0.87399224920E+01 0.99825813106E+01 0.13321993758E+02 0.17752177741E+02 0.22030474397E+02
 0.25091853347E+02 0.53052947789E+02 0.48354410954E+02 0.37772385720E+02 0.27883490981E+02
 0.20666754451E+02 0.14224336930E+02 0.99825813106E+01 0.85284144133E+01 0.91104040271E+01
 0.10640184213E+02 0.12347915175E+02 0.13697419249E+02 0.14219067689E+02 0.13697419249E+02
 0.12347915175E+02 0.10640184213E+02 0.91104040271E+01 0.85284144133E+01 0.99825813106E+01
 0.14224336930E+02 0.20666754451E+02 0.27883490981E+02 0.37772385720E+02 0.48354410954E+02
 0.13897014927E+03 0.12393769761E+03 0.88311280521E+02 0.52426779103E+02 0.30683612633E+02
 0.20666754451E+02 0.13321993758E+02 0.91104040271E+01 0.77637742476E+01 0.77484357446E+01
 0.78595316441E+01 0.77878650228E+01 0.77197916706E+01 0.77878650228E+01 0.78595316441E+01
 0.77484357446E+01 0.77637742476E+01 0.91104040271E+01 0.13321993758E+02 0.20666754451E+02
 0.30683612633E+02 0.52426779103E+02 0.88311280521E+02 0.12393769761E+03 0.31098495425E+03
 0.27801670043E+03 0.19758500815E+03 0.11097558899E+03 0.52426779103E+02 0.27883490981E+02
 0.17752177741E+02 0.10640184213E+02 0.77484357446E+01 0.76080927799E+01 0.78192054736E+01
 0.74421476697E+01 0.71296892860E+01 0.74421476697E+01 0.78192054736E+01 0.76080927799E+01
 0.77484357446E+01 0.10640184213E+02 0.17752177741E+02 0.27883490981E+02 0.52426779103E+02
 0.11097558899E+03 0.19758500815E+03 0.27801670043E+03 0.54045825895E+03 0.48534086550E+03
 0.34908738851E+03 0.19758500815E+03 0.88311280521E+02 0.37772385720E+02 0.22030474397E+02
 0.12347915175E+02 0.78595316441E+01 0.78192054736E+01 0.84325072615E+01 0.78170949462E+01
 0.72237835691E+01 0.78170949462E+01 0.84325072615E+01 0.78192054736E+01 0.78595316441E+01
 0.12347915175E+02 0.22030474397E+02 0.37772385720E+02 0.88311280521E+02 0.19758500815E+03
 0.34908738851E+03 0.48534086550E+03 0.74319192503E+03 0.66921917439E+03 0.48534086550E+03
 0.27801670043E+03 0.12393769761E+03 0.48354410954E+02 0.25091853347E+02 0.13697419249E+02
 0.77878650228E+01 0.74421476697E+01 0.78170949462E+01 0.64216173009E+01 0.53382588955E+01
 0.64216173009E+01 0.78170949462E+01 0.74421476697E+01 0.77878650228E+01 0.13697419249E+02
 0.25091853347E+02 0.48354410954E+02 0.12393769761E+03 0.27801670043E+03 0.48534086550E+03
 0.66921917439E+03 0.74319192503E+03 0.66921917439E+03 0.48534086550E+03 0.27801670043E+03
 0.12393769761E+03 0.48354410954E+02 0.25091853347E+02 0.13697419249E+02 0.77878650228E+01
 0.74421476697E+01 0.78170949462E+01 0.64216173009E+01 0.53382588955E+01 0.64216173009E+01
 0.78170949462E+01 0.74421476697E+01 0.77878650228E+01 0.13697419249E+02 0.25091853347E+02
 0.48354410954E+02 0.12393769761E+03 0.27801670043E+03 0.48534086550E+03 0.66921917439E+03
 0.66921917439E+03 0.60206777153E+03 0.43542476416E+03 0.24833482697E+03 0.11058710428E+03
 0.44292383899E+02 0.24022894637E+02 0.13216894419E+02 0.78282860936E+01 0.76614289637E+01
 0.82491335369E+01 0.72693754469E+01 0.64216173009E+01 0.72693754469E+01 0.82491335369E+01
 0.76614289637E+01 0.78282860936E+01 0.13216894419E+02 0.24022894637E+02 0.44292383899E+02
 0.11058710428E+03 0.24833482697E+03 0.43542476416E+03 0.60206777153E+03 0.48534086550E+03
 0.43542476416E+03 0.31230466552E+03 0.17616542616E+03 0.79116956217E+02 0.35187253757E+02
 0.21129245879E+02 0.11982447045E+02 0.78626975763E+01 0.78853675889E+01 0.85948211579E+01
 0.82491335369E+01 0.78170949462E+01 0.82491335369E+01 0.85948211579E+01 0.78853675889E+01
 0.78626975763E+01 0.11982447045E+02 0.21129245879E+02 0.35187253757E+02 0.79116956217E+02
 0.17616542616E+03 0.31230466552E+03 0.43542476416E+03 0.27801670043E+03 0.24833482697E+03
 0.17616542616E+03 0.99083809007E+02 0.47796458099E+02 0.26641592693E+02 0.17094185251E+02
 0.10436684782E+02 0.77683630674E+01 0.76347415475E+01 0.78853675889E+01 0.76614289637E+01
 0.74421476697E+01 0.76614289637E+01 0.78853675889E+01 0.76347415475E+01 0.77683630674E+01
 0.10436684782E+02 0.17094185251E+02 0.26641592693E+02 0.47796458099E+02 0.99083809007E+02
 0.17616542616E+03 0.24833482697E+03 0.12393769761E+03 0.11058710428E+03 0.79116956217E+02
 0.47796458099E+02 0.29086507111E+02 0.19912028609E+02 0.12960930322E+02 0.90610010265E+01
 0.78136521460E+01 0.77683630674E+01 0.78626975763E+01 0.78282860936E+01 0.77878650228E+01
 0.78282860936E+01 0.78626975763E+01 0.77683630674E+01 0.78136521460E+01 0.90610010265E+01
 0.12960930322E+02 0.19912028609E+02 0.29086507111E+02 0.47796458099E+02 0.79116956217E+02
 0.11058710428E+03 0.48354410954E+02 0.44292383899E+02 0.35187253757E+02 0.26641592693E+02
 0.19912028609E+02 0.13815842768E+02 0.98729250469E+01 0.85382263484E+01 0.90610010265E+01
 0.10436684782E+02 0.11982447045E+02 0.13216894419E+02 0.13697419249E+02 0.13216894419E+02
 0.11982447045E+02 0.10436684782E+02 0.90610010265E+01 0.85382263484E+01 0.98729250469E+01
 0.13815842768E+02 0.19912028609E+02 0.26641592693E+02 0.35187253757E+02 0.44292383899E+02
 0.25091853347E+02 0.24022894637E+02 0.21129245879E+02 0.17094185251E+02 0.12960930322E+02
 0.98729250469E+01 0.87294811399E+01 0.98729250469E+01 0.12960930322E+02 0.17094185251E+02
 0.21129245879E+02 0.24022894637E+02 0.25091853347E+02 0.24022894637E+02 0.21129245879E+02
 0.17094185251E+02 0.12960930322E+02 0.98729250469E+01 0.87294811399E+01 0.98729250469E+01
 0.12960930322E+02 0.17094185251E+02 0.21129245879E+02 0.24022894637E+02 0.13697419249E+02
 0.13216894419E+02 0.11982447045E+02 0.10436684782E+02 0.90610010265E+01 0.85382263484E+01
 0.98729250469E+01 0.13815842768E+02 0.19912028609E+02 0.26641592693E+02 0.35187253757E+02
 0.44292383899E+02 0.48354410954E+02 0.44292383899E+02 0.35187253757E+02 0.26641592693E+02
 0.19912028609E+02 0.13815842768E+02 0.98729250469E+01 0.85382263484E+01 0.90610010265E+01
 0.10436684782E+02 0.11982447045E+02 0.13216894419E+02 0.77878650228E+01 0.78282860936E+01
 0.78626975763E+01 0.77683630674E+01 0.78136521460E+01 0.90610010265E+01 0.12960930322E+02
 0.19912028609E+02 0.29086507111E+02 0.47796458099E+02 0.79116956217E+02 0.11058710428E+03
 0.12393769761E+03 0.11058710428E+03 0.79116956217E+02 0.47796458099E+02 0.29086507111E+02
 0.19912028609E+02 0.12960930322E+02 0.90610010265E+01 0.78136521460E+01 0.77683630674E+01
 0.78626975763E+01 0.78282860936E+01 0.74421476697E+01 0.76614289637E+01 0.78853675889E+01
 0.76347415475E+01 0.77683630674E+01 0.10436684782E+02 0.17094185251E+02 0.26641592693E+02
 0.47796458099E+02 0.99083809007E+02 0.17616542616E+03 0.24833482697E+03 0.27801670043E+03
 0.24833482697E+03 0.17616542616E+03 0.99083809007E+02 0.47796458099E+02 0.26641592693E+02
 0.17094185251E+02 0.10436684782E+02 0.77683630674E+01 0.76347415475E+01 0.78853675889E+01
 0.76614289637E+01 0.78170949462E+01 0.82491335369E+01 0.85948211579E+01 0.78853675889E+01
 0.78626975763E+01 0.11982447045E+02 0.21129245879E+02 0.35187253757E+02 0.79116956217E+02
 0.17616542616E+03 0.31230466552E+03 0.43542476416E+03 0.48534086550E+03 0.43542476416E+03
 0.31230466552E+03 0.17616542616E+03 0.79116956217E+02 0.35187253757E+02 0.21129245879E+02
 0.11982447045E+02 0.78626975763E+01 0.78853675889E+01 0.85948211579E+01 0.82491335369E+01
 0.64216173009E+01 0.72693754469E+01 0.82491335369E+01 0.76614289637E+01 0.78282860936E+01
 0.13216894419E+02 0.24022894637E+02 0.44292383899E+02 0.11058710428E+03 0.24833482697E+03
 0.43542476416E+03 0.60206777153E+03 0.66921917439E+03 0.60206777153E+03 0.43542476416E+03
 0.24833482697E+03 0.11058710428E+03 0.44292383899E+02 0.24022894637E+02 0.13216894419E+02
 0.78282860936E+01 0.76614289637E+01 0.82491335369E+01 0.72693754469E+01 0.53382588955E+01
 0.64216173009E+01 0.78170949462E+01 0.74421476697E+01 0.77878650228E+01 0.13697419249E+02
 0.25091853347E+02 0.48354410954E+02 0.12393769761E+03 0.27801670043E+03 0.48534086550E+03
 0.66921917439E+03 0.74319192503E+03 0.66921917439E+03 0.48534086550E+03 0.27801670043E+03
 0.12393769761E+03 0.48354410954E+02 0.25091853347E+02 0.13697419249E+02 0.77878650228E+01
 0.74421476697E+01 0.78170949462E+01 0.64216173009E+01 0.64216173009E+01 0.72693754469E+01
 0.82491335369E+01 0.76614289637E+01 0.78282860936E+01 0.13216894419E+02 0.24022894637E+02
 0.44292383899E+02 0.11058710428E+03 0.24833482697E+03 0.43542476416E+03 0.60206777153E+03
 0.66921917439E+03 0.60206777153E+03 0.43542476416E+03 0.24833482697E+03 0.11058710428E+03
 0.44292383899E+02 0.24022894637E+02 0.13216894419E+02 0.78282860936E+01 0.76614289637E+01
 0.82491335369E+01 0.72693754469E+01 0.78170949462E+01 0.82491335369E+01 0.85948211579E+01
 0.78853675889E+01 0.78626975763E+01 0.11982447045E+02 0.21129245879E+02 0.35187253757E+02
 0.79116956217E+02 0.17616542616E+03 0.31230466552E+03 0.43542476416E+03 0.48534086550E+03
 0.43542476416E+03 0.31230466552E+03 0.17616542616E+03 0.79116956217E+02 0.35187253757E+02
 0.21129245879E+02 0.11982447045E+02 0.78626975763E+01 0.78853675889E+01 0.85948211579E+01
 0.82491335369E+01 0.74421476697E+01 0.76614289637E+01 0.78853675889E+01 0.76347415475E+01
 0.77683630674E+01 0.10436684782E+02 0.17094185251E+02 0.26641592693E+02 0.47796458099E+02
 0.99083809007E+02 0.17616542616E+03 0.24833482697E+03 0.27801670043E+03 0.24833482697E+03
 0.17616542616E+03 0.99083809007E+02 0.47796458099E+02 0.26641592693E+02 0.17094185251E+02
 0.10436684782E+02 0.77683630674E+01 0.76347415475E+01 0.78853675889E+01 0.76614289637E+01
 0.77878650228E+01 0.78282860936E+01 0.78626975763E+01 0.77683630674E+01 0.78136521460E+01
 0.90610010265E+01 0.12960930322E+02 0.19912028609E+02 0.29086507111E+02 0.47796458099E+02
 0.79116956217E+02 0.11058710428E+03 0.12393769761E+03 0.11058710428E+03 0.79116956217E+02
 0.47796458099E+02 0.29086507111E+02 0.19912028609E+02 0.12960930322E+02 0.90610010265E+01
 0.78136521460E+01 0.77683630674E+01 0.78626975763E+01 0.78282860936E+01 0.13697419249E+02
 0.13216894419E+02 0.11982447045E+02 0.10436684782E+02 0.90610010265E+01 0.85382263484E+01
 0.98729250469E+01 0.13815842768E+02 0.19912028609E+02 0.26641592693E+02 0.35187253757E+02
 0.44292383899E+02 0.48354410954E+02 0.44292383899E+02 0.35187253757E+02 0.26641592693E+02
 0.19912028609E+02 0.13815842768E+02 0.98729250469E+01 0.85382263484E+01 0.90610010265E+01
 0.10436684782E+02 0.11982447045E+02 0.13216894419E+02 0.25091853347E+02 0.24022894637E+02
 0.21129245879E+02 0.17094185251E+02 0.12960930322E+02 0.98729250469E+01 0.87294811399E+01
 0.98729250469E+01 0.12960930322E+02 0.17094185251E+02 0.21129245879E+02 0.24022894637E+02
 0.25091853347E+02 0.24022894637E+02 0.21129245879E+02 0.17094185251E+02 0.12960930322E+02
 0.98729250469E+01 0.87294811399E+01 0.98729250469E+01 0.12960930322E+02 0.17094185251E+02
 0.21129245879E+02 0.24022894637E+02 0.48354410954E+02 0.44292383899E+02 0.35187253757E+02
 0.26641592693E+02 0.19912028609E+02 0.13815842768E+02 0.98729250469E+01 0.85382263484E+01
 0.90610010265E+01 0.10436684782E+02 0.11982447045E+02 0.13216894419E+02 0.13697419249E+02
 0.13216894419E+02 0.11982447045E+02 0.10436684782E+02 0.90610010265E+01 0.85382263484E+01
 0.98729250469E+01 0.13815842768E+02 0.19912028609E+02 0.26641592693E+02 0.35187253757E+02
 0.44292383899E+02 0.12393769761E+03 0.11058710428E+03 0.79116956217E+02 0.47796458099E+02
 0.29086507111E+02 0.19912028609E+02 0.12960930322E+02 0.90610010265E+01 0.78136521460E+01
 0.77683630674E+01 0.78626975763E+01 0.78282860936E+01 0.77878650228E+01 0.78282860936E+01
 0.78626975763E+01 0.77683630674E+01 0.78136521460E+01 0.90610010265E+01 0.12960930322E+02
 0.19912028609E+02 0.29086507111E+02 0.47796458099E+02 0.79116956217E+02 0.11058710428E+03
 0.27801670043E+03 0.24833482697E+03 0.17616542616E+03 0.99083809007E+02 0.47796458099E+02
 0.26641592693E+02 0.17094185251E+02 0.10436684782E+02 0.77683630674E+01 0.76347415475E+01
 0.78853675889E+01 0.76614289637E+01 0.74421476697E+01 0.76614289637E+01 0.78853675889E+01
 0.76347415475E+01 0.77683630674E+01 0.10436684782E+02 0.17094185251E+02 0.26641592693E+02
 0.47796458099E+02 0.99083809007E+02 0.17616542616E+03 0.24833482697E+03 0.48534086550E+03
 0.43542476416E+03 0.31230466552E+03 0.17616542616E+03 0.79116956217E+02 0.35187253757E+02
 0.21129245879E+02 0.11982447045E+02 0.78626975763E+01 0.78853675889E+01 0.85948211579E+01
 0.82491335369E+01 0.78170949461E+01 0.82491335369E+01 0.85948211579E+01 0.78853675889E+01
 0.78626975763E+01 0.11982447045E+02 0.21129245879E+02 0.35187253757E+02 0.79116956217E+02
 0.17616542616E+03 0.31230466552E+03 0.43542476416E+03 0.66921917439E+03 0.60206777153E+03
 0.43542476416E+03 0.24833482697E+03 0.11058710428E+03 0.44292383899E+02 0.24022894637E+02
 0.13216894419E+02 0.78282860936E+01 0.76614289637E+01 0.82491335369E+01 0.72693754469E+01
 0.64216173009E+01 0.72693754469E+01 0.82491335369E+01 0.76614289637E+01 0.78282860936E+01
 0.13216894419E+02 0.24022894637E+02 0.44292383899E+02 0.11058710428E+03 0.24833482697E+03
 0.43542476416E+03 0.60206777153E+03 0.54045825895E+03 0.48534086550E+03 0.34908738851E+03
 0.19758500815E+03 0.88311280521E+02 0.37772385720E+02 0.22030474397E+02 0.12347915175E+02
 0.78595316441E+01 0.78192054736E+01 0.84325072615E+01 0.78170949462E+01 0.72237835691E+01
 0.78170949462E+01 0.84325072615E+01 0.78192054736E+01 0.78595316441E+01 0.12347915175E+02
 0.22030474397E+02 0.37772385720E+02 0.88311280521E+02 0.19758500815E+03 0.34908738851E+03
 0.48534086550E+03 0.48534086550E+03 0.43542476416E+03 0.31230466552E+03 0.17616542616E+03
 0.79116956217E+02 0.35187253757E+02 0.21129245879E+02 0.11982447045E+02 0.78626975763E+01
 0.78853675889E+01 0.85948211579E+01 0.82491335369E+01 0.78170949462E+01 0.82491335369E+01
 0.85948211579E+01 0.78853675889E+01 0.78626975763E+01 0.11982447045E+02 0.21129245879E+02
 0.35187253757E+02 0.79116956217E+02 0.17616542616E+03 0.31230466552E+03 0.43542476416E+03
 0.34908738851E+03 0.31230466552E+03 0.22229861624E+03 0.12469709925E+03 0.57835267564E+02
 0.29420542514E+02 0.18673375006E+02 0.11053375780E+02 0.78584895341E+01 0.78923870163E+01
 0.85659938580E+01 0.85948211579E+01 0.84325072615E+01 0.85948211579E+01 0.85659938580E+01
 0.78923870163E+01 0.78584895341E+01 0.11053375780E+02 0.18673375006E+02 0.29420542514E+02
 0.57835267564E+02 0.12469709925E+03 0.22229861624E+03 0.31230466552E+03 0.19758500815E+03
 0.17616542616E+03 0.12469709925E+03 0.71240505498E+02 0.37439882653E+02 0.23637252468E+02
 0.15333572822E+02 0.99089362346E+01 0.78201665784E+01 0.76663490290E+01 0.78923870163E+01
 0.78853675889E+01 0.78192054736E+01 0.78853675889E+01 0.78923870163E+01 0.76663490290E+01
 0.78201665784E+01 0.99089362346E+01 0.15333572822E+02 0.23637252468E+02 0.37439882653E+02
 0.71240505498E+02 0.12469709925E+03 0.17616542616E+03 0.88311280521E+02 0.79116956217E+02
 0.57835267564E+02 0.37439882653E+02 0.25474577389E+02 0.17878484413E+02 0.12011067864E+02
 0.89027814345E+01 0.79169892997E+01 0.78201665784E+01 0.78584895341E+01 0.78626975763E+01
 0.78595316441E+01 0.78626975763E+01 0.78584895341E+01 0.78201665784E+01 0.79169892997E+01
 0.89027814345E+01 0.12011067864E+02 0.17878484413E+02 0.25474577389E+02 0.37439882653E+02
 0.57835267564E+02 0.79116956217E+02 0.37772385720E+02 0.35187253757E+02 0.29420542514E+02
 0.23637252468E+02 0.17878484413E+02 0.12766388132E+02 0.95897914479E+01 0.85323224428E+01
 0.89027814345E+01 0.99089362346E+01 0.11053375780E+02 0.11982447045E+02 0.12347915175E+02
 0.11982447045E+02 0.11053375780E+02 0.99089362346E+01 0.89027814345E+01 0.85323224428E+01
 0.95897914479E+01 0.12766388132E+02 0.17878484413E+02 0.23637252468E+02 0.29420542514E+02
 0.35187253757E+02 0.22030474397E+02 0.21129245879E+02 0.18673375006E+02 0.15333572822E+02
 0.12011067864E+02 0.95897914479E+01 0.87058601602E+01 0.95897914479E+01 0.12011067864E+02
 0.15333572822E+02 0.18673375006E+02 0.21129245879E+02 0.22030474397E+02 0.21129245879E+02
 0.18673375006E+02 0.15333572822E+02 0.12011067864E+02 0.95897914479E+01 0.87058601602E+01
 0.95897914479E+01 0.12011067864E+02 0.15333572822E+02 0.18673375006E+02 0.21129245879E+02
 0.12347915175E+02 0.11982447045E+02 0.11053375780E+02 0.99089362346E+01 0.89027814345E+01
 0.85323224428E+01 0.95897914479E+01 0.12766388132E+02 0.17878484413E+02 0.23637252468E+02
 0.29420542514E+02 0.35187253757E+02 0.37772385720E+02 0.35187253757E+02 0.29420542514E+02
 0.23637252468E+02 0.17878484413E+02 0.12766388132E+02 0.95897914479E+01 0.85323224428E+01
 0.89027814345E+01 0.99089362346E+01 0.11053375780E+02 0.11982447045E+02 0.78595316441E+01
 0.78626975763E+01 0.78584895341E+01 0.78201665784E+01 0.79169892997E+01 0.89027814345E+01
 0.12011067864E+02 0.17878484413E+02 0.25474577389E+02 0.37439882653E+02 0.57835267564E+02
 0.79116956217E+02 0.88311280521E+02 0.79116956217E+02 0.57835267564E+02 0.37439882653E+02
 0.25474577389E+02 0.17878484413E+02 0.12011067864E+02 0.89027814345E+01 0.79169892997E+01
 0.78201665784E+01 0.78584895341E+01 0.78626975763E+01 0.78192054736E+01 0.78853675889E+01
 0.78923870163E+01 0.76663490290E+01 0.78201665784E+01 0.99089362346E+01 0.15333572822E+02
 0.23637252468E+02 0.37439882653E+02 0.71240505498E+02 0.12469709925E+03 0.17616542616E+03
 0.19758500815E+03 0.17616542616E+03 0.12469709925E+03 0.71240505498E+02 0.37439882653E+02
 0.23637252468E+02 0.15333572822E+02 0.99089362346E+01 0.78201665784E+01 0.76663490290E+01
 0.78923870163E+01 0.78853675889E+01 0.84325072615E+01 0.85948211579E+01 0.85659938580E+01
 0.78923870163E+01 0.78584895341E+01 0.11053375780E+02 0.18673375006E+02 0.29420542514E+02
 0.57835267564E+02 0.12469709925E+03 0.22229861624E+03 0.31230466552E+03 0.34908738851E+03
 0.31230466552E+03 0.22229861624E+03 0.12469709925E+03 0.57835267564E+02 0.29420542514E+02
 0.18673375006E+02 0.11053375780E+02 0.78584895341E+01 0.78923870163E+01 0.85659938580E+01
 0.85948211579E+01 0.78170949462E+01 0.82491335369E+01 0.85948211579E+01 0.78853675889E+01
 0.78626975763E+01 0.11982447045E+02 0.21129245879E+02 0.35187253757E+02 0.79116956217E+02
 0.17616542616E+03 0.31230466552E+03 0.43542476416E+03 0.48534086550E+03 0.43542476416E+03
 0.31230466552E+03 0.17616542616E+03 0.79116956217E+02 0.35187253757E+02 0.21129245879E+02
 0.11982447045E+02 0.78626975763E+01 0.78853675889E+01 0.85948211579E+01 0.82491335369E+01
 0.72237835691E+01 0.78170949462E+01 0.84325072615E+01 0.78192054736E+01 0.78595316441E+01
 0.12347915175E+02 0.22030474397E+02 0.37772385720E+02 0.88311280521E+02 0.19758500815E+03
 0.34908738851E+03 0.48534086550E+03 0.54045825895E+03 0.48534086550E+03 0.34908738851E+03
 0.19758500815E+03 0.88311280521E+02 0.37772385720E+02 0.22030474397E+02 0.12347915175E+02
 0.78595316441E+01 0.78192054736E+01 0.84325072615E+01 0.78170949462E+01 0.78170949462E+01
 0.82491335369E+01 0.85948211579E+01 0.78853675889E+01 0.78626975763E+01 0.11982447045E+02
 0.21129245879E+02 0.35187253757E+02 0.79116956217E+02 0.17616542616E+03 0.31230466552E+03
 0.43542476416E+03 0.48534086550E+03 0.43542476416E+03 0.31230466552E+03 0.17616542616E+03
 0.79116956217E+02 0.35187253757E+02 0.21129245879E+02 0.11982447045E+02 0.78626975763E+01
 0.78853675889E+01 0.85948211579E+01 0.82491335369E+01 0.84325072615E+01 0.85948211579E+01
 0.85659938580E+01 0.78923870163E+01 0.78584895341E+01 0.11053375780E+02 0.18673375006E+02
 0.29420542514E+02 0.57835267564E+02 0.12469709925E+03 0.22229861624E+03 0.31230466552E+03
 0.34908738851E+03 0.31230466552E+03 0.22229861624E+03 0.12469709925E+03 0.57835267564E+02
 0.29420542514E+02 0.18673375006E+02 0.11053375780E+02 0.78584895341E+01 0.78923870163E+01
 0.85659938580E+01 0.85948211579E+01 0.78192054736E+01 0.78853675889E+01 0.78923870163E+01
 0.76663490290E+01 0.78201665784E+01 0.99089362346E+01 0.15333572822E+02 0.23637252468E+02
 0.37439882653E+02 0.71240505498E+02 0.12469709925E+03 0.17616542616E+03 0.19758500815E+03
 0.17616542616E+03 0.12469709925E+03 0.71240505498E+02 0.37439882653E+02 0.23637252468E+02
 0.15333572822E+02 0.99089362346E+01 0.78201665784E+01 0.76663490290E+01 0.78923870163E+01
 0.78853675889E+01 0.78595316441E+01 0.78626975763E+01 0.78584895341E+01 0.78201665784E+01
 0.79169892997E+01 0.89027814345E+01 0.12011067864E+02 0.17878484413E+02 0.25474577389E+02
 0.37439882653E+02 0.57835267564E+02 0.79116956217E+02 0.88311280521E+02 0.79116956217E+02
 0.57835267564E+02 0.37439882653E+02 0.25474577389E+02 0.17878484413E+02 0.12011067864E+02
 0.89027814345E+01 0.79169892997E+01 0.78201665784E+01 0.78584895341E+01 0.78626975763E+01
 0.12347915175E+02 0.11982447045E+02 0.11053375780E+02 0.99089362346E+01 0.89027814345E+01
 0.85323224428E+01 0.95897914479E+01 0.12766388132E+02 0.17878484413E+02 0.23637252468E+02
 0.29420542514E+02 0.35187253757E+02 0.37772385720E+02 0.35187253757E+02 0.29420542514E+02
 0.23637252468E+02 0.17878484413E+02 0.12766388132E+02 0.95897914479E+01 0.85323224428E+01
 0.89027814345E+01 0.99089362346E+01 0.11053375780E+02 0.11982447045E+02 0.22030474397E+02
 0.21129245879E+02 0.18673375006E+02 0.15333572822E+02 0.12011067864E+02 0.95897914479E+01
 0.87058601602E+01 0.95897914479E+01 0.12011067864E+02 0.15333572822E+02 0.18673375006E+02
 0.21129245879E+02 0.22030474397E+02 0.21129245879E+02 0.18673375006E+02 0.15333572822E+02
 0.12011067864E+02 0.95897914479E+01 0.87058601602E+01 0.95897914479E+01 0.12011067864E+02
 0.15333572822E+02 0.18673375006E+02 0.21129245879E+02 0.37772385720E+02 0.35187253757E+02
 0.29420542514E+02 0.23637252468E+02 0.17878484413E+02 0.12766388132E+02 0.95897914479E+01
 0.85323224428E+01 0.89027814345E+01 0.99089362346E+01 0.11053375780E+02 0.11982447045E+02
 0.12347915175E+02 0.11982447045E+02 0.11053375780E+02 0.99089362346E+01 0.89027814345E+01