   4   4   0   0
  0.1200752E+02  0.3635000E-09  0.3635000E-09  0.3635000E-09  0.5000000E-15
  1.000000000000000E-004
  CAR 
 unknown system                          
     27.70625183     -3.69348599  301      6.98947136      1.00000000
     -3.693  0.0000E+00  0.0000E+00
     -3.589  0.0000E+00  0.0000E+00
     -3.484  0.0000E+00  0.0000E+00
     -3.379 -0.4981E-31 -0.5214E-32
     -3.275 -0.2412E-27 -0.2525E-28
     -3.170 -0.6725E-24 -0.7042E-25
     -3.065 -0.1079E-20 -0.1130E-21
     -2.961 -0.9944E-18 -0.1042E-18
     -2.856 -0.5093E-15 -0.5341E-16
     -2.751 -0.1541E-12 -0.1618E-13
     -2.647 -0.2651E-10 -0.2791E-11
     -2.542 -0.2593E-08 -0.2742E-09
     -2.437 -0.1432E-06 -0.1526E-07
     -2.333 -0.4411E-05 -0.4769E-06
     -2.228 -0.7424E-04 -0.8248E-05
     -2.123 -0.6518E-03 -0.7646E-04
     -2.019 -0.2607E-02 -0.3494E-03
     -1.914 -0.1680E-02 -0.5252E-03
     -1.810  0.1854E-01  0.1415E-02
     -1.705  0.5418E-01  0.7085E-02
     -1.600  0.5279E-01  0.1261E-01
     -1.496  0.6551E-02  0.1330E-01
     -1.391  0.2535E-01  0.1595E-01
     -1.286  0.2100E+00  0.3793E-01
     -1.182  0.3783E+00  0.7753E-01
     -1.077  0.2535E+00  0.1041E+00
     -0.972  0.4853E-01  0.1091E+00
     -0.868  0.2092E+00  0.1310E+00
     -0.763  0.6534E+00  0.1994E+00
     -0.658  0.7120E+00  0.2739E+00
     -0.554  0.2889E+00  0.3042E+00
     -0.449  0.8635E-01  0.3132E+00
     -0.344  0.3310E+00  0.3479E+00
     -0.240  0.4989E+00  0.4001E+00
     -0.135  0.2761E+00  0.4290E+00
     -0.030  0.6611E-01  0.4359E+00
      0.074  0.1862E+00  0.4554E+00
      0.179  0.3387E+00  0.4908E+00
      0.284  0.1991E+00  0.5117E+00
      0.388  0.2116E+00  0.5338E+00
      0.493  0.9159E+00  0.6297E+00
      0.598  0.1482E+01  0.7848E+00
      0.702  0.1030E+01  0.8926E+00
      0.807  0.7506E+00  0.9712E+00
      0.912  0.1332E+01  0.1111E+01
      1.016  0.1356E+01  0.1253E+01
      1.121  0.5212E+00  0.1307E+01
      1.226 -0.3979E-01  0.1303E+01
      1.330 -0.1148E+00  0.1291E+01
      1.435  0.1405E-01  0.1292E+01
      1.540  0.3791E+00  0.1332E+01
      1.644  0.9080E+00  0.1427E+01
      1.749  0.1527E+01  0.1587E+01
      1.854  0.1986E+01  0.1795E+01
      1.958  0.1974E+01  0.2001E+01
      2.063  0.1979E+01  0.2208E+01
      2.168  0.1711E+01  0.2388E+01
      2.272  0.1057E+01  0.2498E+01
      2.377  0.1131E+01  0.2617E+01
      2.482  0.1349E+01  0.2758E+01
      2.586  0.7447E+00  0.2836E+01
      2.691  0.7946E+00  0.2919E+01
      2.796  0.2242E+01  0.3154E+01
      2.900  0.3271E+01  0.3496E+01
      3.005  0.3807E+01  0.3894E+01
      3.110  0.5032E+01  0.4421E+01
      3.214  0.7244E+01  0.5179E+01
      3.319  0.1144E+02  0.6377E+01
      3.424  0.1534E+02  0.7983E+01
      3.528  0.1463E+02  0.9514E+01
      3.633  0.1091E+02  0.1066E+02
      3.738  0.1072E+02  0.1178E+02
      3.842  0.1579E+02  0.1343E+02
      3.947  0.1991E+02  0.1551E+02
      4.052  0.1912E+02  0.1752E+02
      4.156  0.1837E+02  0.1944E+02
      4.261  0.1938E+02  0.2147E+02
      4.366  0.1975E+02  0.2354E+02
      4.470  0.1982E+02  0.2561E+02
      4.575  0.2023E+02  0.2773E+02
      4.680  0.2158E+02  0.2999E+02
      4.784  0.2164E+02  0.3225E+02
      4.889  0.2021E+02  0.3437E+02
      4.994  0.1908E+02  0.3636E+02
      5.098  0.1601E+02  0.3804E+02
      5.203  0.1267E+02  0.3936E+02
      5.308  0.1155E+02  0.4057E+02
      5.412  0.9443E+01  0.4156E+02
      5.517  0.5282E+01  0.4211E+02
      5.622  0.1838E+01  0.4231E+02
      5.726  0.6903E+00  0.4238E+02
      5.831  0.1296E+01  0.4251E+02
      5.936  0.1926E+01  0.4272E+02
      6.040  0.1295E+01  0.4285E+02
      6.145  0.2739E+00  0.4288E+02
      6.250 -0.9227E-01  0.4287E+02
      6.354 -0.7792E-01  0.4286E+02
      6.459 -0.1224E+00  0.4285E+02
      6.564 -0.2008E+00  0.4283E+02
      6.668  0.4655E+00  0.4288E+02
      6.773  0.2598E+01  0.4315E+02
      6.878  0.4371E+01  0.4361E+02
      6.982  0.3580E+01  0.4398E+02
      7.087  0.1973E+01  0.4419E+02
      7.192  0.1531E+01  0.4435E+02
      7.296  0.1169E+01  0.4447E+02
      7.401  0.3452E+00  0.4451E+02
      7.506 -0.1305E+00  0.4449E+02
      7.610 -0.3552E-01  0.4449E+02
      7.715  0.6648E+00  0.4456E+02
      7.820  0.1484E+01  0.4471E+02
      7.924  0.1277E+01  0.4485E+02
      8.029  0.3406E+00  0.4488E+02
      8.134 -0.7296E-01  0.4488E+02
      8.238  0.4510E+00  0.4492E+02
      8.343  0.1344E+01  0.4506E+02
      8.448  0.1319E+01  0.4520E+02
      8.552  0.5331E+00  0.4526E+02
      8.657  0.7684E+00  0.4534E+02
      8.762  0.1993E+01  0.4555E+02
      8.866  0.2094E+01  0.4577E+02
      8.971  0.8980E+00  0.4586E+02
      9.076  0.9789E-01  0.4587E+02
      9.180  0.8646E-01  0.4588E+02
      9.285  0.6870E+00  0.4595E+02
      9.390  0.1386E+01  0.4610E+02
      9.494  0.1137E+01  0.4622E+02
      9.599  0.8822E+00  0.4631E+02
      9.704  0.2125E+01  0.4653E+02
      9.808  0.3085E+01  0.4685E+02
      9.913  0.2162E+01  0.4708E+02
     10.018  0.9982E+00  0.4718E+02
     10.122  0.4441E+00  0.4723E+02
     10.227  0.9217E-01  0.4724E+02
     10.332 -0.5044E-01  0.4723E+02
     10.436 -0.5870E-01  0.4723E+02
     10.541 -0.2684E-01  0.4723E+02
     10.646  0.2189E+00  0.4725E+02
     10.750  0.6612E+00  0.4732E+02
     10.855  0.7253E+00  0.4739E+02
     10.960  0.2742E+00  0.4742E+02
     11.064 -0.6545E-01  0.4742E+02
     11.169  0.2102E+00  0.4744E+02
     11.274  0.1063E+01  0.4755E+02
     11.378  0.1427E+01  0.4770E+02
     11.483  0.9003E+00  0.4779E+02
     11.588  0.1191E+01  0.4792E+02
     11.692  0.2560E+01  0.4818E+02
     11.797  0.2649E+01  0.4846E+02
     11.902  0.1126E+01  0.4858E+02
     12.006  0.1369E+00  0.4859E+02
     12.111  0.4124E+00  0.4864E+02
     12.216  0.1479E+01  0.4879E+02
     12.320  0.2883E+01  0.4909E+02
     12.425  0.2971E+01  0.4941E+02
     12.530  0.1282E+01  0.4954E+02
     12.634  0.1785E+00  0.4956E+02
     12.739  0.7477E+00  0.4964E+02
     12.844  0.1567E+01  0.4980E+02
     12.948  0.1398E+01  0.4995E+02
     13.053  0.7445E+00  0.5002E+02
     13.158  0.2594E+00  0.5005E+02
     13.262  0.1483E-03  0.5005E+02
     13.367 -0.1184E+00  0.5004E+02
     13.472 -0.1689E+00  0.5002E+02
     13.576  0.3799E+00  0.5006E+02
     13.681  0.2046E+01  0.5028E+02
     13.786  0.3124E+01  0.5060E+02
     13.890  0.1938E+01  0.5081E+02
     13.995  0.2890E+00  0.5084E+02
     14.100 -0.1358E+00  0.5082E+02
     14.204  0.3364E+00  0.5086E+02
     14.309  0.1200E+01  0.5098E+02
     14.414  0.1708E+01  0.5116E+02
     14.518  0.1401E+01  0.5131E+02
     14.623  0.8229E+00  0.5139E+02
     14.728  0.6583E+00  0.5146E+02
     14.832  0.1249E+01  0.5159E+02
     14.937  0.1794E+01  0.5178E+02
     15.042  0.1610E+01  0.5195E+02
     15.146  0.1493E+01  0.5211E+02
     15.251  0.1965E+01  0.5231E+02
     15.356  0.2748E+01  0.5260E+02
     15.460  0.3090E+01  0.5292E+02
     15.565  0.2029E+01  0.5313E+02
     15.670  0.4533E+00  0.5318E+02
     15.774 -0.1209E+00  0.5317E+02
     15.879  0.4649E+00  0.5322E+02
     15.984  0.1385E+01  0.5336E+02
     16.088  0.1342E+01  0.5350E+02
     16.193  0.5097E+00  0.5356E+02
     16.298  0.2760E+00  0.5359E+02
     16.402  0.7215E+00  0.5366E+02
     16.507  0.1065E+01  0.5377E+02
     16.612  0.1282E+01  0.5391E+02
     16.716  0.1642E+01  0.5408E+02
     16.821  0.1901E+01  0.5428E+02
     16.926  0.2084E+01  0.5450E+02
     17.030  0.2348E+01  0.5474E+02
     17.135  0.2139E+01  0.5497E+02
     17.240  0.1281E+01  0.5510E+02
     17.344  0.4903E+00  0.5515E+02
     17.449  0.2119E+00  0.5517E+02
     17.554  0.6043E+00  0.5524E+02
     17.658  0.1333E+01  0.5538E+02
     17.763  0.1281E+01  0.5551E+02
     17.868  0.9216E+00  0.5561E+02
     17.972  0.1554E+01  0.5577E+02
     18.077  0.2430E+01  0.5602E+02
     18.182  0.2502E+01  0.5629E+02
     18.286  0.1710E+01  0.5646E+02
     18.391  0.5141E+00  0.5652E+02
     18.496  0.1728E+00  0.5654E+02
     18.600  0.1455E+01  0.5669E+02
     18.705  0.2963E+01  0.5700E+02
     18.810  0.2583E+01  0.5727E+02
     18.914  0.1529E+01  0.5743E+02
     19.019  0.2530E+01  0.5769E+02
     19.124  0.4172E+01  0.5813E+02
     19.228  0.3288E+01  0.5847E+02
     19.333  0.9828E+00  0.5858E+02
     19.438 -0.1283E+00  0.5856E+02
     19.542 -0.1524E+00  0.5855E+02
     19.647 -0.3887E-01  0.5854E+02
     19.752 -0.1759E-01  0.5854E+02
     19.856 -0.6178E-01  0.5854E+02
     19.961 -0.8736E-01  0.5853E+02
     20.066  0.2836E+00  0.5856E+02
     20.170  0.1321E+01  0.5869E+02
     20.275  0.2334E+01  0.5894E+02
     20.380  0.2382E+01  0.5919E+02
     20.484  0.1426E+01  0.5934E+02
     20.589  0.3634E+00  0.5938E+02
     20.694 -0.6497E-01  0.5937E+02
     20.798 -0.6533E-01  0.5936E+02
     20.903 -0.1686E-01  0.5936E+02
     21.008 -0.2168E-02  0.5936E+02
     21.112 -0.1553E-03  0.5936E+02
     21.217 -0.6413E-05  0.5936E+02
     21.322 -0.1543E-06  0.5936E+02
     21.426 -0.3546E-08  0.5936E+02
     21.531 -0.1236E-06  0.5936E+02
     21.636 -0.6216E-05  0.5936E+02
     21.740 -0.1740E-03  0.5936E+02
     21.845 -0.2649E-02  0.5936E+02
     21.950 -0.2076E-01  0.5936E+02
     22.054 -0.7082E-01  0.5935E+02
     22.159 -0.4601E-02  0.5935E+02
     22.264  0.5844E+00  0.5941E+02
     22.368  0.1435E+01  0.5956E+02
     22.473  0.1370E+01  0.5970E+02
     22.578  0.4931E+00  0.5976E+02
     22.682 -0.2952E-01  0.5975E+02
     22.787 -0.6556E-01  0.5975E+02
     22.892 -0.1728E-01  0.5974E+02
     22.996 -0.2046E-02  0.5974E+02
     23.101 -0.1258E-03  0.5974E+02
     23.206 -0.4221E-05  0.5974E+02
     23.310 -0.7894E-07  0.5974E+02
     23.415 -0.8331E-09  0.5974E+02
     23.520 -0.4995E-11  0.5974E+02
     23.624 -0.1711E-13  0.5974E+02
     23.729  0.0000E+00  0.5974E+02
     23.834  0.0000E+00  0.5974E+02
     23.938  0.0000E+00  0.5974E+02
     24.043 -0.5261E-29  0.5974E+02
     24.148 -0.2260E-25  0.5974E+02
     24.252 -0.5589E-22  0.5974E+02
     24.357 -0.7951E-19  0.5974E+02
     24.462 -0.6499E-16  0.5974E+02
     24.566 -0.2954E-13  0.5974E+02
     24.671 -0.7896E-11  0.5974E+02
     24.776 -0.1203E-08  0.5974E+02
     24.880 -0.1040E-06  0.5974E+02
     24.985 -0.5065E-05  0.5974E+02
     25.090 -0.1372E-03  0.5974E+02
     25.194 -0.2016E-02  0.5974E+02
     25.299 -0.1519E-01  0.5974E+02
     25.404 -0.4884E-01  0.5974E+02
     25.508  0.7361E-02  0.5974E+02
     25.613  0.4228E+00  0.5978E+02
     25.718  0.9762E+00  0.5988E+02
     25.822  0.8877E+00  0.5998E+02
     25.927  0.2982E+00  0.6001E+02
     26.032 -0.2682E-01  0.6001E+02
     26.136 -0.4171E-01  0.6000E+02
     26.241 -0.1043E-01  0.6000E+02
     26.346 -0.1188E-02  0.6000E+02
     26.450 -0.7057E-04  0.6000E+02
     26.555 -0.2290E-05  0.6000E+02
     26.660 -0.4149E-07  0.6000E+02
     26.764 -0.4242E-09  0.6000E+02
     26.869 -0.2465E-11  0.6000E+02
     26.974 -0.8146E-14  0.6000E+02
     27.078  0.0000E+00  0.6000E+02
     27.183  0.0000E+00  0.6000E+02
     27.288  0.0000E+00  0.6000E+02
     27.392  0.0000E+00  0.6000E+02
     27.497  0.0000E+00  0.6000E+02
     27.602  0.0000E+00  0.6000E+02
     27.706  0.0000E+00  0.6000E+02
