    4    4    1    1
  0.1200752E+02  0.3635000E-09  0.3635000E-09  0.3635000E-09  0.5000000E-15
  1.000000000000000E-004
  CAR 
 unknown system                          
     44     10     30
 
  0.0000000E+00  0.0000000E+00  0.0000000E+00  0.8000000E-02
    1       -1.693486   1.000000
    2        3.274258   1.000000
    3        3.274258   1.000000
    4        3.274258   1.000000
    5        3.388025   1.000000
    6        3.388025   1.000000
    7        3.388025   1.000000
    8        4.221825   1.000000
    9        4.221825   1.000000
   10        4.221825   1.000000
   11        5.258195   1.000000
   12        5.258195   1.000000
   13        5.258195   1.000000
   14        5.258195   1.000000
   15        5.258195   1.000000
   16        5.258195   1.000000
   17        5.456465   1.000000
   18        5.456465   1.000000
   19        5.456465   1.000000
   20        5.627138   1.000000
   21        5.627138   1.000000
   22        9.061290  -0.000000
   23        9.061290  -0.000000
   24        9.061290  -0.000000
   25       14.177485   0.000000
   26       14.177485   0.000000
   27       14.177485   0.000000
   28       20.439430   0.000000
   29       20.439430   0.000000
   30       20.439430   0.000000
 
  0.2000000E+00  0.0000000E+00  0.0000000E+00  0.4800000E-01
    1       -1.217722   1.000000
    2        3.261657   1.000000
    3        3.407098   1.000000
    4        3.420909   1.000000
    5        3.420909   1.000000
    6        3.445166   1.000000
    7        3.445166   1.000000
    8        4.133255   1.000000
    9        4.360965   1.000000
   10        4.360965   1.000000
   11        4.663251   1.000000
   12        4.663251   1.000000
   13        4.894137   1.000000
   14        4.896449   1.000000
   15        4.896449   1.000000
   16        5.150193   1.000000
   17        5.150193   1.000000
   18        5.287523   1.000000
   19        5.287523   1.000000
   20        5.421378   1.000000
   21        5.705022   1.000000
   22        6.994682   0.477960
   23        9.989627  -0.000000
   24        9.989627  -0.000000
   25       14.363724   0.000000
   26       14.363724   0.000000
   27       17.322830   0.000000
   28       18.076708   0.000000
   29       18.076708   0.000000
   30       18.769379   0.000000
 
  0.4000000E+00  0.0000000E+00  0.0000000E+00  0.4800000E-01
    1        0.140601   1.000000
    2        1.776598   1.000000
    3        3.293447   1.000000
    4        3.312862   1.000000
    5        3.312862   1.000000
    6        3.485627   1.000000
    7        3.485627   1.000000
    8        3.913905   1.000000
    9        4.007296   1.000000
   10        4.007296   1.000000
   11        4.209889   1.000000
   12        4.209889   1.000000
   13        4.503365   1.000000
   14        4.666587   1.000000
   15        4.762235   1.000000
   16        4.762235   1.000000
   17        4.858008   1.000000
   18        4.858008   1.000000
   19        4.890044   1.000000
   20        4.890044   1.000000
   21        5.334086   1.000000
   22        5.927930   1.000000
   23       12.127941  -0.000000
   24       12.127941  -0.000000
   25       14.873533   0.000000
   26       14.873533   0.000000
   27       15.005103   0.000000
   28       15.005103   0.000000
   29       16.555903   0.000000
   30       16.555903   0.000000
 
  0.2000000E+00  0.2000000E+00  0.0000000E+00  0.9600000E-01
    1       -0.752358   1.000000
    2        3.072798   1.000000
    3        3.255850   1.000000
    4        3.371865   1.000000
    5        3.371865   1.000000
    6        3.499801   1.000000
    7        3.499801   1.000000
    8        4.111760   1.000000
    9        4.132767   1.000000
   10        4.423509   1.000000
   11        4.423875   1.000000
   12        4.458626   1.000000
   13        4.658589   1.000000
   14        4.658589   1.000000
   15        4.660296   1.000000
   16        4.914167   1.000000
   17        4.914167   1.000000
   18        5.030851   1.000000
   19        5.220426   1.000000
   20        5.220426   1.000000
   21        5.400181   1.000000
   22        7.803164  -0.000000
   23        7.803164  -0.000000
   24       10.762805  -0.000000
   25       14.335978   0.000000
   26       14.840727   0.000000
   27       17.653129   0.000000
   28       17.653129   0.000000
   29       18.640866   0.000000
   30       18.640866   0.000000
 
  0.4000000E+00  0.2000000E+00  0.0000000E+00  0.1920000E+00
    1        0.550849   1.000000
    2        2.056102   1.000000
    3        3.305726   1.000000
    4        3.379781   1.000000
    5        3.446031   1.000000
    6        3.460970   1.000000
    7        3.829999   1.000000
    8        3.843950   1.000000
    9        3.890412   1.000000
   10        4.108424   1.000000
   11        4.147531   1.000000
   12        4.306076   1.000000
   13        4.630320   1.000000
   14        4.677001   1.000000
   15        4.685638   1.000000
   16        4.688815   1.000000
   17        4.766423   1.000000
   18        4.792642   1.000000
   19        4.993733   1.000000
   20        5.225223   1.000000
   21        5.345649   1.000000
   22        5.499154   1.000000
   23        9.372842  -0.000000
   24       11.658412  -0.000000
   25       12.799591   0.000000
   26       15.379863   0.000000
   27       15.457205   0.000000
   28       16.939904   0.000000
   29       18.718177   0.000000
   30       20.192428   0.000000
 
  0.4000000E+00  0.4000000E+00  0.0000000E+00  0.9600000E-01
    1        1.597140   1.000000
    2        3.026501   1.000000
    3        3.026501   1.000000
    4        3.587588   1.000000
    5        3.890739   1.000000
    6        3.920653   1.000000
    7        3.935987   1.000000
    8        3.935987   1.000000
    9        3.953056   1.000000
   10        3.998505   1.000000
   11        3.998505   1.000000
   12        4.322386   1.000000
   13        4.398522   1.000000
   14        4.555307   1.000000
   15        4.555307   1.000000
   16        4.744598   1.000000
   17        4.909654   1.000000
   18        4.909654   1.000000
   19        4.977786   1.000000
   20        5.309789   1.000000
   21        5.344909   1.000000
   22        6.902025   0.833702
   23        6.902025   0.833702
   24        8.782717  -0.000000
   25       14.554720   0.000000
   26       16.383071   0.000000
   27       17.097322   0.000000
   28       17.097322   0.000000
   29       18.204750   0.000000
   30       18.204750   0.000000
 
  0.2000000E+00  0.2000000E+00  0.2000000E+00  0.6400000E-01
    1       -0.303914   1.000000
    2        3.136782   1.000000
    3        3.136782   1.000000
    4        3.136782   1.000000
    5        3.314801   1.000000
    6        3.314801   1.000000
    7        3.314801   1.000000
    8        4.146646   1.000000
    9        4.312113   1.000000
   10        4.312113   1.000000
   11        4.312113   1.000000
   12        4.351639   1.000000
   13        4.351639   1.000000
   14        4.643083   1.000000
   15        4.643083   1.000000
   16        4.643083   1.000000
   17        4.924721   1.000000
   18        4.924721   1.000000
   19        5.336400   1.000000
   20        5.336400   1.000000
   21        5.336400   1.000000
   22        8.345999  -0.000000
   23        8.345999  -0.000000
   24        8.345999  -0.000000
   25       15.199597   0.000000
   26       15.199597   0.000000
   27       15.199597   0.000000
   28       17.977755   0.000000
   29       17.977755   0.000000
   30       17.977755   0.000000
 
  0.4000000E+00  0.2000000E+00  0.2000000E+00  0.1920000E+00
    1        0.911134   1.000000
    2        2.418446   1.000000
    3        3.495553   1.000000
    4        3.495553   1.000000
    5        3.652126   1.000000
    6        3.652126   1.000000
    7        3.803830   1.000000
    8        3.810256   1.000000
    9        4.192541   1.000000
   10        4.192541   1.000000
   11        4.209771   1.000000
   12        4.282147   1.000000
   13        4.428440   1.000000
   14        4.512839   1.000000
   15        4.521916   1.000000
   16        4.521916   1.000000
   17        4.961680   1.000000
   18        4.982840   1.000000
   19        4.982840   1.000000
   20        4.990006   1.000000
   21        5.116878   1.000000
   22        5.882593   1.000000
   23        9.743962  -0.000000
   24        9.743962  -0.000000
   25       12.339320  -0.000000
   26       12.339320  -0.000000
   27       16.737334   0.000000
   28       19.024323   0.000000
   29       19.118596   0.000000
   30       19.118596   0.000000
 
  0.4000000E+00  0.4000000E+00  0.2000000E+00  0.1920000E+00
    1        1.825656   1.000000
    2        2.813357   1.000000
    3        2.813357   1.000000
    4        3.266379   1.000000
    5        3.709831   1.000000
    6        3.709831   1.000000
    7        3.883658   1.000000
    8        3.949920   1.000000
    9        3.987698   1.000000
   10        3.987698   1.000000
   11        4.157615   1.000000
   12        4.159090   1.000000
   13        4.393321   1.000000
   14        4.400935   1.000000
   15        4.400935   1.000000
   16        4.540686   1.000000
   17        4.791327   1.000000
   18        4.791327   1.000000
   19        4.992577   1.000000
   20        5.113426   1.000000
   21        5.224798   1.000000
   22        6.809340   1.011511
   23        6.809340   1.011511
   24        8.754977  -0.000000
   25       11.733140  -0.000000
   26       13.730846   0.000000
   27       13.730846   0.000000
   28       15.980832   0.000000
   29       20.348856   0.000000
   30       22.362761   0.000000
 
  0.4000000E+00  0.4000000E+00  0.4000000E+00  0.6400000E-01
    1        2.138923   1.000000
    2        3.068786   1.000000
    3        3.068786   1.000000
    4        3.068786   1.000000
    5        3.874298   1.000000
    6        3.874298   1.000000
    7        3.874298   1.000000
    8        3.900103   1.000000
    9        3.900103   1.000000
   10        4.201482   1.000000
   11        4.201482   1.000000
   12        4.201482   1.000000
   13        4.461433   1.000000
   14        4.461433   1.000000
   15        4.686567   1.000000
   16        4.686567   1.000000
   17        4.686567   1.000000
   18        4.719380   1.000000
   19        4.719380   1.000000
   20        4.719380   1.000000
   21        5.128793   1.000000
   22        7.177685  -0.017881
   23        7.177685  -0.017881
   24        7.177685  -0.017881
   25       11.312954  -0.000000
   26       11.312954  -0.000000
   27       11.312954  -0.000000
   28       13.001353   0.000000
   29       25.706252   0.000000
   30       25.706252   0.000000
