 vasp.6.2.0 18Jan21 (build Mar 17 2021 09:06:54) complex                        
  
 POSCAR found type information on POSCAR Cu
 POSCAR found :  1 types and       4 ions
 LDA part: xc-table for Pade appr. of Perdew
 POSCAR, INCAR and KPOINTS ok, starting setup
 FFT: planning ...
 WAVECAR not read
 WARNING: chargedensity file is incomplete
 entering main loop
       N       E                     dE             d eps       ncg     rms          rms(c)
DAV:   1     0.201732344728E+03    0.20173E+03   -0.11088E+04   608   0.810E+02
DAV:   2     0.240483109518E+01   -0.19933E+03   -0.18852E+03   606   0.229E+02
DAV:   3    -0.397441582277E+01   -0.63792E+01   -0.62928E+01   672   0.514E+01
DAV:   4    -0.400274100099E+01   -0.28325E-01   -0.28319E-01   624   0.362E+00
DAV:   5    -0.400286840240E+01   -0.12740E-03   -0.12740E-03   672   0.230E-01    0.249E+01
DAV:   6     0.298625765773E+01    0.69891E+01   -0.76344E+01   606   0.999E+01    0.113E+01
DAV:   7     0.573771814743E+01    0.27515E+01   -0.97579E+00   648   0.331E+01    0.170E+00
DAV:   8     0.555679688771E+01   -0.18092E+00   -0.13634E+00   648   0.119E+01    0.307E+00
DAV:   9     0.573153890218E+01    0.17474E+00   -0.66698E-01   630   0.898E+00    0.271E-01
DAV:  10     0.572853162370E+01   -0.30073E-02   -0.48015E-03   620   0.633E-01    0.576E-02
DAV:  11     0.572834988199E+01   -0.18174E-03   -0.20773E-04   662   0.120E-01    0.762E-02
DAV:  12     0.572846487663E+01    0.11499E-03   -0.36828E-04   618   0.212E-01    0.617E-03
DAV:  13     0.572846252675E+01   -0.23499E-05   -0.33465E-06   584   0.149E-02    0.101E-03
DAV:  14     0.572846230098E+01   -0.22577E-06   -0.53114E-08   312   0.154E-03
   1 F= 0.57284623E+01 E0= 0.57280597E+01  d E =0.120793E-02
 writing wavefunctions
