   2   2   0   0
  0.9930256E+01  0.2353300E-09  0.2353300E-09  0.4141000E-09  0.5000000E-15
  1.000000000000000E-004
  CAR 
 unknown system                          
     73.34696479     -5.43545288  301      7.18595517      1.00000000
     -5.435  0.0000E+00  0.0000E+00
     -5.173  0.0000E+00  0.0000E+00
     -4.910  0.0000E+00  0.0000E+00
     -4.648  0.0000E+00  0.0000E+00
     -4.385  0.0000E+00  0.0000E+00
     -4.122  0.0000E+00  0.0000E+00
     -3.860  0.0000E+00  0.0000E+00
     -3.597 -0.1488E-34 -0.3907E-35
     -3.335 -0.1960E-25 -0.5146E-26
     -3.072 -0.7993E-18 -0.2099E-18
     -2.809 -0.9619E-12 -0.2526E-12
     -2.547 -0.3581E-07 -0.9404E-08
     -2.284 -0.3778E-04 -0.9931E-05
     -2.022 -0.4227E-03 -0.1209E-03
     -1.759  0.8573E-02  0.2130E-02
     -1.496  0.5320E-01  0.1610E-01
     -1.234  0.9961E-01  0.4226E-01
     -0.971  0.5788E-01  0.5746E-01
     -0.709  0.1499E+00  0.9684E-01
     -0.446  0.1738E+00  0.1425E+00
     -0.183  0.1916E+00  0.1928E+00
      0.079  0.8113E-01  0.2141E+00
      0.342  0.2396E+00  0.2770E+00
      0.605  0.2994E+00  0.3557E+00
      0.867  0.2894E+00  0.4317E+00
      1.130  0.3099E+00  0.5130E+00
      1.392  0.2124E+00  0.5688E+00
      1.655  0.4403E+00  0.6844E+00
      1.918  0.7506E+00  0.8816E+00
      2.180  0.1104E+01  0.1171E+01
      2.443  0.1688E+01  0.1615E+01
      2.705  0.2176E+01  0.2186E+01
      2.968  0.2681E+01  0.2890E+01
      3.231  0.2512E+01  0.3550E+01
      3.493  0.2525E+01  0.4213E+01
      3.756  0.2459E+01  0.4859E+01
      4.018  0.3192E+01  0.5697E+01
      4.281  0.3130E+01  0.6519E+01
      4.544  0.2792E+01  0.7252E+01
      4.806  0.2199E+01  0.7830E+01
      5.069  0.2794E+01  0.8563E+01
      5.331  0.4041E+01  0.9624E+01
      5.594  0.3648E+01  0.1058E+02
      5.857  0.3885E+01  0.1160E+02
      6.119  0.3517E+01  0.1253E+02
      6.382  0.3719E+01  0.1350E+02
      6.645  0.3014E+01  0.1429E+02
      6.907  0.3214E+01  0.1514E+02
      7.170  0.3115E+01  0.1596E+02
      7.432  0.2493E+01  0.1661E+02
      7.695  0.3795E+01  0.1761E+02
      7.958  0.4976E+01  0.1891E+02
      8.220  0.4524E+01  0.2010E+02
      8.483  0.3745E+01  0.2109E+02
      8.745  0.6314E+00  0.2125E+02
      9.008  0.2146E+00  0.2131E+02
      9.271  0.7107E+00  0.2149E+02
      9.533  0.7973E+00  0.2170E+02
      9.796  0.6750E+00  0.2188E+02
     10.058  0.5657E+00  0.2203E+02
     10.321  0.5209E+00  0.2217E+02
     10.584  0.3292E+00  0.2225E+02
     10.846  0.3425E+00  0.2234E+02
     11.109  0.5076E+00  0.2248E+02
     11.371  0.7115E+00  0.2266E+02
     11.634  0.4605E+00  0.2278E+02
     11.897  0.3784E+00  0.2288E+02
     12.159  0.4031E+00  0.2299E+02
     12.422  0.5574E+00  0.2314E+02
     12.685  0.2543E+00  0.2320E+02
     12.947  0.3012E+00  0.2328E+02
     13.210  0.3091E+00  0.2336E+02
     13.472  0.4310E+00  0.2348E+02
     13.735  0.3215E+00  0.2356E+02
     13.998  0.2612E+00  0.2363E+02
     14.260  0.4688E+00  0.2375E+02
     14.523  0.4737E+00  0.2388E+02
     14.785  0.1421E+00  0.2391E+02
     15.048  0.2555E+00  0.2398E+02
     15.311  0.2722E+00  0.2405E+02
     15.573  0.1971E+00  0.2410E+02
     15.836  0.1340E+00  0.2414E+02
     16.098  0.1798E+00  0.2419E+02
     16.361  0.1383E+00  0.2422E+02
     16.624  0.5510E+00  0.2437E+02
     16.886  0.4053E+00  0.2447E+02
     17.149  0.6910E+00  0.2466E+02
     17.411  0.9639E+00  0.2491E+02
     17.674  0.7911E+00  0.2512E+02
     17.937  0.5489E+00  0.2526E+02
     18.199  0.6461E+00  0.2543E+02
     18.462  0.5570E+00  0.2558E+02
     18.724  0.6029E+00  0.2573E+02
     18.987  0.9014E+00  0.2597E+02
     19.250  0.7532E+00  0.2617E+02
     19.512  0.5072E+00  0.2630E+02
     19.775  0.9041E+00  0.2654E+02
     20.038  0.5541E+00  0.2669E+02
     20.300  0.7418E+00  0.2688E+02
     20.563  0.6236E+00  0.2704E+02
     20.825  0.5873E+00  0.2720E+02
     21.088  0.7800E+00  0.2740E+02
     21.351  0.4512E+00  0.2752E+02
     21.613  0.5882E+00  0.2768E+02
     21.876  0.5447E+00  0.2782E+02
     22.138  0.5312E+00  0.2796E+02
     22.401  0.6429E+00  0.2813E+02
     22.664  0.6314E+00  0.2829E+02
     22.926  0.7252E+00  0.2848E+02
     23.189  0.5924E+00  0.2864E+02
     23.451  0.6456E+00  0.2881E+02
     23.714  0.6086E+00  0.2897E+02
     23.977  0.1056E+01  0.2925E+02
     24.239  0.1131E+01  0.2954E+02
     24.502  0.6455E+00  0.2971E+02
     24.764  0.1047E+01  0.2999E+02
     25.027  0.7117E+00  0.3017E+02
     25.290  0.6407E+00  0.3034E+02
     25.552  0.8626E+00  0.3057E+02
     25.815  0.7992E+00  0.3078E+02
     26.078  0.1175E+01  0.3109E+02
     26.340  0.1152E+01  0.3139E+02
     26.603  0.8504E+00  0.3161E+02
     26.865  0.7402E+00  0.3181E+02
     27.128  0.1014E+01  0.3207E+02
     27.391  0.8810E+00  0.3231E+02
     27.653  0.1120E+01  0.3260E+02
     27.916  0.8511E+00  0.3282E+02
     28.178  0.5657E+00  0.3297E+02
     28.441  0.9230E+00  0.3321E+02
     28.704  0.9242E+00  0.3346E+02
     28.966  0.6230E+00  0.3362E+02
     29.229  0.1245E+01  0.3395E+02
     29.491  0.8638E+00  0.3417E+02
     29.754  0.3820E+00  0.3427E+02
     30.017  0.6257E+00  0.3444E+02
     30.279  0.8655E+00  0.3467E+02
     30.542  0.6539E+00  0.3484E+02
     30.804  0.6073E+00  0.3500E+02
     31.067  0.6029E+00  0.3516E+02
     31.330  0.9821E+00  0.3541E+02
     31.592  0.6972E+00  0.3560E+02
     31.855  0.7022E+00  0.3578E+02
     32.117  0.7295E+00  0.3597E+02
     32.380  0.4789E+00  0.3610E+02
     32.643  0.9700E+00  0.3635E+02
     32.905  0.8891E+00  0.3659E+02
     33.168  0.7367E+00  0.3678E+02
     33.431  0.7980E+00  0.3699E+02
     33.693  0.7797E+00  0.3719E+02
     33.956  0.6595E+00  0.3737E+02
     34.218  0.6282E+00  0.3753E+02
     34.481  0.1019E+01  0.3780E+02
     34.744  0.1124E+01  0.3810E+02
     35.006  0.6728E+00  0.3827E+02
     35.269  0.9458E+00  0.3852E+02
     35.531  0.9258E+00  0.3876E+02
     35.794  0.1164E+01  0.3907E+02
     36.057  0.8140E+00  0.3928E+02
     36.319  0.6790E+00  0.3946E+02
     36.582  0.1482E+01  0.3985E+02
     36.844  0.1068E+01  0.4013E+02
     37.107  0.9940E+00  0.4039E+02
     37.370  0.7369E+00  0.4059E+02
     37.632  0.1022E+01  0.4085E+02
     37.895  0.6440E+00  0.4102E+02
     38.157  0.7944E+00  0.4123E+02
     38.420  0.6684E+00  0.4141E+02
     38.683  0.5039E+00  0.4154E+02
     38.945  0.8108E+00  0.4175E+02
     39.208  0.9716E+00  0.4201E+02
     39.471  0.5939E+00  0.4216E+02
     39.733  0.7342E+00  0.4236E+02
     39.996  0.9725E+00  0.4261E+02
     40.258  0.1397E+01  0.4298E+02
     40.521  0.7462E+00  0.4317E+02
     40.784  0.7266E+00  0.4336E+02
     41.046  0.9147E+00  0.4361E+02
     41.309  0.7531E+00  0.4380E+02
     41.571  0.5908E+00  0.4396E+02
     41.834  0.8004E+00  0.4417E+02
     42.097  0.9029E+00  0.4441E+02
     42.359  0.1090E+01  0.4469E+02
     42.622  0.1246E+01  0.4502E+02
     42.884  0.1142E+01  0.4532E+02
     43.147  0.8244E+00  0.4554E+02
     43.410  0.1163E+01  0.4584E+02
     43.672  0.6729E+00  0.4602E+02
     43.935  0.9846E+00  0.4628E+02
     44.197  0.1065E+01  0.4656E+02
     44.460  0.1269E+01  0.4689E+02
     44.723  0.1297E+01  0.4723E+02
     44.985  0.1114E+01  0.4752E+02
     45.248  0.9600E+00  0.4777E+02
     45.511  0.1095E+01  0.4806E+02
     45.773  0.1234E+01  0.4839E+02
     46.036  0.8416E+00  0.4861E+02
     46.298  0.7658E+00  0.4881E+02
     46.561  0.9490E+00  0.4906E+02
     46.824  0.9591E+00  0.4931E+02
     47.086  0.4372E+00  0.4942E+02
     47.349  0.6141E+00  0.4959E+02
     47.611  0.8574E+00  0.4981E+02
     47.874  0.1097E+01  0.5010E+02
     48.137  0.1210E+01  0.5042E+02
     48.399  0.8951E+00  0.5065E+02
     48.662  0.1227E+01  0.5097E+02
     48.924  0.8801E+00  0.5120E+02
     49.187  0.9659E+00  0.5146E+02
     49.450  0.8432E+00  0.5168E+02
     49.712  0.1451E+01  0.5206E+02
     49.975  0.1106E+01  0.5235E+02
     50.237  0.1019E+01  0.5262E+02
     50.500  0.5150E+00  0.5275E+02
     50.763  0.5480E+00  0.5290E+02
     51.025  0.1583E+01  0.5331E+02
     51.288  0.1688E+01  0.5376E+02
     51.550  0.1312E+01  0.5410E+02
     51.813  0.9968E+00  0.5436E+02
     52.076  0.1339E+01  0.5472E+02
     52.338  0.9756E+00  0.5497E+02
     52.601  0.7251E+00  0.5516E+02
     52.864  0.1201E+01  0.5548E+02
     53.126  0.1218E+01  0.5580E+02
     53.389  0.9601E+00  0.5605E+02
     53.651  0.9606E+00  0.5630E+02
     53.914  0.8487E+00  0.5652E+02
     54.177  0.1573E+01  0.5694E+02
     54.439  0.1309E+01  0.5728E+02
     54.702  0.1180E+01  0.5759E+02
     54.964  0.1101E+01  0.5788E+02
     55.227  0.1210E+01  0.5820E+02
     55.490  0.1247E+01  0.5853E+02
     55.752  0.1308E+01  0.5887E+02
     56.015  0.1428E+01  0.5924E+02
     56.277  0.1325E+01  0.5959E+02
     56.540  0.1103E+01  0.5988E+02
     56.803  0.1019E+01  0.6015E+02
     57.065  0.8351E+00  0.6037E+02
     57.328  0.1776E+01  0.6084E+02
     57.590  0.2286E+01  0.6144E+02
     57.853  0.2204E+01  0.6201E+02
     58.116  0.9081E+00  0.6225E+02
     58.378  0.1336E+01  0.6260E+02
     58.641  0.1256E+01  0.6293E+02
     58.904  0.1545E+01  0.6334E+02
     59.166  0.1907E+01  0.6384E+02
     59.429  0.2000E+01  0.6437E+02
     59.691  0.1545E+01  0.6477E+02
     59.954  0.1925E+01  0.6528E+02
     60.217  0.2089E+01  0.6583E+02
     60.479  0.2171E+01  0.6640E+02
     60.742  0.1597E+01  0.6681E+02
     61.004  0.1588E+01  0.6723E+02
     61.267  0.1757E+01  0.6769E+02
     61.530  0.1044E+01  0.6797E+02
     61.792  0.1453E+01  0.6835E+02
     62.055  0.1197E+01  0.6866E+02
     62.317  0.1371E+01  0.6902E+02
     62.580  0.2279E+01  0.6962E+02
     62.843  0.2221E+01  0.7021E+02
     63.105  0.1413E+01  0.7058E+02
     63.368  0.1568E+01  0.7099E+02
     63.630  0.1543E+01  0.7139E+02
     63.893  0.1752E+01  0.7185E+02
     64.156  0.1802E+01  0.7233E+02
     64.418  0.1420E+01  0.7270E+02
     64.681  0.1107E+01  0.7299E+02
     64.944  0.1420E+01  0.7336E+02
     65.206  0.1434E+01  0.7374E+02
     65.469  0.2049E+01  0.7428E+02
     65.731  0.2548E+01  0.7495E+02
     65.994  0.2280E+01  0.7555E+02
     66.257  0.1731E+01  0.7600E+02
     66.519  0.1530E+01  0.7640E+02
     66.782  0.1731E+01  0.7686E+02
     67.044  0.1554E+01  0.7726E+02
     67.307  0.1835E+01  0.7775E+02
     67.570  0.1445E+01  0.7813E+02
     67.832  0.1448E+01  0.7851E+02
     68.095  0.1599E+01  0.7893E+02
     68.357  0.1716E+01  0.7938E+02
     68.620  0.1095E+01  0.7966E+02
     68.883  0.7995E+00  0.7987E+02
     69.145  0.3052E+00  0.7995E+02
     69.408  0.1104E+00  0.7998E+02
     69.670  0.4391E-02  0.7998E+02
     69.933  0.5851E-01  0.8000E+02
     70.196  0.4261E-03  0.8000E+02
     70.458 -0.3295E-03  0.8000E+02
     70.721 -0.3854E-06  0.8000E+02
     70.983 -0.1112E-10  0.8000E+02
     71.246 -0.1525E-16  0.8000E+02
     71.509  0.0000E+00  0.8000E+02
     71.771  0.0000E+00  0.8000E+02
     72.034  0.0000E+00  0.8000E+02
     72.297  0.0000E+00  0.8000E+02
     72.559  0.0000E+00  0.8000E+02
     72.822  0.0000E+00  0.8000E+02
     73.084  0.0000E+00  0.8000E+02
     73.347  0.0000E+00  0.8000E+02
