    2    2    1    1
  0.9930256E+01  0.2353300E-09  0.2353300E-09  0.4141000E-09  0.5000000E-15
  1.000000000000000E-004
  CAR 
 unknown system                          
     16     96     40
 
  0.0000000E+00  0.0000000E+00  0.0000000E+00  0.7513148E-03
    1       -1.854434   1.000000
    2        2.043281   1.000000
    3        4.918183   1.000000
    4        5.561030   1.000000
    5        5.561125   1.000000
    6        5.879931   1.000000
    7        5.880045   1.000000
    8        6.473040   1.000003
    9        6.857060   1.021024
   10        6.857086   1.021030
   11        7.964451  -0.000000
   12        7.964478  -0.000000
   13       14.724395   0.000000
   14       30.823575   0.000000
   15       30.970173   0.000000
   16       33.868982   0.000000
   17       36.273970   0.000000
   18       36.274030   0.000000
   19       37.093896   0.000000
   20       37.094061   0.000000
   21       37.863016   0.000000
   22       39.874639   0.000000
   23       39.874663   0.000000
   24       40.905841   0.000000
   25       43.575469   0.000000
   26       43.575479   0.000000
   27       44.364745   0.000000
   28       47.453426   0.000000
   29       47.453807   0.000000
   30       49.349578   0.000000
   31       49.349702   0.000000
   32       51.857700   0.000000
   33       59.651877   0.000000
   34       62.229930   0.000000
   35       62.230821   0.000000
   36       62.478662   0.000000
   37       63.373708   0.000000
   38       64.566436   0.000000
   39       64.567502   0.000000
   40       65.735442   0.000000
 
  0.9090909E-01  0.8713259E-17  0.0000000E+00  0.4507889E-02
    1       -1.517699   1.000000
    2        2.295074   1.000000
    3        4.925999   1.000000
    4        5.499822   1.000000
    5        5.606554   1.000000
    6        5.756755   1.000000
    7        5.763021   1.000000
    8        6.063238   1.000000
    9        6.703334   1.001692
   10        6.740405   1.003580
   11        7.994820  -0.000000
   12        9.095955  -0.000000
   13       14.744524   0.000000
   14       29.573702   0.000000
   15       31.322370   0.000000
   16       32.210171   0.000000
   17       33.440625   0.000000
   18       35.784709   0.000000
   19       35.791656   0.000000
   20       37.686715   0.000000
   21       39.267164   0.000000
   22       40.022621   0.000000
   23       40.203755   0.000000
   24       40.737498   0.000000
   25       44.758675   0.000000
   26       44.806371   0.000000
   27       45.098008   0.000000
   28       45.143067   0.000000
   29       48.703043   0.000000
   30       50.697086   0.000000
   31       51.729321   0.000000
   32       53.772023   0.000000
   33       58.852587   0.000000
   34       61.012981   0.000000
   35       61.081467   0.000000
   36       61.737848   0.000000
   37       62.002663   0.000000
   38       65.403511   0.000000
   39       65.655713   0.000000
   40       66.600966   0.000000
 
  0.1818182E+00  0.2450003E-16  0.0000000E+00  0.4507889E-02
    1       -0.565502   1.000000
    2        2.888547   1.000000
    3        4.517389   1.000000
    4        4.732845   1.000000
    5        5.315779   1.000000
    6        5.896502   1.000000
    7        6.312564   1.000000
    8        6.337479   1.000000
    9        6.467258   1.000002
   10        6.575988   1.000070
   11        8.051251  -0.000000
   12       10.953298  -0.000000
   13       14.845890   0.000000
   14       25.826803   0.000000
   15       30.590227   0.000000
   16       30.958289   0.000000
   17       31.312523   0.000000
   18       32.346173   0.000000
   19       36.325491   0.000000
   20       37.290205   0.000000
   21       37.812654   0.000000
   22       38.372144   0.000000
   23       41.095370   0.000000
   24       42.017582   0.000000
   25       44.757203   0.000000
   26       45.901991   0.000000
   27       47.425422   0.000000
   28       49.668438   0.000000
   29       51.569995   0.000000
   30       54.071931   0.000000
   31       54.625822   0.000000
   32       57.201313   0.000000
   33       57.448596   0.000000
   34       58.126770   0.000000
   35       59.330867   0.000000
   36       60.825983   0.000000
   37       62.518998   0.000000
   38       65.519676   0.000000
   39       66.539340   0.000000
   40       67.068071   0.000000
 
  0.2727273E+00  0.5851735E-16  0.0000000E+00  0.4507889E-02
    1        0.783598   1.000000
    2        3.174917   1.000000
    3        3.673630   1.000000
    4        4.681939   1.000000
    5        5.134930   1.000000
    6        5.880437   1.000000
    7        6.157198   1.000000
    8        6.662482   1.000675
    9        7.098272   0.834424
   10        7.290482   0.117725
   11        8.083518  -0.000000
   12       13.051571   0.000000
   13       15.070126   0.000000
   14       21.799800   0.000000
   15       27.680702   0.000000
   16       28.132823   0.000000
   17       29.301984   0.000000
   18       32.264287   0.000000
   19       34.457362   0.000000
   20       37.608678   0.000000
   21       37.708040   0.000000
   22       38.181234   0.000000
   23       38.665005   0.000000
   24       42.341667   0.000000
   25       48.363851   0.000000
   26       49.891832   0.000000
   27       50.947453   0.000000
   28       52.190786   0.000000
   29       53.247442   0.000000
   30       54.457934   0.000000
   31       55.941022   0.000000
   32       57.370975   0.000000
   33       59.057617   0.000000
   34       59.253283   0.000000
   35       60.145054   0.000000
   36       61.933794   0.000000
   37       63.459444   0.000000
   38       65.344184   0.000000
   39       67.092164   0.000000
   40       67.258379   0.000000
 
  0.3636364E+00  0.4192654E-16  0.0000000E+00  0.4507889E-02
    1        1.988355   1.000000
    2        2.906628   1.000000
    3        3.113868   1.000000
    4        4.861202   1.000000
    5        5.472235   1.000000
    6        5.540374   1.000000
    7        5.900136   1.000000
    8        7.890773  -0.000004
    9        7.919646  -0.000001
   10        8.011929  -0.000000
   11        8.089614  -0.000000
   12       14.976830   0.000000
   13       15.298195   0.000000
   14       18.885986   0.000000
   15       24.370882   0.000000
   16       26.259777   0.000000
   17       26.482493   0.000000
   18       31.402861   0.000000
   19       33.395911   0.000000
   20       36.605399   0.000000
   21       37.290105   0.000000
   22       39.067250   0.000000
   23       39.632803   0.000000
   24       42.602025   0.000000
   25       49.946444   0.000000
   26       51.207273   0.000000
   27       51.894094   0.000000
   28       55.099285   0.000000
   29       55.165936   0.000000
   30       55.757629   0.000000
   31       57.929232   0.000000
   32       58.964750   0.000000
   33       59.301424   0.000000
   34       60.438743   0.000000
   35       62.279068   0.000000
   36       63.884121   0.000000
   37       65.014582   0.000000
   38       65.915632   0.000000
   39       67.097413   0.000000
   40       67.408079   0.000000
 
  0.4545455E+00  0.5526180E-16  0.0000000E+00  0.4507889E-02
    1        2.455495   1.000000
    2        2.670784   1.000000
    3        2.837378   1.000000
    4        5.233569   1.000000
    5        5.413019   1.000000
    6        5.755320   1.000000
    7        5.784413   1.000000
    8        8.083945  -0.000000
    9        8.379388  -0.000000
   10        8.497971  -0.000000
   11        9.627942  -0.000000
   12       13.112428   0.000000
   13       17.424793   0.000000
   14       18.858735   0.000000
   15       21.723318   0.000000
   16       23.753533   0.000000
   17       25.210837   0.000000
   18       30.777825   0.000000
   19       33.037748   0.000000
   20       35.459634   0.000000
   21       37.067292   0.000000
   22       39.941194   0.000000
   23       41.924050   0.000000
   24       42.437596   0.000000
   25       46.558346   0.000000
   26       51.684351   0.000000
   27       53.194980   0.000000
   28       57.313159   0.000000
   29       57.430211   0.000000
   30       58.287406   0.000000
   31       59.364920   0.000000
   32       60.707976   0.000000
   33       60.798121   0.000000
   34       62.395610   0.000000
   35       62.999231   0.000000
   36       63.977488   0.000000
   37       65.696012   0.000000
   38       66.076609   0.000000
   39       66.939252   0.000000
   40       67.592248   0.000000
 
  0.9090909E-01  0.9090909E-01  0.0000000E+00  0.4507889E-02
    1       -0.870441   1.000000
    2        2.736836   1.000000
    3        4.770216   1.000000
    4        4.803295   1.000000
    5        5.540467   1.000000
    6        5.574188   1.000000
    7        6.163261   1.000000
    8        6.302680   1.000000
    9        6.461028   1.000002
   10        6.703607   1.001702
   11        8.006777  -0.000000
   12       10.436121  -0.000000
   13       14.810770   0.000000
   14       27.557516   0.000000
   15       28.882843   0.000000
   16       31.822053   0.000000
   17       32.988571   0.000000
   18       34.482302   0.000000
   19       34.755725   0.000000
   20       36.292649   0.000000
   21       37.340890   0.000000
   22       41.782824   0.000000
   23       41.971651   0.000000
   24       42.778070   0.000000
   25       43.684067   0.000000
   26       43.919224   0.000000
   27       44.122536   0.000000
   28       50.214989   0.000000
   29       52.290519   0.000000
   30       52.501857   0.000000
   31       52.664737   0.000000
   32       56.579043   0.000000
   33       57.878144   0.000000
   34       58.900511   0.000000
   35       59.730699   0.000000
   36       60.854534   0.000000
   37       61.993462   0.000000
   38       65.725671   0.000000
   39       66.638406   0.000000
   40       67.381234   0.000000
 
  0.1818182E+00  0.9090909E-01  0.0000000E+00  0.9015778E-02
    1        0.306028   1.000000
    2        3.300711   1.000000
    3        3.979668   1.000000
    4        4.456052   1.000000
    5        5.236496   1.000000
    6        5.859050   1.000000
    7        6.021711   1.000000
    8        6.444464   1.000001
    9        6.887211   1.027931
   10        7.199369   0.443382
   11        8.007106  -0.000000
   12       12.315741  -0.000000
   13       15.018534   0.000000
   14       23.856225   0.000000
   15       26.486558   0.000000
   16       29.502245   0.000000
   17       31.692698   0.000000
   18       32.141488   0.000000
   19       35.283255   0.000000
   20       35.539932   0.000000
   21       36.547649   0.000000
   22       41.038036   0.000000
   23       41.356067   0.000000
   24       42.442845   0.000000
   25       45.546555   0.000000
   26       46.480368   0.000000
   27       48.466371   0.000000
   28       52.469811   0.000000
   29       54.698975   0.000000
   30       54.991434   0.000000
   31       55.433666   0.000000
   32       57.501987   0.000000
   33       58.353095   0.000000
   34       58.634242   0.000000
   35       59.602998   0.000000
   36       60.066123   0.000000
   37       62.749931   0.000000
   38       65.833721   0.000000
   39       67.069742   0.000000
   40       67.731051   0.000000
 
  0.2727273E+00  0.9090909E-01  0.0000000E+00  0.9015778E-02
    1        1.674522   1.000000
    2        3.242401   1.000000
    3        3.362945   1.000000
    4        4.534378   1.000000
    5        5.304951   1.000000
    6        5.493616   1.000000
    7        6.070082   1.000000
    8        6.810418   1.011629
    9        7.681683  -0.001273
   10        7.996299  -0.000000
   11        8.160652  -0.000000
   12       14.461822   0.000000
   13       15.361969   0.000000
   14       20.144458   0.000000
   15       24.760668   0.000000
   16       26.104068   0.000000
   17       28.798776   0.000000
   18       30.537692   0.000000
   19       34.513837   0.000000
   20       35.706060   0.000000
   21       37.011045   0.000000
   22       40.583649   0.000000
   23       40.849067   0.000000
   24       43.667591   0.000000
   25       47.530136   0.000000
   26       50.251026   0.000000
   27       51.628487   0.000000
   28       52.080244   0.000000
   29       53.690140   0.000000
   30       56.056955   0.000000
   31       57.245356   0.000000
   32       58.841912   0.000000
   33       59.715954   0.000000
   34       60.094816   0.000000
   35       61.584461   0.000000
   36       63.358771   0.000000
   37       65.127869   0.000000
   38       65.699246   0.000000
   39       66.210715   0.000000
   40       67.788933   0.000000
 
  0.3636364E+00  0.9090909E-01  0.0000000E+00  0.9015778E-02
    1        2.530833   1.000000
    2        2.928131   1.000000
    3        2.994772   1.000000
    4        4.950056   1.000000
    5        5.268356   1.000000
    6        5.682963   1.000000
    7        5.744654   1.000000
    8        7.751360  -0.000238
    9        7.981433  -0.000000
   10        8.231442  -0.000000
   11        9.386037  -0.000000
   12       14.537241   0.000000
   13       16.723871   0.000000
   14       18.656180   0.000000
   15       23.089374   0.000000
   16       23.402184   0.000000
   17       25.560865   0.000000
   18       29.640975   0.000000
   19       33.547132   0.000000
   20       35.199637   0.000000
   21       38.227913   0.000000
   22       40.969888   0.000000
   23       41.798397   0.000000
   24       43.241541   0.000000
   25       48.535189   0.000000
   26       50.287161   0.000000
   27       52.042983   0.000000
   28       53.909799   0.000000
   29       55.417292   0.000000
   30       57.537774   0.000000
   31       58.447642   0.000000
   32       60.064733   0.000000
   33       60.914414   0.000000
   34       63.082809   0.000000
   35       63.450567   0.000000
   36       64.497752   0.000000
   37       64.781874   0.000000
   38       66.241490   0.000000
   39       67.165833   0.000000
   40       67.862301   0.000000
 
  0.4545455E+00  0.9090909E-01  0.0000000E+00  0.4507889E-02
    1        2.670831   1.000000
    2        2.833971   1.000000
    3        2.873368   1.000000
    4        5.198776   1.000000
    5        5.341073   1.000000
    6        5.612070   1.000000
    7        5.795455   1.000000
    8        7.973471  -0.000000
    9        8.287027  -0.000000
   10        8.311454  -0.000000
   11       10.628461  -0.000000
   12       12.818798   0.000000
   13       18.260171   0.000000
   14       19.307856   0.000000
   15       21.298665   0.000000
   16       22.533500   0.000000
   17       24.115384   0.000000
   18       29.321934   0.000000
   19       33.150262   0.000000
   20       35.025131   0.000000
   21       38.435325   0.000000
   22       41.865171   0.000000
   23       42.102035   0.000000
   24       43.490745   0.000000
   25       46.259532   0.000000
   26       51.839425   0.000000
   27       51.961086   0.000000
   28       54.725883   0.000000
   29       57.319980   0.000000
   30       57.582275   0.000000
   31       60.816596   0.000000
   32       60.980285   0.000000
   33       61.137801   0.000000
   34       61.143113   0.000000
   35       63.121693   0.000000
   36       65.638098   0.000000
   37       66.505707   0.000000
   38       66.589979   0.000000
   39       66.883484   0.000000
   40       68.869289   0.000000
 
  0.1818182E+00  0.1818182E+00  0.0000000E+00  0.4507889E-02
    1        1.578597   1.000000
    2        3.510303   1.000000
    3        3.757021   1.000000
    4        3.996632   1.000000
    5        5.296892   1.000000
    6        5.404563   1.000000
    7        6.212655   1.000000
    8        6.273239   1.000000
    9        7.654983  -0.002249
   10        7.895840  -0.000003
   11        8.227490  -0.000000
   12       14.194675   0.000000
   13       15.505175   0.000000
   14       21.853771   0.000000
   15       22.647608   0.000000
   16       27.631202   0.000000
   17       29.044397   0.000000
   18       31.132536   0.000000
   19       31.827736   0.000000
   20       36.573352   0.000000
   21       38.248929   0.000000
   22       42.096445   0.000000
   23       42.358349   0.000000
   24       44.720383   0.000000
   25       45.498833   0.000000
   26       47.528003   0.000000
   27       48.748836   0.000000
   28       53.508259   0.000000
   29       54.433374   0.000000
   30       55.737073   0.000000
   31       55.801696   0.000000
   32       59.242130   0.000000
   33       59.402268   0.000000
   34       62.167728   0.000000
   35       62.224763   0.000000
   36       62.405065   0.000000
   37       62.451955   0.000000
   38       66.004445   0.000000
   39       66.299908   0.000000
   40       68.889238   0.000000
 
  0.2727273E+00  0.1818182E+00  0.0000000E+00  0.9015778E-02
    1        2.791622   1.000000
    2        3.208764   1.000000
    3        3.474433   1.000000
    4        4.207787   1.000000
    5        5.145872   1.000000
    6        5.583602   1.000000
    7        5.807609   1.000000
    8        6.856234   1.020836
    9        7.801611  -0.000060
   10        8.165318  -0.000000
   11        9.533112  -0.000000
   12       16.038905   0.000000
   13       16.386216   0.000000
   14       18.963566   0.000000
   15       21.014865   0.000000
   16       24.999126   0.000000
   17       27.440514   0.000000
   18       27.643930   0.000000
   19       30.506440   0.000000
   20       38.732677   0.000000
   21       38.753800   0.000000
   22       42.069406   0.000000
   23       44.278898   0.000000
   24       45.543538   0.000000
   25       46.666188   0.000000
   26       48.665074   0.000000
   27       49.971055   0.000000
   28       51.357659   0.000000
   29       54.608173   0.000000
   30       55.402232   0.000000
   31       57.665606   0.000000
   32       60.100249   0.000000
   33       61.311302   0.000000
   34       62.492687   0.000000
   35       64.494103   0.000000
   36       64.703746   0.000000
   37       65.816957   0.000000
   38       66.489846   0.000000
   39       67.600819   0.000000
   40       69.078104   0.000000
 
  0.3636364E+00  0.1818182E+00  0.0000000E+00  0.9015778E-02
    1        3.070560   1.000000
    2        3.169411   1.000000
    3        3.290662   1.000000
    4        4.714706   1.000000
    5        5.129852   1.000000
    6        5.413494   1.000000
    7        5.859381   1.000000
    8        7.577344  -0.009165
    9        7.747976  -0.000260
   10        8.176024  -0.000000
   11       11.160454  -0.000000
   12       14.250470   0.000000
   13       18.627504   0.000000
   14       19.253084   0.000000
   15       20.178759   0.000000
   16       22.309739   0.000000
   17       24.685810   0.000000
   18       26.837208   0.000000
   19       29.853708   0.000000
   20       38.699501   0.000000
   21       40.689156   0.000000
   22       42.446424   0.000000
   23       43.985479   0.000000
   24       44.938890   0.000000
   25       48.645119   0.000000
   26       49.106266   0.000000
   27       50.934998   0.000000
   28       51.482742   0.000000
   29       55.214316   0.000000
   30       56.412245   0.000000
   31       57.058367   0.000000
   32       60.275085   0.000000
   33       60.847430   0.000000
   34       61.468357   0.000000
   35       65.790433   0.000000
   36       65.827183   0.000000
   37       67.575101   0.000000
   38       67.699017   0.000000
   39       67.744249   0.000000
   40       67.974968   0.000000
 
  0.2727273E+00  0.2727273E+00  0.0000000E+00  0.4507889E-02
    1        3.207682   1.000000
    2        3.566861   1.000000
    3        3.893512   1.000000
    4        3.921906   1.000000
    5        4.986603   1.000000
    6        5.406867   1.000000
    7        5.900448   1.000000
    8        7.127285   0.736808
    9        7.630332  -0.003661
   10        8.140931  -0.000000
   11       11.296471  -0.000000
   12       16.376940   0.000000
   13       16.956096   0.000000
   14       18.659646   0.000000
   15       19.973686   0.000000
   16       24.320972   0.000000
   17       24.410750   0.000000
   18       26.417770   0.000000
   19       27.286066   0.000000
   20       40.389851   0.000000
   21       41.292572   0.000000
   22       44.780938   0.000000
   23       45.762503   0.000000
   24       46.456539   0.000000
   25       46.597811   0.000000
   26       47.172114   0.000000
   27       49.675657   0.000000
   28       52.194283   0.000000
   29       52.480261   0.000000
   30       56.214753   0.000000
   31       56.669676   0.000000
   32       59.156474   0.000000
   33       60.725907   0.000000
   34       61.639764   0.000000
   35       65.517657   0.000000
   36       66.468812   0.000000
   37       66.534134   0.000000
   38       67.951989   0.000000
   39       68.271027   0.000000
   40       69.227292   0.000000
 
  0.3636364E+00  0.2727273E+00  0.0000000E+00  0.4507889E-02
    1        3.238192   1.000000
    2        3.708881   1.000000
    3        3.762967   1.000000
    4        4.270508   1.000000
    5        5.055330   1.000000
    6        5.097937   1.000000
    7        6.048483   1.000000
    8        7.508261  -0.022533
    9        7.564085  -0.011198
   10        7.820371  -0.000035
   11       13.078240   0.000000
   12       14.394233   0.000000
   13       16.572119   0.000000
   14       20.644260   0.000000
   15       20.945388   0.000000
   16       22.121890   0.000000
   17       24.136132   0.000000
   18       24.729254   0.000000
   19       26.676083   0.000000
   20       40.793399   0.000000
   21       43.632550   0.000000
   22       44.728929   0.000000
   23       44.980826   0.000000
   24       45.850512   0.000000
   25       47.481618   0.000000
   26       48.161358   0.000000
   27       51.359013   0.000000
   28       51.512213   0.000000
   29       51.861026   0.000000
   30       55.321508   0.000000
   31       56.710140   0.000000
   32       57.277451   0.000000
   33       60.392974   0.000000
   34       60.860907   0.000000
   35       65.822004   0.000000
   36       66.697241   0.000000
   37       68.215645   0.000000
   38       68.234430   0.000000
   39       68.439692   0.000000
   40       68.555392   0.000000
 
  0.0000000E+00  0.0000000E+00  0.9090909E-01  0.1502630E-02
    1       -1.773054   1.000000
    2        2.012452   1.000000
    3        4.895876   1.000000
    4        5.551589   1.000000
    5        5.551683   1.000000
    6        5.862143   1.000000
    7        5.862256   1.000000
    8        6.251630   1.000000
    9        6.895474   1.029712
   10        6.895501   1.029717
   11        7.951778  -0.000000
   12        7.951806  -0.000000
   13       15.105193   0.000000
   14       30.105291   0.000000
   15       31.111692   0.000000
   16       33.698530   0.000000
   17       36.322734   0.000000
   18       36.322788   0.000000
   19       37.094507   0.000000
   20       37.094667   0.000000
   21       38.351360   0.000000
   22       39.787229   0.000000
   23       39.787244   0.000000
   24       41.162235   0.000000
   25       43.226344   0.000000
   26       43.226357   0.000000
   27       44.599624   0.000000
   28       47.710682   0.000000
   29       47.711043   0.000000
   30       49.769408   0.000000
   31       49.769522   0.000000
   32       51.715761   0.000000
   33       58.924581   0.000000
   34       61.975716   0.000000
   35       61.976567   0.000000
   36       62.565539   0.000000
   37       63.004362   0.000000
   38       63.004862   0.000000
   39       64.181620   0.000000
   40       65.106706   0.000000
 
  0.9090909E-01  0.8713259E-17  0.9090909E-01  0.9015778E-02
    1       -1.438150   1.000000
    2        2.268657   1.000000
    3        4.915910   1.000000
    4        5.435776   1.000000
    5        5.468084   1.000000
    6        5.744567   1.000000
    7        5.807189   1.000000
    8        6.044071   1.000000
    9        6.750616   1.004336
   10        6.787413   1.008185
   11        7.982986  -0.000000
   12        8.940121  -0.000000
   13       15.161757   0.000000
   14       29.535844   0.000000
   15       30.736758   0.000000
   16       32.212963   0.000000
   17       33.511280   0.000000
   18       35.062160   0.000000
   19       36.441604   0.000000
   20       38.018333   0.000000
   21       38.976400   0.000000
   22       40.115622   0.000000
   23       40.296877   0.000000
   24       40.987517   0.000000
   25       44.386688   0.000000
   26       44.600143   0.000000
   27       45.635221   0.000000
   28       45.690022   0.000000
   29       48.559729   0.000000
   30       50.977613   0.000000
   31       52.043054   0.000000
   32       53.720762   0.000000
   33       57.684230   0.000000
   34       60.481416   0.000000
   35       61.260431   0.000000
   36       62.054770   0.000000
   37       62.436674   0.000000
   38       64.179907   0.000000
   39       65.195631   0.000000
   40       65.505454   0.000000
 
  0.1818182E+00  0.2450003E-16  0.9090909E-01  0.9015778E-02
    1       -0.493617   1.000000
    2        2.876241   1.000000
    3        4.434514   1.000000
    4        4.750255   1.000000
    5        5.283666   1.000000
    6        5.817242   1.000000
    7        6.255568   1.000000
    8        6.455335   1.000002
    9        6.497161   1.000006
   10        6.620705   1.000239
   11        8.032138  -0.000000
   12       10.598139  -0.000000
   13       15.388856   0.000000
   14       25.883730   0.000000
   15       30.363978   0.000000
   16       30.681922   0.000000
   17       31.707580   0.000000
   18       31.767485   0.000000
   19       35.987276   0.000000
   20       37.469870   0.000000
   21       37.876720   0.000000
   22       38.425120   0.000000
   23       41.472749   0.000000
   24       42.585818   0.000000
   25       45.011362   0.000000
   26       45.862243   0.000000
   27       47.214342   0.000000
   28       49.705079   0.000000
   29       51.392834   0.000000
   30       54.147042   0.000000
   31       54.940620   0.000000
   32       55.916620   0.000000
   33       56.981353   0.000000
   34       58.780271   0.000000
   35       59.504231   0.000000
   36       60.984313   0.000000
   37       62.577105   0.000000
   38       65.177281   0.000000
   39       65.811674   0.000000
   40       67.172380   0.000000
 
  0.2727273E+00  0.5851735E-16  0.9090909E-01  0.9015778E-02
    1        0.833290   1.000000
    2        3.172683   1.000000
    3        3.649467   1.000000
    4        4.688581   1.000000
    5        5.090801   1.000000
    6        5.897181   1.000000
    7        6.178218   1.000000
    8        6.703530   1.001699
    9        7.108245   0.802916
   10        7.274580   0.162720
   11        8.059867  -0.000000
   12       12.343710  -0.000000
   13       15.911515   0.000000
   14       21.863868   0.000000
   15       27.229076   0.000000
   16       28.241256   0.000000
   17       29.625967   0.000000
   18       32.019623   0.000000
   19       34.354974   0.000000
   20       36.662868   0.000000
   21       36.689504   0.000000
   22       39.186913   0.000000
   23       39.692351   0.000000
   24       43.056448   0.000000
   25       48.468232   0.000000
   26       49.622413   0.000000
   27       50.587330   0.000000
   28       50.704836   0.000000
   29       54.429605   0.000000
   30       54.616845   0.000000
   31       56.210185   0.000000
   32       57.687133   0.000000
   33       58.348929   0.000000
   34       58.735981   0.000000
   35       60.700585   0.000000
   36       61.718241   0.000000
   37       63.721880   0.000000
   38       65.435723   0.000000
   39       65.829055   0.000000
   40       67.403235   0.000000
 
  0.3636364E+00  0.4192654E-16  0.9090909E-01  0.9015778E-02
    1        1.977356   1.000000
    2        2.870128   1.000000
    3        3.205475   1.000000
    4        4.649298   1.000000
    5        5.542815   1.000000
    6        5.744616   1.000000
    7        5.934604   1.000000
    8        7.883241  -0.000005
    9        7.890214  -0.000004
   10        7.932642  -0.000001
   11        8.119388  -0.000000
   12       13.738061   0.000000
   13       16.542775   0.000000
   14       19.002241   0.000000
   15       23.965771   0.000000
   16       26.380032   0.000000
   17       26.901500   0.000000
   18       31.359463   0.000000
   19       33.357044   0.000000
   20       35.414298   0.000000
   21       37.604200   0.000000
   22       38.508761   0.000000
   23       40.473474   0.000000
   24       43.436197   0.000000
   25       48.520400   0.000000
   26       51.724169   0.000000
   27       52.546896   0.000000
   28       54.117257   0.000000
   29       54.902722   0.000000
   30       56.735672   0.000000
   31       57.682249   0.000000
   32       58.800475   0.000000
   33       59.860129   0.000000
   34       60.291788   0.000000
   35       62.335632   0.000000
   36       63.825229   0.000000
   37       65.109984   0.000000
   38       65.238807   0.000000
   39       67.380017   0.000000
   40       67.473226   0.000000
 
  0.4545455E+00  0.5526180E-16  0.9090909E-01  0.9015778E-02
    1        2.377959   1.000000
    2        2.567540   1.000000
    3        3.077919   1.000000
    4        4.718977   1.000000
    5        5.738902   1.000000
    6        5.794686   1.000000
    7        6.064408   1.000000
    8        8.022587  -0.000000
    9        8.384383  -0.000000
   10        8.499064  -0.000000
   11        9.537832  -0.000000
   12       12.923415   0.000000
   13       17.275626   0.000000
   14       18.919456   0.000000
   15       21.814382   0.000000
   16       24.159259   0.000000
   17       25.341012   0.000000
   18       30.777522   0.000000
   19       33.032390   0.000000
   20       34.547108   0.000000
   21       38.023043   0.000000