       N       E                     dE             d eps       ncg     rms          rms(c)
DAV:   1     0.598178181775E+02    0.59818E+02   -0.26368E+03  9360   0.324E+02
DAV:   2    -0.148352394441E+02   -0.74653E+02   -0.63551E+02  7960   0.955E+01
DAV:   3    -0.191105681494E+02   -0.42753E+01   -0.40625E+01  9560   0.239E+01
DAV:   4    -0.191291229065E+02   -0.18555E-01   -0.18543E-01  9176   0.166E+00
DAV:   5    -0.191291426377E+02   -0.19731E-04   -0.19731E-04  9208   0.506E-02    0.174E+01
DAV:   6    -0.162975522938E+02    0.28316E+01   -0.17258E+00 11192   0.245E+01    0.216E+00
DAV:   7    -0.161212810800E+02    0.17627E+00   -0.10793E-01 10088   0.508E+00    0.112E+00
DAV:   8    -0.160932735208E+02    0.28008E-01   -0.31053E-03 10056   0.368E-01    0.509E-01
DAV:   9    -0.160828935604E+02    0.10380E-01   -0.92671E-04 10912   0.170E-01    0.571E-02
DAV:  10    -0.160829217161E+02   -0.28156E-04   -0.35536E-05  8800   0.240E-02    0.241E-02
DAV:  11    -0.160829129749E+02    0.87412E-05   -0.35033E-07  8760   0.589E-03    0.186E-03
DAV:  12    -0.160829120675E+02    0.90740E-06   -0.65006E-08  6120   0.135E-03
   1 F= -.16082912E+02 E0= -.16083662E+02  d E =0.224877E-02
