unknown system                          
   1.00000000000000     
     2.330000    0.000000    0.000000
    -1.165000    2.017839    0.000000
     0.000000    0.000000    4.100000
   Fe
     2
Direct
  0.000000  0.000000  0.000000
  0.333333  0.666667  0.500000
 
   20   20   36
  161.94      153.43      130.57      99.867      68.648      42.457      24.136      13.932      9.9224      8.8266    
  8.4890      8.8268      9.9226      13.932      24.136      42.457      68.648      99.867      130.57      153.43    
  153.44      153.43      137.78      111.19      80.641      52.547      31.007      17.494      11.108      9.1263    
  8.4839      8.4835      9.1260      11.108      17.494      31.006      52.545      80.645      111.20      137.80    
  130.57      137.76      130.57      111.19      85.080      58.468      36.206      20.844      12.551      9.4495    
  8.5112      8.1943      8.5104      9.4495      12.552      20.843      36.203      58.466      85.084      111.20    
  99.863      111.12      111.12      99.867      80.641      58.468      38.144      22.876      13.755      9.8076    
  8.5562      7.9903      7.9900      8.5559      9.8084      13.757      22.875      38.140      58.462      80.636    
  68.636      80.540      84.945      80.550      68.648      52.547      36.206      22.876      14.224      10.056    
  8.5971      7.8728      7.6237      7.8729      8.5972      10.057      14.227      22.879      36.206      52.540    
  42.456      52.468      58.329      58.333      52.474      42.458      31.007      20.844      13.755      10.056    
  8.6136      7.8230      7.4176      7.4179      7.8228      8.6123      10.056      13.759      20.852      31.013    
  24.145      30.988      36.138      38.051      36.135      30.981      24.136      17.494      12.551      9.8075    
  8.5972      7.8230      7.3526      7.2003      7.3532      7.8219      8.5936      9.8041      12.552      17.501    
  13.932      17.519      20.865      22.880      22.876      20.856      17.513      13.932      11.108      9.4494    
  8.5562      7.8728      7.4175      7.2002      7.2010      7.4188      7.8725      8.5524      9.4427      11.102    
  9.9131      11.142      12.619      13.838      14.309      13.835      12.619      11.148      9.9224      9.1264    
  8.5113      7.9904      7.6235      7.4179      7.3534      7.4189      7.6265      7.9939      8.5112      9.1202    
  8.8264      9.1661      9.5301      9.9226      10.191      10.192      9.9267      9.5368      9.1719      8.8268    
  8.4840      8.1944      7.9900      7.8728      7.8230      7.8221      7.8725      7.9938      8.2019      8.4898    
  8.4977      8.5371      8.6041      8.6848      8.7537      8.7825      8.7573      8.6884      8.6035      8.5311    
  8.4892      8.4836      8.5105      8.5558      8.5972      8.6124      8.5935      8.5522      8.5112      8.4898    
  8.8262      8.5371      8.2969      8.1339      8.0488      8.0189      8.0198      8.0492      8.1302      8.2896    
  8.5315      8.8268      9.1261      9.4494      9.8082      10.057      10.056      9.8041      9.4426      9.1201    
  9.9130      9.1661      8.6043      8.1340      7.8090      7.6318      7.5775      7.6310      7.8063      8.1305    
  8.6042      9.1723      9.9224      11.108      12.552      13.757      14.227      13.759      12.552      11.102    
  13.932      11.142      9.5303      8.6850      8.0488      7.6318      7.4354      7.4348      7.6307      8.0492    
  8.6887      9.5367      11.148      13.932      17.494      20.843      22.875      22.879      20.852      17.501    
  24.145      17.519      12.619      9.9226      8.7537      8.0189      7.5775      7.4347      7.5768      8.0198    
  8.7573      9.9260      12.618      17.513      24.136      31.006      36.203      38.140      36.206      31.013    
  42.456      30.988      20.864      13.838      10.191      8.7826      8.0198      7.6309      7.6305      8.0198    
  8.7838      10.191      13.834      20.857      30.983      42.458      52.546      58.465      58.462      52.540    
  68.636      52.468      36.138      22.879      14.309      10.192      8.7573      8.0491      7.8062      8.0492    
  8.7573      10.191      14.306      22.876      36.138      52.476      68.648      80.645      85.084      80.635    
  99.863      80.541      58.329      38.051      22.875      13.836      9.9269      8.6885      8.1301      8.1304    
  8.6887      9.9261      13.834      22.876      38.055      58.335      80.546      99.867      111.20      111.20    
  130.57      111.12      84.946      58.332      36.135      20.856      12.619      9.5371      8.6035      8.2894    
  8.6041      9.5369      12.619      20.857      36.138      58.335      84.942      111.11      130.57      137.80    
  153.44      137.76      111.12      80.550      52.474      30.981      17.513      11.149      9.1720      8.5309    
  8.5313      9.1724      11.148      17.513      30.983      52.475      80.546      111.11      137.75      153.43    
  153.80      145.72      124.01      94.827      65.142      40.274      22.960      13.415      9.7258      8.6919    
  8.3623      8.6921      9.7260      13.415      22.960      40.273      65.142      94.827      124.01      145.72    
  145.73      145.72      130.86      105.58      76.536      49.833      29.426      16.719      10.798      8.9776    
  8.3505      8.3502      8.9773      10.798      16.719      29.424      49.832      76.540      105.60      130.87    
  124.02      130.84      124.01      105.58      80.754      55.450      34.331      19.845      12.114      9.2691    
  8.3723      8.0643      8.3715      9.2690      12.115      19.844      34.328      55.447      80.757      105.59    
  94.823      105.53      105.53      94.827      76.536      55.450      36.162      21.745      13.219      9.5863    
  8.4132      7.8640      7.8637      8.4129      9.5870      13.221      21.745      36.158      55.444      76.531    
  65.131      76.458      80.650      76.467      65.142      49.834      34.331      21.745      13.651      9.8074    
  8.4516      7.7490      7.5087      7.7491      8.4516      9.8082      13.654      21.749      34.331      49.827    
  40.272      49.781      55.354      55.358      49.787      40.274      29.426      19.845      13.219      9.8073    
  8.4672      7.7003      7.3099      7.3102      7.7002      8.4659      9.8070      13.223      19.852      29.431    
  22.968      29.432      34.310      36.123      34.306      29.426      22.960      16.719      12.114      9.5862    
  8.4516      7.7003      7.2473      7.1011      7.2479      7.6994      8.4483      9.5831      12.115      16.725    
  13.415      16.765      19.907      21.804      21.800      19.899      16.759      13.415      10.798      9.2690    
  8.4132      7.7490      7.3098      7.1011      7.1017      7.3109      7.7487      8.4097      9.2627      10.793    
  9.7170      10.851      12.218      13.351      13.789      13.348      12.217      10.856      9.7257      8.9776    
  8.3724      7.8640      7.5085      7.3101      7.2481      7.3110      7.5112      7.8673      8.3723      8.9718    
  8.6918      9.0331      9.3801      9.7434      9.9903      9.9914      9.7471      9.3863      9.0385      8.6922    
  8.3506      8.0644      7.8637      7.7490      7.7004      7.6996      7.7486      7.8672      8.0714      8.3560    
  8.3705      8.4175      8.4922      8.5792      8.6519      8.6818      8.6552      8.5824      8.4916      8.4120    
  8.3626      8.3503      8.3716      8.4128      8.4516      8.4661      8.4482      8.4095      8.3723      8.3560    
  8.6916      8.4175      8.1923      8.0417      7.9648      7.9388      7.9397      7.9652      8.0383      8.1856    
  8.4123      8.6922      8.9773      9.2689      9.5868      9.8081      9.8070      9.5830      9.2627      8.9717    
  9.7169      9.0331      8.4924      8.0418      7.7321      7.5640      7.5127      7.5634      7.7297      8.0386    
  8.4923      9.0389      9.7258      10.798      12.115      13.220      13.654      13.223      12.115      10.792    
  13.415      10.851      9.3803      8.5793      7.9648      7.5640      7.3758      7.3752      7.5630      7.9652    
  8.5828      9.3862      10.856      13.415      16.719      19.844      21.745      21.749      19.852      16.725    
  22.969      16.765      12.218      9.7434      8.6519      7.9388      7.5127      7.3751      7.5120      7.9396    
  8.6552      9.7464      12.217      16.759      22.960      29.425      34.328      36.158      34.331      29.431    
  40.272      29.432      19.906      13.350      9.9904      8.6819      7.9397      7.5632      7.5629      7.9396    
  8.6830      9.9906      13.347      19.899      29.427      40.274      49.832      55.447      55.444      49.827    
  65.131      49.782      34.309      21.803      13.789      9.9915      8.6552      7.9652      7.7295      7.9652    
  8.6552      9.9907      13.786      21.800      34.310      49.789      65.142      76.540      80.757      76.530    
  94.823      76.458      55.355      36.123      21.800      13.348      9.7472      8.5826      8.0382      8.0385    
  8.5828      9.7466      13.347      21.800      36.127      55.360      76.464      94.827      105.59      105.59    
  124.02      105.53      80.651      55.358      34.306      19.898      12.218      9.3866      8.4916      8.1853    
  8.4922      9.3864      12.217      19.899      34.310      55.360      80.647      105.52      124.01      130.87    
  145.73      130.84      105.53      76.467      49.787      29.425      16.760      10.857      9.0386      8.4117    
  8.4121      9.0390      10.856      16.759      29.427      49.788      76.464      105.52      130.83      145.72    
  131.81      124.89      106.26      81.174      55.656      34.402      19.845      12.078      9.2172      8.3236    
  8.0182      8.3238      9.2174      12.078      19.845      34.402      55.656      81.174      106.26      124.89    
  124.90      124.89      112.14      90.410      65.417      42.513      25.203      14.690      10.003      8.5691    
  7.9860      7.9857      8.5689      10.003      14.690      25.202      42.512      65.420      90.419      112.15    
  106.27      112.14      106.26      90.410      69.033      47.295      29.306      17.207      10.986      8.7923    
  7.9903      7.7085      7.9896      8.7923      10.986      17.206      29.303      47.293      69.036      90.418    
  81.171      90.395      90.396      81.174      65.417      47.295      30.843      18.753      11.828      9.0106    
  8.0174      7.5166      7.5163      8.0171      9.0111      11.829      18.752      30.840      47.290      65.413    
  55.647      65.403      69.017      65.411      55.656      42.513      29.306      18.753      12.161      9.1623    
  8.0467      7.4070      7.1914      7.4071      8.0468      9.1628      12.162      18.755      29.306      42.507    
  34.401      42.535      47.320      47.323      42.540      34.403      25.203      17.207      11.828      9.1622    
  8.0591      7.3605      7.0116      7.0119      7.3606      8.0582      9.1620      11.831      17.213      25.207    
  19.851      25.278      29.411      30.954      29.409      25.273      19.845      14.690      10.985      9.0104    
  8.0467      7.3605      6.9552      6.8257      6.9558      7.3598      8.0442      9.0081      10.986      14.695    
  12.078      14.795      17.384      18.961      18.958      17.378      14.790      12.078      10.002      8.7921    
  8.0174      7.4070      7.0115      6.8257      6.8262      7.0123      7.4067      8.0146      8.7872      9.9982    
  9.2101      10.107      11.189      12.096      12.448      12.093      11.189      10.111      9.2171      8.5692    
  7.9904      7.5167      7.1913      7.0119      6.9560      7.0124      7.1933      7.5192      7.9903      8.5644    
  8.3234      8.6704      8.9917      9.2894      9.4856      9.4863      9.2922      8.9965      8.6748      8.3238    
  7.9862      7.7087      7.5163      7.4070      7.3607      7.3600      7.4066      7.5191      7.7142      7.9905    
  8.0248      8.0940      8.1902      8.2947      8.3782      8.4114      8.3807      8.2972      8.1897      8.0896    
  8.0186      7.9859      7.9897      8.0170      8.0467      8.0583      8.0441      8.0145      7.9903      7.9905    
  8.3233      8.0940      7.9127      7.7983      7.7456      7.7310      7.7318      7.7460      7.7956      7.9073    
  8.0899      8.3239      8.5688      8.7920      9.0108      9.1628      9.1620      9.0080      8.7872      8.5644    
  9.2100      8.6705      8.1905      7.7984      7.5339      7.3928      7.3504      7.3925      7.5322      7.7959    
  8.1904      8.6751      9.2171      10.003      10.986      11.829      12.162      11.831      10.986      9.9981    
  12.078      10.107      8.9919      8.2949      7.7456      7.3928      7.2288      7.2284      7.3921      7.7460    
  8.2976      8.9965      10.111      12.078      14.690      17.206      18.752      18.755      17.213      14.695    
  19.851      14.795      11.189      9.2894      8.3782      7.7310      7.3503      7.2283      7.3497      7.7316    
  8.3807      9.2917      11.188      14.790      19.845      25.202      29.303      30.840      29.306      25.208    
  34.402      25.278      17.384      12.095      9.4856      8.4115      7.7318      7.3923      7.3920      7.7316    
  8.4123      9.4858      12.092      17.378      25.274      34.403      42.512      47.293      47.290      42.507    
  55.647      42.535      29.411      18.961      12.448      9.4865      8.3808      7.7459      7.5320      7.7459    
  8.3808      9.4859      12.447      18.959      29.411      42.540      55.657      65.420      69.036      65.412    
  81.171      65.404      47.320      30.954      18.958      12.093      9.2924      8.2974      7.7955      7.7958    
  8.2976      9.2920      12.093      18.959      30.957      47.325      65.408      81.174      90.418      90.417    
  106.27      90.396      69.018      47.323      29.408      17.377      11.189      8.9969      8.1898      7.9071    
  8.1902      8.9967      11.188      17.378      29.411      47.325      69.015      90.388      106.26      112.15    
  124.90      112.14      90.397      65.411      42.539      25.273      14.790      10.112      8.6749      8.0893    
  8.0896      8.6752      10.111      14.790      25.274      42.540      65.408      90.388      112.13      124.89    
  102.01      96.633      82.137      62.609      42.825      26.588      15.832      10.439      8.5700      7.8107    
  7.5450      7.8109      8.5701      10.439      15.832      26.588      42.825      62.609      82.137      96.633    
  96.636      96.633      86.703      69.770      50.330      32.685      19.671      12.141      9.0319      7.9910    
  7.4808      7.4806      7.9908      9.0323      12.142      19.671      32.684      50.332      69.777      86.711    
  82.142      86.721      82.137      69.770      53.118      36.309      22.664      13.841      9.6040      8.1524    
  7.4548      7.2140      7.4542      8.1524      9.6047      13.841      22.662      36.308      53.120      69.776    
  62.607      69.812      69.813      62.609      50.330      36.309      23.794      14.905      10.110      8.2746    
  7.4561      7.0298      7.0296      7.4559      8.2748      10.111      14.905      23.792      36.306      50.327    
  42.819      50.406      53.224      50.411      42.826      32.685      22.664      14.905      10.314      8.3507    
  7.4677      6.9234      6.7440      6.9236      7.4678      8.3509      10.315      14.907      22.664      32.681    
  26.588      32.809      36.500      36.502      32.813      26.589      19.672      13.841      10.110      8.3506    
  7.4737      6.8773      6.5877      6.5880      6.8775      7.4732      8.3504      10.112      13.845      19.674    
  15.837      19.841      22.944      24.112      22.943      19.838      15.832      12.141      9.6037      8.2743    
  7.4677      6.8773      6.5389      6.4322      6.5394      6.8770      7.4661      8.2730      9.6047      12.145    
  10.438      12.329      14.178      15.322      15.320      14.174      12.325      10.438      9.0316      8.1522    
  7.4561      6.9235      6.5877      6.4323      6.4325      6.5881      6.9232      7.4543      8.1491      9.0289    
  8.5650      9.2105      9.9497      10.571      10.815      10.570      9.9492      9.2134      8.5698      7.9910    
  7.4550      7.0300      6.7441      6.5880      6.5395      6.5881      6.7451      7.0316      7.4549      7.9877    
  7.8106      8.1601      8.4821      8.7327      8.8805      8.8808      8.7342      8.4852      8.1630      7.8110    
  7.4811      7.2143      7.0297      6.9235      6.8777      6.8771      6.9231      7.0315      7.2179      7.4839    
  7.5496      7.6507      7.7761      7.9031      7.9999      8.0370      8.0015      7.9046      7.7757      7.6478    
  7.5455      7.4809      7.4543      7.4557      7.4677      7.4732      7.4660      7.4542      7.4548      7.4839    
  7.8105      7.6507      7.5350      7.4733      7.4556      7.4576      7.4581      7.4560      7.4716      7.5314    
  7.6481      7.8110      7.9907      8.1520      8.2744      8.3508      8.3505      8.2729      8.1490      7.9877    
  8.5649      8.1601      7.7763      7.4734      7.2766      7.1758      7.1465      7.1758      7.2757      7.4718    
  7.7763      8.1633      8.5698      9.0320      9.6043      10.111      10.315      10.112      9.6046      9.0288    
  10.438      9.2105      8.4823      7.9032      7.4555      7.1758      7.0482      7.0480      7.1755      7.4559    
  7.9049      8.4852      9.2130      10.438      12.141      13.841      14.905      14.907      13.845      12.145    
  15.837      12.329      9.9496      8.7327      7.9999      7.4576      7.1464      7.0480      7.1459      7.4578    
  8.0015      8.7340      9.9486      12.325      15.832      19.671      22.663      23.792      22.664      19.674    
  26.588      19.841      14.178      10.571      8.8805      8.0371      7.4581      7.1757      7.1753      7.4578    
  8.0375      8.8806      10.569      14.174      19.838      26.589      32.685      36.308      36.306      32.681    
  42.819      32.809      22.944      15.322      10.815      8.8810      8.0016      7.4559      7.2755      7.4558    
  8.0016      8.8808      10.814      15.321      22.945      32.813      42.826      50.332      53.120      50.327    
  62.607      50.406      36.501      24.112      15.320      10.570      8.7345      7.9047      7.4715      7.4717    
  7.9050      8.7343      10.569      15.321      24.114      36.504      50.409      62.609      69.776      69.775    
  82.142      69.813      53.225      36.502      22.942      14.173      9.9496      8.4856      7.7757      7.5310    
  7.7761      8.4855      9.9491      14.174      22.944      36.504      53.223      69.807      82.137      86.710    
  96.636      86.722      69.813      50.411      32.812      19.838      12.326      9.2139      8.1632      7.6474    
  7.6477      8.1634      9.2135      12.325      19.838      32.813      50.409      69.807      86.714      96.633    
  71.200      67.411      57.197      43.500      29.809      18.914      12.117      9.0209      7.8934      7.2580    
  7.0431      7.2581      7.8935      9.0209      12.117      18.914      29.809      43.500      57.197      67.411    
  67.412      67.410      60.399      48.475      34.911      22.875      14.397      9.8751      8.1540      7.3562    
  6.9414      6.9412      7.3561      8.1544      9.8757      14.397      22.875      34.913      48.479      60.403    
  57.200      60.438      57.197      48.475      36.819      25.266      16.231      10.774      8.3974      7.4480    
  6.8757      6.6848      6.8752      7.4479      8.3979      10.774      16.231      25.265      36.820      48.478    
  43.499      48.574      48.574      43.499      34.911      25.266      16.934      11.357      8.6098      7.5150    
  6.8406      6.5036      6.5034      6.8403      7.5149      8.6098      11.356      16.933      25.264      34.910    
  29.805      35.077      37.048      35.079      29.809      22.876      16.232      11.357      8.6972      7.5491    
  6.8259      6.3942      6.2556      6.3944      6.8260      7.5490      8.6973      11.357      16.231      22.873    
  18.914      23.101      25.623      25.624      23.103      18.915      14.397      10.774      8.6096      7.5489    
  6.8223      6.3445      6.1198      6.1201      6.3449      6.8221      7.5488      8.6107      10.777      14.399    
  12.120      14.661      16.686      17.458      16.685      14.660      12.117      9.8750      8.3970      7.5146    
  6.8258      6.3445      6.0773      5.9942      6.0776      6.3445      6.8252      7.5142      8.3979      9.8771    
  9.0206      10.146      11.273      11.984      11.983      11.270      10.145      9.0206      8.1536      7.4477    
  6.8405      6.3943      6.1198      5.9942      5.9943      6.1199      6.3941      6.8397      7.4462      8.1523    
  7.8905      8.4102      8.8909      9.2704      9.4174      9.2693      8.8904      8.4118      7.8932      7.3562    
  6.8758      6.5038      6.2557      6.1202      6.0778      6.1199      6.2559      6.5044      6.8757      7.3544    
  7.2579      7.5986      7.9182      8.1658      8.3004      8.3004      8.1663      7.9196      7.6002      7.2582    
  6.9417      6.6851      6.5036      6.3944      6.3450      6.3446      6.3940      6.5044      6.6870      6.9431    
  7.0456      7.1793      7.3304      7.4745      7.5802      7.6195      7.5809      7.4751      7.3301      7.1778    
  7.0435      6.9415      6.8753      6.8402      6.8258      6.8221      6.8251      6.8395      6.8757      6.9431    
  7.2578      7.1793      7.1354      7.1285      7.1452      7.1630      7.1634      7.1456      7.1276      7.1335    
  7.1780      7.2582      7.3560      7.4476      7.5146      7.5488      7.5489      7.5141      7.4462      7.3543    
  7.8904      7.5986      7.3306      7.1285      7.0050      6.9466      6.9309      6.9470      7.0049      7.1279    
  7.3306      7.6004      7.8932      8.1540      8.3975      8.6097      8.6975      8.6109      8.3979      8.1523    
  9.0206      8.4102      7.9184      7.4746      7.1452      6.9466      6.8587      6.8587      6.9466      7.1455    
  7.4755      7.9197      8.4114      9.0206      9.8756      10.775      11.357      11.358      10.777      9.8772    
  12.120      10.146      8.8908      8.1658      7.5802      7.1630      6.9309      6.8586      6.9304      7.1629    
  7.5809      8.1663      8.8899      10.144      12.117      14.397      16.231      16.933      16.231      14.399    
  18.914      14.661      11.272      9.2702      8.3005      7.6196      7.1634      6.9468      6.9465      7.1629    
  7.6196      8.3005      9.2691      11.270      14.659      18.915      22.875      25.265      25.264      22.873    
  29.805      23.101      16.685      11.983      9.4174      8.3006      7.5810      7.1456      7.0047      7.1454    
  7.5810      8.3007      9.4171      11.983      16.686      23.103      29.809      34.912      36.819      34.909    
  43.498      35.077      25.623      17.457      11.982      9.2693      8.1666      7.4753      7.1275      7.1276    
  7.4755      8.1666      9.2694      11.983      17.459      25.625      35.078      43.499      48.478      48.478    
  57.200      48.575      37.048      25.624      16.685      11.270      8.8908      7.9200      7.3301      7.1332    
  7.3304      7.9200      8.8904      11.270      16.686      25.625      37.047      48.571      57.197      60.403    
  67.412      60.438      48.575      35.080      23.102      14.659      10.145      8.4123      7.6003      7.1774    
  7.1776      7.6005      8.4119      10.144      14.659      23.102      35.078      48.571      60.434      67.410    
  44.703      42.310      35.897      27.419      19.199      13.021      9.5181      8.0424      7.2448      6.7531    
  6.5924      6.7532      7.2448      8.0424      9.5180      13.021      19.199      27.419      35.897      42.310    
  42.311      42.310      37.885      30.437      22.155      15.123      10.542      8.3528      7.3975      6.7662    
  6.4543      6.4542      6.7660      7.3978      8.3533      10.542      15.123      22.156      30.439      37.887    
  35.898      37.940      35.896      30.437      23.274      16.428      11.411      8.6735      7.5049      6.7810    
  6.3464      6.2061      6.3461      6.7808      7.5052      8.6738      11.411      16.428      23.275      30.439    
  27.419      30.578      30.578      27.419      22.155      16.428      11.753      8.8903      7.5636      6.7904    
  6.2704      6.0223      6.0222      6.2702      6.7903      7.5634      8.8898      11.752      16.427      22.155    
  19.198      22.386      23.593      22.387      19.199      15.124      11.411      8.8903      7.5834      6.7940    
  6.2256      5.9042      5.8035      5.9044      6.2257      6.7938      7.5831      8.8902      11.411      15.123    
  13.021      15.423      16.906      16.907      15.424      13.021      10.542      8.6735      7.5634      6.7939    
  6.2109      5.8472      5.6809      5.6811      5.8476      6.2110      6.7938      7.5638      8.6745      10.543    
  9.5190      10.877      11.994      12.427      11.994      10.876      9.5182      8.3526      7.5046      6.7901    
  6.2256      5.8472      5.6418      5.5785      5.6420      5.8474      6.2255      6.7902      7.5052      8.3537    
  8.0421      8.6898      9.2963      9.6776      9.6772      9.2955      8.6892      8.0421      7.3972      6.7807    
  6.2704      5.9043      5.6809      5.5785      5.5784      5.6808      5.9041      6.2702      6.7803      7.3968    
  7.2435      7.7194      8.1209      8.3876      8.4825      8.3869      8.1205      7.7199      7.2446      6.7661    
  6.3465      6.0225      5.8036      5.6812      5.6422      5.6808      5.8033      6.0226      6.3464      6.7654    
  6.7530      7.0732      7.3744      7.6095      7.7382      7.7380      7.6092      7.3746      7.0738      6.7533    
  6.4546      6.2064      6.0224      5.9044      5.8477      5.8474      5.9041      6.0225      6.2070      6.4550    
  6.5934      6.7541      6.9221      7.0738      7.1811      7.2201      7.1812      7.0739      6.9219      6.7537    
  6.5928      6.4545      6.3462      6.2701      6.2256      6.2110      6.2255      6.2701      6.3464      6.4550    
  6.7530      6.7541      6.7759      6.8155      6.8594      6.8886      6.8889      6.8597      6.8153      6.7753    
  6.7538      6.7533      6.7660      6.7806      6.7900      6.7937      6.7939      6.7902      6.7803      6.7653    
  7.2434      7.0732      6.9222      6.8155      6.7575      6.7353      6.7308      6.7358      6.7579      6.8155    
  6.9222      7.0739      7.2446      7.3975      7.5049      7.5633      7.5832      7.5640      7.5053      7.3968    
  8.0422      7.7194      7.3744      7.0739      6.8594      6.7353      6.6825      6.6826      6.7355      6.8596    
  7.0741      7.3747      7.7197      8.0421      8.3532      8.6739      8.8900      8.8904      8.6745      8.3537    
  9.5191      8.6897      8.1208      7.6094      7.1812      6.8886      6.7308      6.6825      6.7305      6.8884    
  7.1812      7.6094      8.1201      8.6887      9.5182      10.543      11.411      11.752      11.411      10.543    
  13.021      10.877      9.2961      8.3874      7.7382      7.2202      6.8889      6.7356      6.7354      6.8884    
  7.2200      7.7382      8.3870      9.2952      10.876      13.021      15.124      16.428      16.427      15.123    
  19.198      15.423      11.994      9.6774      8.4824      7.7382      7.1813      6.8597      6.7577      6.8595    
  7.1813      7.7383      8.4826      9.6775      11.994      15.424      19.199      22.156      23.275      22.155    
  27.419      22.386      16.906      12.427      9.6770      8.3870      7.6095      7.0740      6.8152      6.8153    
  7.0742      7.6096      8.3872      9.6775      12.428      16.907      22.387      27.419      30.438      30.438    
  35.898      30.579      23.593      16.907      11.993      9.2954      8.1208      7.3749      6.9219      6.7750    
  6.9221      7.3750      8.1205      9.2953      11.994      16.907      23.593      30.577      35.896      37.887    
  42.311      37.940      30.579      22.387      15.423      10.876      8.6894      7.7204      7.0739      6.7533    
  6.7535      7.0740      7.7201      8.6888      10.876      15.423      22.386      30.577      37.938      42.310    
  25.476      24.180      20.751      16.355      12.326      9.5616      8.1289      7.3094      6.7049      6.3546    
  6.2433      6.3547      6.7049      7.3094      8.1288      9.5616      12.326      16.355      20.751      24.180    
  24.180      24.180      21.791      17.856      13.666      10.365      8.4255      7.4497      6.7498      6.2888    
  6.0710      6.0709      6.2888      6.7500      7.4501      8.4258      10.365      13.667      17.856      21.791    
  20.751      21.851      20.751      17.856      14.186      10.888      8.6848      7.5322      6.7766      6.2321    