unknown system                          
   1.00000000000000     
     2.330000    0.000000    0.000000
    -1.165000    2.017839    0.000000
     0.000000    0.000000    4.100000
   Fe
     2
Direct
  0.000000  0.000000  0.000000
  0.333333  0.666667  0.500000
 
   20   20   36
 0.16193919339E+03 0.15343296290E+03 0.13056564379E+03 0.99866905895E+02 0.68648238578E+02
 0.42457495824E+02 0.24136366426E+02 0.13932302700E+02 0.99224381901E+01 0.88265789895E+01
 0.84890083370E+01 0.88267982978E+01 0.99226233783E+01 0.13932238518E+02 0.24136106338E+02
 0.42457271743E+02 0.68648192893E+02 0.99866978234E+02 0.13056570544E+03 0.15343297583E+03
 0.15343886598E+03 0.15343275213E+03 0.13778378193E+03 0.11118696601E+03 0.80641386891E+02
 0.52546812399E+02 0.31007268983E+02 0.17494391102E+02 0.11107726859E+02 0.91263351808E+01
 0.84838846590E+01 0.84835458490E+01 0.91260416503E+01 0.11108142042E+02 0.17494345415E+02
 0.31005502897E+02 0.52545456323E+02 0.80645435946E+02 0.11119848522E+03 0.13779736034E+03
 0.13057443317E+03 0.13776081609E+03 0.13056537207E+03 0.11118698345E+03 0.85080375671E+02
 0.58468048434E+02 0.36206099752E+02 0.20844328906E+02 0.12551344417E+02 0.94494895106E+01
 0.85111940479E+01 0.81942818394E+01 0.85103783430E+01 0.94494808144E+01 0.12552149602E+02
 0.20843474172E+02 0.36202541511E+02 0.58465528617E+02 0.85084257639E+02 0.11119718482E+03
 0.99863076546E+02 0.11111759691E+03 0.11111887938E+03 0.99866930698E+02 0.80641461465E+02
 0.58468079084E+02 0.38143637033E+02 0.22875537710E+02 0.13755423853E+02 0.98076065778E+01
 0.85561802328E+01 0.79903334550E+01 0.79899963720E+01 0.85558931765E+01 0.98083824470E+01
 0.13756685485E+02 0.22875173227E+02 0.38140143112E+02 0.58462239760E+02 0.80635644117E+02
 0.68635854410E+02 0.80540302657E+02 0.84945317109E+02 0.80550280849E+02 0.68648455138E+02
 0.52546923608E+02 0.36206258038E+02 0.22875593929E+02 0.14224464339E+02 0.10056323254E+02
 0.85971400072E+01 0.78728485894E+01 0.76236902810E+01 0.78728806997E+01 0.85971821691E+01
 0.10057215585E+02 0.14227260636E+02 0.22879074915E+02 0.36206152271E+02 0.52539566182E+02
 0.42456002050E+02 0.52468058011E+02 0.58329058344E+02 0.58332507257E+02 0.52474343499E+02
 0.42457696013E+02 0.31007392189E+02 0.20844413230E+02 0.13755313204E+02 0.10056266490E+02
 0.86136468660E+01 0.78229600545E+01 0.74176447367E+01 0.74179113871E+01 0.78227858040E+01
 0.86122743394E+01 0.10055945892E+02 0.13759317480E+02 0.20851934410E+02 0.31012662732E+02
 0.24144834062E+02 0.30988378209E+02 0.36138313015E+02 0.38051032599E+02 0.36134901510E+02
 0.30981490672E+02 0.24136283747E+02 0.17494338326E+02 0.12551215442E+02 0.98074887131E+01
 0.85971866127E+01 0.78229502464E+01 0.73525962339E+01 0.72002689569E+01 0.73531856803E+01
 0.78218730729E+01 0.85935714092E+01 0.98041237974E+01 0.12552149602E+02 0.17500592518E+02
 0.13931869682E+02 0.17519062684E+02 0.20864758083E+02 0.22879565445E+02 0.22875625776E+02
 0.20856175395E+02 0.17512618459E+02 0.13932038554E+02 0.11107651538E+02 0.94494254256E+01
 0.85562368290E+01 0.78728409925E+01 0.74174814418E+01 0.72002434011E+01 0.72009947547E+01
 0.74188122441E+01 0.78725118637E+01 0.85523603246E+01 0.94426591056E+01 0.11101883065E+02
 0.99131013435E+01 0.11142396677E+02 0.12619417009E+02 0.13838333824E+02 0.14308885041E+02
 0.13835488612E+02 0.12619051034E+02 0.11148276539E+02 0.99223974775E+01 0.91264116205E+01
 0.85112566296E+01 0.79903689456E+01 0.76235259609E+01 0.74178502778E+01 0.73533905452E+01
 0.74189144297E+01 0.76265067297E+01 0.79938980598E+01 0.85111726542E+01 0.91201515087E+01
 0.88264026503E+01 0.91661145218E+01 0.95301017289E+01 0.99226368455E+01 0.10190826652E+02
 0.10192020389E+02 0.99267210393E+01 0.95367605461E+01 0.91719245403E+01 0.88267914957E+01
 0.84840064799E+01 0.81943711734E+01 0.79899732981E+01 0.78728141810E+01 0.78229889320E+01
 0.78220860089E+01 0.78724529419E+01 0.79938394953E+01 0.82018680316E+01 0.84898316379E+01
 0.84977360605E+01 0.85371012942E+01 0.86040720253E+01 0.86848461261E+01 0.87537184452E+01
 0.87824602532E+01 0.87572558605E+01 0.86883938329E+01 0.86034868598E+01 0.85311220610E+01
 0.84892243854E+01 0.84836453541E+01 0.85104623183E+01 0.85558334714E+01 0.85971866127E+01
 0.86124116947E+01 0.85935292473E+01 0.85522440234E+01 0.85111940480E+01 0.84898093222E+01
 0.88262282276E+01 0.85370855163E+01 0.82968944160E+01 0.81339100420E+01 0.80488018194E+01
 0.80189074458E+01 0.80198120075E+01 0.80491963091E+01 0.81301590326E+01 0.82896039665E+01
 0.85315073446E+01 0.88268363812E+01 0.91260608586E+01 0.94494073516E+01 0.98081964369E+01
 0.10057185421E+02 0.10055972492E+02 0.98040556520E+01 0.94426497278E+01 0.91200942774E+01
 0.99129641013E+01 0.91661003447E+01 0.86042731970E+01 0.81339836384E+01 0.78089875910E+01
 0.76317930912E+01 0.75775250955E+01 0.76310257050E+01 0.78063063743E+01 0.81305097945E+01
 0.86042332252E+01 0.91723201877E+01 0.99224454233E+01 0.11108020374E+02 0.12551961807E+02
 0.13756582897E+02 0.14227328734E+02 0.13759325541E+02 0.12552090782E+02 0.11101836717E+02
 0.13931952030E+02 0.11142426524E+02 0.95302552860E+01 0.86849687795E+01 0.80487598203E+01
 0.76317876404E+01 0.74353994814E+01 0.74347564352E+01 0.76306750346E+01 0.80491964007E+01
 0.86887099816E+01 0.95367155691E+01 0.11147925869E+02 0.13932056720E+02 0.17494332035E+02
 0.20843494207E+02 0.22875243258E+02 0.22879088727E+02 0.20851870121E+02 0.17500631914E+02
 0.24145094149E+02 0.17519113350E+02 0.12619314831E+02 0.99226312432E+01 0.87537181948E+01
 0.80189276427E+01 0.75775408840E+01 0.74346905231E+01 0.75767787301E+01 0.80198195335E+01
 0.87572558605E+01 0.99259671039E+01 0.12618256722E+02 0.17512607911E+02 0.24136283747E+02
 0.31005764208E+02 0.36202647278E+02 0.38140093633E+02 0.36206099752E+02 0.31012800836E+02
 0.42456240384E+02 0.30988405640E+02 0.20864474543E+02 0.13838149726E+02 0.10190890900E+02
 0.87825533570E+01 0.80198247954E+01 0.76308828703E+01 0.76305376507E+01 0.80198121244E+01
 0.87837502154E+01 0.10191160596E+02 0.13834233172E+02 0.20857062000E+02 0.30983103074E+02
 0.42457710265E+02 0.52545668168E+02 0.58465432837E+02 0.58462113329E+02 0.52539666817E+02
 0.68635934567E+02 0.52468112487E+02 0.36138131411E+02 0.22879326441E+02 0.14308898435E+02
 0.10192146341E+02 0.87572944817E+01 0.80491104907E+01 0.78061576695E+01 0.80491525813E+01
 0.87572947321E+01 0.10191222299E+02 0.14306103065E+02 0.22875994612E+02 0.36138477797E+02
 0.52475613192E+02 0.68648489611E+02 0.80645363153E+02 0.85083951958E+02 0.80635496750E+02
 0.99863031765E+02 0.80540523881E+02 0.58329186572E+02 0.38050884315E+02 0.22875452310E+02
 0.13835531036E+02 0.99268636618E+01 0.86884922398E+01 0.81301095077E+01 0.81303866732E+01
 0.86886857350E+01 0.99261153288E+01 0.13834459694E+02 0.22876060151E+02 0.38054549767E+02
 0.58335111694E+02 0.80546406719E+02 0.99866958255E+02 0.11119804813E+03 0.11119673028E+03
 0.13057437152E+03 0.11111803708E+03 0.84945710578E+02 0.58332469791E+02 0.36134555124E+02
 0.20856061753E+02 0.12619314831E+02 0.95370619648E+01 0.86035268316E+01 0.82893863049E+01
 0.86040720253E+01 0.95368634307E+01 0.12618622698E+02 0.20857231898E+02 0.36138313015E+02
 0.58334946000E+02 0.84941706349E+02 0.11110782035E+03 0.13056537207E+03 0.13779682942E+03
 0.15343883963E+03 0.13776129528E+03 0.11111931770E+03 0.80550274737E+02 0.52473989213E+02
 0.30981273473E+02 0.17512878336E+02 0.11148653921E+02 0.91719770708E+01 0.85308580282E+01
 0.85312590898E+01 0.91723868955E+01 0.11148273403E+02 0.17512817122E+02 0.30982858445E+02
 0.52475204430E+02 0.80546179383E+02 0.11110781849E+03 0.13774774882E+03 0.15343273872E+03
 0.15379681489E+03 0.14572369186E+03 0.12400704129E+03 0.94827023384E+02 0.65142179668E+02
 0.40273573372E+02 0.22960455109E+02 0.13415325357E+02 0.97257983498E+01 0.86919274474E+01
 0.83623472371E+01 0.86921349713E+01 0.97259727829E+01 0.13415263620E+02 0.22960210335E+02
 0.40273366569E+02 0.65142143358E+02 0.94827096065E+02 0.12400709936E+03 0.14572370208E+03
 0.14572919859E+03 0.14572346734E+03 0.13086196520E+03 0.10558433169E+03 0.76535920887E+02
 0.49833395901E+02 0.29425834248E+02 0.16719420454E+02 0.10797975162E+02 0.89775856706E+01
 0.83504837670E+01 0.83501572235E+01 0.89773055557E+01 0.10798400781E+02 0.16719459281E+02
 0.29424266743E+02 0.49832177481E+02 0.76539727984E+02 0.10559512386E+03 0.13087469024E+03
 0.12401524710E+03 0.13084417956E+03 0.12400673512E+03 0.10558433963E+03 0.80753736391E+02
 0.55449774391E+02 0.34331297731E+02 0.19844666184E+02 0.12114326871E+02 0.92690619314E+01
 0.83722920316E+01 0.80643104716E+01 0.83715048224E+01 0.92690451013E+01 0.12115113560E+02
 0.19843921583E+02 0.34328006159E+02 0.55447428963E+02 0.80757382892E+02 0.10559391919E+03
 0.94823470022E+02 0.10552939701E+03 0.10553057385E+03 0.94827026219E+02 0.76536012977E+02
 0.55449825488E+02 0.36161692394E+02 0.21745408002E+02 0.13219424584E+02 0.95863329795E+01
 0.84131892534E+01 0.78639746065E+01 0.78636551336E+01 0.84129055271E+01 0.95870261616E+01
 0.13220551633E+02 0.21745003174E+02 0.36158374471E+02 0.55444353821E+02 0.76530605431E+02
 0.65130659898E+02 0.76458079057E+02 0.80650306948E+02 0.76467395868E+02 0.65142422538E+02
 0.49833556936E+02 0.34331482031E+02 0.21745463578E+02 0.13651253995E+02 0.98073888663E+01
 0.84515808089E+01 0.77490299956E+01 0.75086641689E+01 0.77490877042E+01 0.84516279654E+01
 0.98081713679E+01 0.13653771380E+02 0.21748629216E+02 0.34331341888E+02 0.49826680970E+02
 0.40272212538E+02 0.49781476681E+02 0.55354400090E+02 0.55357647952E+02 0.49787400185E+02
 0.40273826744E+02 0.29425993995E+02 0.19844746346E+02 0.13219291442E+02 0.98073174117E+01
 0.84671955512E+01 0.77003272489E+01 0.73098948283E+01 0.73101718490E+01 0.77002204403E+01
 0.84659480433E+01 0.98070173366E+01 0.13223023644E+02 0.19851776798E+02 0.29430917285E+02
 0.22968358067E+02 0.29431878657E+02 0.34309511519E+02 0.36123352155E+02 0.34306395811E+02
 0.29425526330E+02 0.22960398010E+02 0.16719355322E+02 0.12114159817E+02 0.95861803704E+01
 0.84516126713E+01 0.77003208972E+01 0.72472914536E+01 0.71010708300E+01 0.72478616249E+01
 0.76993516379E+01 0.84482922370E+01 0.95831148903E+01 0.12115113560E+02 0.16725241021E+02
 0.13414887589E+02 0.16765294386E+02 0.19906540880E+02 0.21803595581E+02 0.21799935424E+02
 0.19898569583E+02 0.16759311674E+02 0.13415038274E+02 0.10797858518E+02 0.92689646155E+01
 0.84132343718E+01 0.77490349543E+01 0.73097536933E+01 0.71010548637E+01 0.71017320902E+01
 0.73109498491E+01 0.77487116730E+01 0.84096555159E+01 0.92627199485E+01 0.10792528239E+02
 0.97170489168E+01 0.10850827053E+02 0.12217732948E+02 0.13350624085E+02 0.13788933513E+02
 0.13347929287E+02 0.12217350220E+02 0.10856299785E+02 0.97257262967E+01 0.89776495785E+01
 0.83723658483E+01 0.78640350446E+01 0.75085300419E+01 0.73101297245E+01 0.72480675885E+01
 0.73110488596E+01 0.75112237623E+01 0.78672811760E+01 0.83722809572E+01 0.89718090449E+01
 0.86917524114E+01 0.90331037729E+01 0.93801140707E+01 0.97433668261E+01 0.99903004850E+01
 0.99913694412E+01 0.97470821547E+01 0.93862573357E+01 0.90385195466E+01 0.86921526348E+01
 0.83506426123E+01 0.80644350478E+01 0.78636524848E+01 0.77490284257E+01 0.77004182281E+01
 0.76995557774E+01 0.77486474357E+01 0.78672180890E+01 0.80713942155E+01 0.83560362941E+01
 0.83704949683E+01 0.84175210399E+01 0.84921528628E+01 0.85791853921E+01 0.86519236363E+01
 0.86818279550E+01 0.86551754539E+01 0.85824389748E+01 0.84915891894E+01 0.84119765971E+01
 0.83626095676E+01 0.83502918671E+01 0.83715897134E+01 0.84128265260E+01 0.84516126713E+01
 0.84660733345E+01 0.84482450806E+01 0.84095313965E+01 0.83722920316E+01 0.83560120923E+01
 0.86915862511E+01 0.84175113581E+01 0.81923261280E+01 0.80417312640E+01 0.79648469893E+01
 0.79388085441E+01 0.79396686702E+01 0.79652497449E+01 0.80382639255E+01 0.81855553299E+01
 0.84123496080E+01 0.86921939983E+01 0.89773083822E+01 0.92689297807E+01 0.95868067957E+01
 0.98081302467E+01 0.98070476700E+01 0.95830481335E+01 0.92627019438E+01 0.89717479636E+01
 0.97169186577E+01 0.90331017800E+01 0.84923593958E+01 0.80418062272E+01 0.77321095353E+01
 0.75640041173E+01 0.75126947801E+01 0.75633637355E+01 0.77296941333E+01 0.80386051218E+01
 0.84923211503E+01 0.90389021064E+01 0.97257704707E+01 0.10798234549E+02 0.12114891778E+02
 0.13220445473E+02 0.13653857763E+02 0.13223050626E+02 0.12115058831E+02 0.10792478651E+02
 0.13414966049E+02 0.10850863380E+02 0.93802743263E+01 0.85793106771E+01 0.79648048381E+01
 0.75639953155E+01 0.73757502815E+01 0.73751744960E+01 0.75630044280E+01 0.79652316338E+01
 0.85827664677E+01 0.93862340834E+01 0.10855940477E+02 0.13415054998E+02 0.16719429401E+02
 0.19843951622E+02 0.21745104270E+02 0.21748674737E+02 0.19851726675E+02 0.16725276273E+02
 0.22968602840E+02 0.16765341088E+02 0.12217634115E+02 0.97433616428E+01 0.86519210420E+01
 0.79388221776E+01 0.75127017799E+01 0.73751045603E+01 0.75119628192E+01 0.79396138875E+01
 0.86551754539E+01 0.97464131812E+01 0.12216574085E+02 0.16759222056E+02 0.22960398010E+02
 0.29424553550E+02 0.34328146303E+02 0.36158352765E+02 0.34331297731E+02 0.29431044345E+02
 0.40272432509E+02 0.29431899834E+02 0.19906257377E+02 0.13350435583E+02 0.99903586592E+01
 0.86819183596E+01 0.79396766269E+01 0.75632137600E+01 0.75628632543E+01 0.79396082108E+01
 0.86830006326E+01 0.99906111381E+01 0.13346788424E+02 0.19899334415E+02 0.29426952422E+02
 0.40273839912E+02 0.49832416073E+02 0.55447340309E+02 0.55444214070E+02 0.49826758527E+02
 0.65130728030E+02 0.49781536832E+02 0.34309334563E+02 0.21803349234E+02 0.13788937241E+02
 0.99914995222E+01 0.86552249491E+01 0.79651641456E+01 0.77295375891E+01 0.79651881857E+01
 0.86552275434E+01 0.99906830448E+01 0.13786405741E+02 0.21800311456E+02 0.34309699718E+02
 0.49788554216E+02 0.65142454359E+02 0.76539639020E+02 0.80757040299E+02 0.76530424377E+02
 0.94823422772E+02 0.76458325407E+02 0.55354549124E+02 0.36123200738E+02 0.21799748622E+02
 0.13347975833E+02 0.97472486686E+01 0.85825519817E+01 0.80382056151E+01 0.80384718482E+01
 0.85827541896E+01 0.97465848785E+01 0.13347023473E+02 0.21800371000E+02 0.36126667538E+02
 0.55360094532E+02 0.76463795256E+02 0.94827051649E+02 0.10559464143E+03 0.10559342881E+03
 0.12401518902E+03 0.10552987534E+03 0.80650741524E+02 0.55357619066E+02 0.34306030655E+02
 0.19898445960E+02 0.12217634115E+02 0.93865855729E+01 0.84916274349E+01 0.81853143775E+01
 0.84921528628E+01 0.93864020651E+01 0.12216956813E+02 0.19899494295E+02 0.34309511519E+02
 0.55359916613E+02 0.80646971220E+02 0.10552027725E+03 0.12400673512E+03 0.13087413227E+03
 0.14572917599E+03 0.13084469310E+03 0.10553106177E+03 0.76467410151E+02 0.49787020965E+02
 0.29425274838E+02 0.16759570541E+02 0.10856706820E+02 0.90385859128E+01 0.84116860288E+01
 0.84120687216E+01 0.90389704657E+01 0.10856311186E+02 0.16759434222E+02 0.29426679753E+02
 0.49788114845E+02 0.76463563190E+02 0.10552028684E+03 0.13083199425E+03 0.14572345496E+03
 0.13180982596E+03 0.12489335780E+03 0.10625959020E+03 0.81173683613E+02 0.55656189081E+02
 0.34402486286E+02 0.19844826106E+02 0.12078028717E+02 0.92172463267E+01 0.83235770392E+01
 0.80182078551E+01 0.83237548758E+01 0.92173939984E+01 0.12077973670E+02 0.19844619790E+02
 0.34402321622E+02 0.55656174335E+02 0.81173755828E+02 0.10625963929E+03 0.12489336179E+03
 0.12489780454E+03 0.12489310210E+03 0.11213940108E+03 0.90409667313E+02 0.65416774828E+02
 0.42512515770E+02 0.25203193907E+02 0.14689873472E+02 0.10002564646E+02 0.85691192770E+01
 0.79860042015E+01 0.79857124896E+01 0.85688751953E+01 0.10003006992E+02 0.14690116431E+02
 0.25202136041E+02 0.42511652991E+02 0.65419928069E+02 0.90418506038E+02 0.11214983234E+03
 0.10626623350E+03 0.11213621117E+03 0.10625920306E+03 0.90409652022E+02 0.69033118120E+02
 0.47294806372E+02 0.29305783870E+02 0.17206759342E+02 0.10985714267E+02 0.87922913536E+01
 0.79902755702E+01 0.77085064887E+01 0.79895677442E+01 0.87922507620E+01 0.10986440327E+02
 0.17206296393E+02 0.29303200329E+02 0.47292928281E+02 0.69036131139E+02 0.90417555510E+02
 0.81170864164E+02 0.90395025034E+02 0.90395924194E+02 0.81173632941E+02 0.65416908787E+02
 0.47294906657E+02 0.30842715519E+02 0.18752768341E+02 0.11828051711E+02 0.90106167242E+01
 0.80173739038E+01 0.75165569759E+01 0.75162847377E+01 0.80171005576E+01 0.90110943644E+01
 0.11828831159E+02 0.18752273672E+02 0.30839885676E+02 0.47290426667E+02 0.65412593655E+02
 0.55646972771E+02 0.65403349176E+02 0.69017499905E+02 0.65410896529E+02 0.55656493869E+02
 0.42512796390E+02 0.29306029038E+02 0.18752821462E+02 0.12160547283E+02 0.91623218663E+01
 0.80467197740E+01 0.74069606597E+01 0.71913990603E+01 0.74070805992E+01 0.80467794854E+01
 0.91628244747E+01 0.12162342961E+02 0.18755165335E+02 0.29305807683E+02 0.42507210242E+02
 0.34401470095E+02 0.42534678693E+02 0.47319992202E+02 0.47322696243E+02 0.42539622825E+02
 0.34402866700E+02 0.25203440439E+02 0.17206827880E+02 0.11827865176E+02 0.91622156177E+01
 0.80591346637E+01 0.73604897268E+01 0.70115573846E+01 0.70118561227E+01 0.73605519844E+01
 0.80582163196E+01 0.91619729475E+01 0.11830871296E+02 0.17212541198E+02 0.25207430318E+02
 0.19851214000E+02 0.25278149251E+02 0.29411056651E+02 0.30954257173E+02 0.29408717517E+02
 0.25273213537E+02 0.19844831949E+02 0.14689778527E+02 0.10985456006E+02 0.90103813862E+01
 0.80467158005E+01 0.73604921977E+01 0.69552372813E+01 0.68256771330E+01 0.69557522068E+01
 0.73598045858E+01 0.80441721308E+01 0.90080985721E+01 0.10986440327E+02 0.14694663309E+02
 0.12077585525E+02 0.14794879861E+02 0.17383858030E+02 0.18961359746E+02 0.18958442893E+02
 0.17377511918E+02 0.14790123158E+02 0.12077689075E+02 0.10002348122E+02 0.87921136931E+01
 0.80173908028E+01 0.74069969605E+01 0.70114723889E+01 0.68256845159E+01 0.68261694071E+01
 0.70123195045E+01 0.74066924538E+01 0.80145970392E+01 0.87872456298E+01 0.99981760973E+01
 0.92100799248E+01 0.10107066670E+02 0.11189053680E+02 0.12095519536E+02 0.12448408454E+02
 0.12093233785E+02 0.11188631274E+02 0.10111448835E+02 0.92170984583E+01 0.85691506242E+01
 0.79903752555E+01 0.75166782867E+01 0.71913411436E+01 0.70118605343E+01 0.69559571452E+01
 0.70124089118E+01 0.71932865509E+01 0.75191764014E+01 0.79902876081E+01 0.85644324457E+01
 0.83234100360E+01 0.86704407308E+01 0.89916853303E+01 0.92894342122E+01 0.94855711331E+01
 0.94863159238E+01 0.92921826957E+01 0.89964623127E+01 0.86747995232E+01 0.83238292385E+01
 0.79862496923E+01 0.77087155903E+01 0.75163334470E+01 0.74070402662E+01 0.73607329088E+01
 0.73599830393E+01 0.74066158199E+01 0.75191037999E+01 0.77142446060E+01 0.79905000789E+01
 0.80248020647E+01 0.80939924530E+01 0.81902463126E+01 0.82947476890E+01 0.83782454975E+01
 0.84114040840E+01 0.83807450033E+01 0.82972284062E+01 0.81897451121E+01 0.80896032268E+01
 0.80185777996E+01 0.79859301275E+01 0.79896553916E+01 0.80169773826E+01 0.80467158005E+01
 0.80583084113E+01 0.80441124195E+01 0.80144569653E+01 0.79902755702E+01 0.79904722259E+01
 0.83232650689E+01 0.80939964037E+01 0.79127320926E+01 0.77983103947E+01 0.77456103777E+01
 0.77310471594E+01 0.77317856736E+01 0.77460300194E+01 0.77955982568E+01 0.79073476571E+01
 0.80899404720E+01 0.83238621079E+01 0.85688386538E+01 0.87920375180E+01 0.90107974852E+01
 0.91627551747E+01 0.91620098960E+01 0.90080370309E+01 0.87872100463E+01 0.85643645571E+01
 0.92099673921E+01 0.86704652332E+01 0.81904614706E+01 0.77983877541E+01 0.75338932153E+01
 0.73928129389E+01 0.73503500927E+01 0.73924973256E+01 0.75321726631E+01 0.77959102271E+01
 0.81904298370E+01 0.86751443629E+01 0.92171335973E+01 0.10002736268E+02 0.10986140731E+02
 0.11828716703E+02 0.12162469913E+02 0.11830943375E+02 0.10986398992E+02 0.99981218963E+01
 0.12077653922E+02 0.10107115041E+02 0.89918567354E+01 0.82948776245E+01 0.77455699946E+01
 0.73927972830E+01 0.72287692312E+01 0.72283684433E+01 0.73921225310E+01 0.77459671952E+01
 0.82975779260E+01 0.89964922676E+01 0.10111074040E+02 0.12077702426E+02 0.14690049193E+02
 0.17206351147E+02 0.18752446667E+02 0.18755285210E+02 0.17212527414E+02 0.14694691017E+02
 0.19851420316E+02 0.14794914479E+02 0.11188960767E+02 0.92894293855E+01 0.83782397381E+01
 0.77310477162E+01 0.73503369254E+01 0.72282892273E+01 0.73496653678E+01 0.77315789125E+01
 0.83807450033E+01 0.92917326467E+01 0.11187911410E+02 0.14789840222E+02 0.19844831949E+02
 0.25202483703E+02 0.29303421683E+02 0.30839929065E+02 0.29305783870E+02 0.25207531448E+02
 0.34401645096E+02 0.25278154962E+02 0.17383575553E+02 0.12095321402E+02 0.94856160903E+01
 0.84114904528E+01 0.77317836974E+01 0.73923308871E+01 0.73919717484E+01 0.77315763795E+01
 0.84122705494E+01 0.94858195731E+01 0.12092392595E+02 0.17377964963E+02 0.25274158857E+02
 0.34402877036E+02 0.42511955199E+02 0.47292856184E+02 0.47290254285E+02 0.42507231830E+02
 0.55647012605E+02 0.42534753319E+02 0.29410892261E+02 0.18961097244E+02 0.12448389744E+02
 0.94864572808E+01 0.83808220044E+01 0.77459447892E+01 0.75319956739E+01 0.77459223480E+01
 0.83808277637E+01 0.94859159729E+01 0.12446546051E+02 0.18958831039E+02 0.29411299783E+02
 0.42540474352E+02 0.55656518957E+02 0.65419800451E+02 0.69035700386E+02 0.65412332078E+02
 0.81170812025E+02 0.65403655635E+02 0.47320190699E+02 0.30954099070E+02 0.18958225656E+02
 0.12093291005E+02 0.92924061827E+01 0.82973744178E+01 0.77955161661E+01 0.77957507771E+01
 0.82975940021E+01 0.92919609604E+01 0.12092647948E+02 0.18958876303E+02 0.30957024632E+02
 0.47324716304E+02 0.65408024941E+02 0.81173653017E+02 0.90417916888E+02 0.90416981651E+02
 0.10626618441E+03 0.90395592253E+02 0.69018030725E+02 0.47322688194E+02 0.29408309995E+02
 0.17377365280E+02 0.11188960767E+02 0.89968510241E+01 0.81897767456E+01 0.79070510389E+01
 0.81902463126E+01 0.89967095740E+01 0.11188333817E+02 0.17378100801E+02 0.29411056651E+02
 0.47324509758E+02 0.69014892550E+02 0.90387663447E+02 0.10625920306E+03 0.11214921291E+03
 0.12489779077E+03 0.11213680335E+03 0.90396528366E+02 0.65410960193E+02 0.42539186289E+02
 0.25272880802E+02 0.14790376300E+02 0.10111922805E+02 0.86748982031E+01 0.80892514634E+01
 0.80895847579E+01 0.86752185405E+01 0.10111499640E+02 0.14790058745E+02 0.25273820410E+02
 0.42539963190E+02 0.65407782146E+02 0.90387700400E+02 0.11212638492E+03 0.12489309232E+03
 0.10200628357E+03 0.96632789640E+02 0.82137055928E+02 0.62609337446E+02 0.42825489177E+02
 0.26588221339E+02 0.15832187444E+02 0.10438618527E+02 0.85700056822E+01 0.78107435634E+01
 0.75450221194E+01 0.78108863175E+01 0.85701224965E+01 0.10438572477E+02 0.15832025788E+02
 0.26588102362E+02 0.42825494252E+02 0.62609405587E+02 0.82137094620E+02 0.96632787955E+02
 0.96635839935E+02 0.96632509236E+02 0.86703286955E+02 0.69770307926E+02 0.50330054382E+02
 0.32684858389E+02 0.19671280695E+02 0.12141113508E+02 0.90318969792E+01 0.79909707277E+01
 0.74808238825E+01 0.74805838050E+01 0.79907748207E+01 0.90323306049E+01 0.12141564844E+02
 0.19670834836E+02 0.32684429150E+02 0.50332326309E+02 0.69776546080E+02 0.86710662383E+02
 0.82141635984E+02 0.86720868179E+02 0.82136594947E+02 0.69770268474E+02 0.53117923306E+02
 0.36308833260E+02 0.22664067404E+02 0.13840706216E+02 0.96040459917E+01 0.81524280962E+01
 0.74548287924E+01 0.72139856207E+01 0.74542356549E+01 0.81523523241E+01 0.96046622767E+01
 0.13840578584E+02 0.22662401374E+02 0.36307571684E+02 0.53120088891E+02 0.69775924928E+02
 0.62607473129E+02 0.69812200683E+02 0.69812747867E+02 0.62609231709E+02 0.50330229026E+02
 0.36308982396E+02 0.23794278581E+02 0.14905174269E+02 0.10110446140E+02 0.82745957781E+01
 0.74561462983E+01 0.70298279388E+01 0.70296187856E+01 0.74558919026E+01 0.82748063152E+01
 0.10110802741E+02 0.14904611448E+02 0.23792139311E+02 0.36305831010E+02 0.50327341871E+02
 0.42819284417E+02 0.50405974027E+02 0.53224427411E+02 0.50411187562E+02 0.42825850750E+02
 0.32685256778E+02 0.22664367486E+02 0.14905222039E+02 0.10314155195E+02 0.83507385095E+01
 0.74677013915E+01 0.69233794207E+01 0.67440351792E+01 0.69235635518E+01 0.74677748444E+01
 0.83509105812E+01 0.10315067578E+02 0.14906543906E+02 0.22664069846E+02 0.32681377169E+02
 0.26587629816E+02 0.32809039234E+02 0.36500406636E+02 0.36502376157E+02 0.32812659108E+02
 0.26588724669E+02 0.19671609802E+02 0.13840758103E+02 0.10110208968E+02 0.83505994247E+01
 0.74736888029E+01 0.68772798388E+01 0.65876732335E+01 0.65879831801E+01 0.68775317193E+01
 0.74731877612E+01 0.83504380361E+01 0.10112262654E+02 0.13844724261E+02 0.19674359361E+02
 0.15836567152E+02 0.19841164922E+02 0.22944294695E+02 0.24112222848E+02 0.22942936711E+02
 0.19838052092E+02 0.15832260360E+02 0.12140988917E+02 0.96036986670E+01 0.82742810400E+01
 0.74676603914E+01 0.68772925852E+01 0.65389235558E+01 0.64322200432E+01 0.65393547358E+01
 0.68769554232E+01 0.74661063730E+01 0.82729776082E+01 0.96046622767E+01 0.12144513074E+02
 0.10438188768E+02 0.12328653980E+02 0.14177875768E+02 0.15322379391E+02 0.15320430106E+02
 0.14173643447E+02 0.12325490185E+02 0.10438235511E+02 0.90315801947E+01 0.81521696381E+01
 0.74561330429E+01 0.69234501984E+01 0.65876531211E+01 0.64322516787E+01 0.64325000009E+01
 0.65880720166E+01 0.69231798431E+01 0.74543431534E+01 0.81490629005E+01 0.90288949162E+01
 0.85649574366E+01 0.92104547619E+01 0.99496936536E+01 0.10571277152E+02 0.10814884227E+02
 0.10569550928E+02 0.99492361442E+01 0.92133984315E+01 0.85697815640E+01 0.79909625598E+01
 0.74549506790E+01 0.70300121203E+01 0.67440642140E+01 0.65880368297E+01 0.65395472517E+01
 0.65881457786E+01 0.67450799546E+01 0.70315512435E+01 0.74548593509E+01 0.79877228406E+01
 0.78105991645E+01 0.81600744708E+01 0.84821408620E+01 0.87326996078E+01 0.88804685902E+01
 0.88808138906E+01 0.87342314815E+01 0.84851553345E+01 0.81630351961E+01 0.78110118267E+01
 0.74811483181E+01 0.72142777294E+01 0.70297249672E+01 0.69235467539E+01 0.68776834892E+01
 0.68770944468E+01 0.69230922676E+01 0.70314732436E+01 0.72179459060E+01 0.74839229382E+01
 0.75495634833E+01 0.76506870563E+01 0.77760855694E+01 0.79030509644E+01 0.79999166317E+01
 0.80370182078E+01 0.80014575616E+01 0.79045521163E+01 0.77756800519E+01 0.76477971865E+01
 0.75454877545E+01 0.74808793131E+01 0.74543269830E+01 0.74557311862E+01 0.74676603914E+01
 0.74732344059E+01 0.74660329201E+01 0.74541956922E+01 0.74548287924E+01 0.74838940107E+01
 0.78104800275E+01 0.76507019143E+01 0.75349524202E+01 0.74733145521E+01 0.74555678700E+01
 0.74575617338E+01 0.74581318043E+01 0.74559937572E+01 0.74715855044E+01 0.75313824510E+01
 0.76480788705E+01 0.78110354438E+01 0.79906990239E+01 0.81520494654E+01 0.82744408249E+01
 0.83508084339E+01 0.83504749736E+01 0.82729268560E+01 0.81490184999E+01 0.79876552117E+01
 0.85648659379E+01 0.81601178711E+01 0.77762965422E+01 0.74733914157E+01 0.72765744924E+01
 0.71757725779E+01 0.71464796506E+01 0.71758417126E+01 0.72757223345E+01 0.74718490403E+01
 0.77762784322E+01 0.81633223492E+01 0.85698068796E+01 0.90319639033E+01 0.96042970474E+01
 0.10110681513E+02 0.10315225286E+02 0.10112378597E+02 0.96046443721E+01 0.90288449991E+01
 0.10438244526E+02 0.92105053280E+01 0.84823090576E+01 0.79031802243E+01 0.74555351017E+01
 0.71757532431E+01 0.70482325091E+01 0.70480480999E+01 0.71754677114E+01 0.74558832919E+01
 0.79049079694E+01 0.84852421826E+01 0.92130244303E+01 0.10438245219E+02 0.12141466669E+02
 0.13840659559E+02 0.14904848038E+02 0.14906732726E+02 0.13844753350E+02 0.12144539489E+02
 0.15836728808E+02 0.12328669191E+02 0.99496016095E+01 0.87326934943E+01 0.79999141958E+01
 0.74575561004E+01 0.71464488026E+01 0.70479612221E+01 0.71458812703E+01 0.74577655542E+01
 0.80014575616E+01 0.87340470427E+01 0.99486124483E+01 0.12325003763E+02 0.15832260360E+02
 0.19671239971E+02 0.22662699015E+02 0.23792243409E+02 0.22664067404E+02 0.19674435389E+02
 0.26587755983E+02 0.19841153615E+02 0.14177598709E+02 0.10571073403E+02 0.88805036900E+01
 0.80371062152E+01 0.74581241708E+01 0.71756618880E+01 0.71753072216E+01 0.74577635542E+01
 0.80375017123E+01 0.88806356874E+01 0.10569085572E+02 0.14173725095E+02 0.19838413697E+02
 0.26588731858E+02 0.32684791422E+02 0.36307515294E+02 0.36305625484E+02 0.32681341053E+02
 0.42819296997E+02 0.32809129845E+02 0.22944147721E+02 0.15322106696E+02 0.10814845452E+02
 0.88809690463E+01 0.80015650120E+01 0.74559091028E+01 0.72755220565E+01 0.74558314059E+01
 0.80015674480E+01 0.88807557433E+01 0.10813857107E+02 0.15320813815E+02 0.22944587527E+02
 0.32813131653E+02 0.42825868405E+02 0.50332161484E+02 0.53119574122E+02 0.50327002402E+02
 0.62607419165E+02 0.50406337877E+02 0.36500651980E+02 0.24112061586E+02 0.15320188416E+02
 0.10569620478E+02 0.87345090608E+01 0.79047245039E+01 0.74714731349E+01 0.74716598073E+01
 0.79049510970E+01 0.87343307355E+01 0.10569358871E+02 0.15320844819E+02 0.24114244880E+02
 0.36503821893E+02 0.50409269281E+02 0.62609245886E+02 0.69775859887E+02 0.69775278187E+02
 0.82141597292E+02 0.69812845819E+02 0.53225044435E+02 0.36502389720E+02 0.22942496905E+02
 0.14173477332E+02 0.99496016095E+01 0.84855910772E+01 0.77756981618E+01 0.75310328634E+01
 0.77760855694E+01 0.84855097297E+01 0.99490699577E+01 0.14173836039E+02 0.22944294695E+02
 0.36503590112E+02 0.53222758940E+02 0.69807159388E+02 0.82136594948E+02 0.86709994956E+02
 0.96635834699E+02 0.86721524974E+02 0.69813456781E+02 0.50411301217E+02 0.32812174904E+02
 0.19837643200E+02 0.12325726846E+02 0.92139243879E+01 0.81631629299E+01 0.76473933196E+01
 0.76476601456E+01 0.81634066826E+01 0.92134998207E+01 0.12325225213E+02 0.19838016112E+02
 0.32812556837E+02 0.50409019086E+02 0.69807223167E+02 0.86714149988E+02 0.96632502315E+02
 0.71199964734E+02 0.67410685659E+02 0.57197304772E+02 0.43499502778E+02 0.29808577454E+02
 0.18914400031E+02 0.12117199053E+02 0.90209440422E+01 0.78934309439E+01 0.72579706355E+01
 0.70430655061E+01 0.72580824981E+01 0.78935212127E+01 0.90209062567E+01 0.12117074054E+02
 0.18914314302E+02 0.29808591616E+02 0.43499562599E+02 0.57197334973E+02 0.67410681561E+02
 0.67412382707E+02 0.67410410098E+02 0.60398917049E+02 0.48474858271E+02 0.34911191889E+02
 0.22875108547E+02 0.14396721775E+02 0.98751155609E+01 0.81539846307E+01 0.73562393957E+01