   2   2   0   0
  0.9638209E+01  0.2330000E-09  0.2330000E-09  0.4100000E-09  0.5000000E-15
  1.000000000000000E-004
  CAR 
 unknown system                          
     75.37041413     -5.34250858  301      7.58910756      1.00000000
     -5.343  0.0000E+00  0.0000E+00
     -5.073  0.0000E+00  0.0000E+00
     -4.804  0.0000E+00  0.0000E+00
     -4.535  0.0000E+00  0.0000E+00
     -4.266  0.0000E+00  0.0000E+00
     -3.997  0.0000E+00  0.0000E+00
     -3.728  0.0000E+00  0.0000E+00
     -3.459 -0.1333E-35 -0.3587E-36
     -3.190 -0.5002E-26 -0.1346E-26
     -2.921 -0.4871E-18 -0.1311E-18
     -2.652 -0.1163E-11 -0.3129E-12
     -2.383 -0.6909E-07 -0.1859E-07
     -2.114 -0.8676E-04 -0.2336E-04
     -1.845 -0.4766E-03 -0.1516E-03
     -1.576  0.2407E-01  0.6325E-02
     -1.307  0.4094E-01  0.1734E-01
     -1.038 -0.4488E-02  0.1613E-01
     -0.769  0.1657E+00  0.6072E-01
     -0.500  0.2670E+00  0.1326E+00
     -0.231  0.1846E-01  0.1375E+00
      0.038  0.2585E+00  0.2071E+00
      0.307  0.3207E-01  0.2157E+00
      0.576  0.1545E-01  0.2198E+00
      0.845  0.5103E+00  0.3571E+00
      1.115  0.2013E+00  0.4113E+00
      1.384  0.5331E+00  0.5547E+00
      1.653  0.3093E+00  0.6379E+00
      1.922  0.5220E+00  0.7784E+00
      2.191  0.3728E+00  0.8787E+00
      2.460  0.7808E+00  0.1089E+01
      2.729  0.2955E+01  0.1884E+01
      2.998  0.2423E+01  0.2536E+01
      3.267  0.1834E+01  0.3029E+01
      3.536  0.2775E+01  0.3775E+01
      3.805  0.2357E+01  0.4410E+01
      4.074  0.2746E+01  0.5148E+01
      4.343  0.2938E+01  0.5939E+01
      4.612  0.2834E+01  0.6701E+01
      4.881  0.2919E+01  0.7487E+01
      5.150  0.1676E+01  0.7937E+01
      5.419  0.2626E+01  0.8644E+01
      5.688  0.4788E+01  0.9932E+01
      5.957  0.2955E+01  0.1073E+02
      6.226  0.3709E+01  0.1172E+02
      6.495  0.4082E+01  0.1282E+02
      6.764  0.3114E+01  0.1366E+02
      7.033  0.2493E+01  0.1433E+02
      7.303  0.2548E+01  0.1502E+02
      7.572  0.3419E+01  0.1594E+02
      7.841  0.3555E+01  0.1689E+02
      8.110  0.3110E+01  0.1773E+02
      8.379  0.3855E+01  0.1877E+02
      8.648  0.4656E+01  0.2002E+02
      8.917  0.3300E+01  0.2091E+02
      9.186  0.7908E+00  0.2112E+02
      9.455  0.7017E+00  0.2131E+02
      9.724  0.1305E+01  0.2166E+02
      9.993  0.6759E+00  0.2184E+02
     10.262  0.2660E+00  0.2191E+02
     10.531  0.3481E+00  0.2201E+02
     10.800  0.8783E+00  0.2224E+02
     11.069  0.1699E+00  0.2229E+02
     11.338 -0.2931E-01  0.2228E+02
     11.607  0.1835E+00  0.2233E+02
     11.876  0.7214E+00  0.2253E+02
     12.145  0.5255E+00  0.2267E+02
     12.414  0.7194E+00  0.2286E+02
     12.683  0.7367E+00  0.2306E+02
     12.952  0.2345E+00  0.2312E+02
     13.221  0.3300E+00  0.2321E+02
     13.491  0.3981E+00  0.2332E+02
     13.760  0.4771E+00  0.2345E+02
     14.029  0.2461E+00  0.2351E+02
     14.298  0.7457E+00  0.2371E+02
     14.567  0.1715E+00  0.2376E+02
     14.836 -0.1552E-01  0.2375E+02
     15.105  0.1644E-01  0.2376E+02
     15.374  0.2640E+00  0.2383E+02
     15.643  0.1769E+00  0.2388E+02
     15.912  0.2135E+00  0.2394E+02
     16.181  0.2710E-01  0.2394E+02
     16.450  0.6912E+00  0.2413E+02
     16.719  0.4271E+00  0.2424E+02
     16.988  0.1346E+00  0.2428E+02
     17.257  0.4281E+00  0.2439E+02
     17.526  0.4325E+00  0.2451E+02
     17.795  0.8337E+00  0.2474E+02
     18.064  0.5999E+00  0.2490E+02
     18.333  0.4510E+00  0.2502E+02
     18.602  0.9718E+00  0.2528E+02
     18.871  0.3757E+00  0.2538E+02
     19.140  0.7311E+00  0.2558E+02
     19.409  0.7276E+00  0.2577E+02
     19.678  0.6361E+00  0.2594E+02
     19.948  0.1186E+01  0.2626E+02
     20.217  0.8545E+00  0.2649E+02
     20.486  0.3220E+00  0.2658E+02
     20.755  0.5056E+00  0.2672E+02
     21.024  0.3510E+00  0.2681E+02
     21.293  0.4003E+00  0.2692E+02
     21.562  0.6677E+00  0.2710E+02
     21.831  0.1109E+01  0.2740E+02
     22.100  0.4946E+00  0.2753E+02
     22.369  0.5937E+00  0.2769E+02
     22.638  0.2178E+00  0.2775E+02
     22.907  0.8311E+00  0.2797E+02
     23.176  0.8502E+00  0.2820E+02
     23.445  0.1117E+01  0.2850E+02
     23.714  0.5148E+00  0.2864E+02
     23.983  0.3534E+00  0.2873E+02
     24.252  0.2348E+00  0.2880E+02
     24.521  0.6121E+00  0.2896E+02
     24.790  0.1246E+01  0.2930E+02
     25.059  0.9828E+00  0.2956E+02
     25.328  0.6188E+00  0.2973E+02
     25.597  0.6183E+00  0.2989E+02
     25.866  0.1299E+01  0.3024E+02
     26.136  0.1675E+01  0.3069E+02
     26.405  0.7449E+00  0.3089E+02
     26.674  0.7212E+00  0.3109E+02
     26.943  0.6066E+00  0.3125E+02
     27.212  0.3766E+00  0.3135E+02
     27.481  0.1002E+01  0.3162E+02
     27.750  0.6298E+00  0.3179E+02
     28.019  0.9549E+00  0.3205E+02
     28.288  0.5791E+00  0.3220E+02
     28.557  0.1533E+01  0.3262E+02
     28.826  0.1674E+01  0.3307E+02
     29.095  0.7743E+00  0.3328E+02
     29.364  0.4985E+00  0.3341E+02
     29.633  0.1149E+01  0.3372E+02
     29.902  0.5243E+00  0.3386E+02
     30.171  0.1913E+00  0.3391E+02
     30.440  0.1020E+01  0.3419E+02
     30.709  0.7300E+00  0.3438E+02
     30.978  0.9783E+00  0.3465E+02
     31.247  0.5904E+00  0.3481E+02
     31.516  0.3154E+00  0.3489E+02
     31.785  0.7892E+00  0.3510E+02
     32.054  0.2350E+00  0.3517E+02
     32.324  0.9197E+00  0.3541E+02
     32.593  0.7246E+00  0.3561E+02
     32.862  0.9757E+00  0.3587E+02
     33.131  0.9061E+00  0.3611E+02
     33.400  0.3587E+00  0.3621E+02
     33.669  0.4290E+00  0.3633E+02
     33.938  0.2061E+01  0.3688E+02
     34.207  0.1001E+01  0.3715E+02
     34.476  0.4138E+00  0.3726E+02
     34.745  0.6953E+00  0.3745E+02
     35.014  0.1634E+01  0.3789E+02
     35.283  0.6072E+00  0.3805E+02
     35.552 -0.1563E-01  0.3805E+02
     35.821  0.3998E+00  0.3815E+02
     36.090  0.9938E+00  0.3842E+02
     36.359  0.5996E+00  0.3858E+02
     36.628  0.9744E+00  0.3885E+02
     36.897  0.1117E+01  0.3915E+02
     37.166  0.1069E+01  0.3943E+02
     37.435  0.8987E+00  0.3968E+02
     37.704  0.3537E+00  0.3977E+02
     37.973  0.4374E+00  0.3989E+02
     38.242  0.9454E+00  0.4014E+02
     38.512  0.1162E+01  0.4046E+02
     38.781  0.9491E+00  0.4071E+02
     39.050  0.2224E+01  0.4131E+02
     39.319  0.1133E+01  0.4161E+02
     39.588  0.6352E+00  0.4178E+02
     39.857  0.5825E+00  0.4194E+02
     40.126  0.9303E+00  0.4219E+02
     40.395  0.4495E+00  0.4231E+02
     40.664  0.1426E+01  0.4270E+02
     40.933  0.8892E+00  0.4294E+02
     41.202  0.2709E+00  0.4301E+02
     41.471  0.5238E+00  0.4315E+02
     41.740  0.5255E+00  0.4329E+02
     42.009  0.2505E+00  0.4336E+02
     42.278  0.4355E+00  0.4348E+02
     42.547  0.1078E+01  0.4377E+02
     42.816  0.1426E+01  0.4415E+02
     43.085  0.1138E+01  0.4446E+02
     43.354  0.7012E+00  0.4464E+02
     43.623  0.1244E+01  0.4498E+02
     43.892  0.7526E+00  0.4518E+02
     44.161  0.1012E+01  0.4545E+02
     44.430  0.1190E+01  0.4577E+02
     44.700  0.1415E+01  0.4615E+02
     44.969  0.8387E+00  0.4638E+02
     45.238  0.1156E+01  0.4669E+02
     45.507  0.1481E+01  0.4709E+02
     45.776  0.1282E+01  0.4743E+02
     46.045  0.6418E+00  0.4761E+02
     46.314  0.1117E+01  0.4791E+02
     46.583  0.4183E-01  0.4792E+02
     46.852  0.4050E+00  0.4803E+02
     47.121  0.1145E+01  0.4834E+02
     47.390  0.7406E+00  0.4854E+02
     47.659  0.1013E+01  0.4881E+02
     47.928  0.1356E+01  0.4917E+02
     48.197  0.9483E+00  0.4943E+02
     48.466  0.1111E+01  0.4973E+02
     48.735  0.6896E+00  0.4991E+02
     49.004  0.1027E+01  0.5019E+02
     49.273  0.1141E+01  0.5050E+02
     49.542  0.5824E+00  0.5065E+02
     49.811  0.1478E+01  0.5105E+02
     50.080  0.1153E+01  0.5136E+02
     50.349  0.3988E+00  0.5147E+02
     50.618  0.8536E+00  0.5170E+02
     50.887  0.1233E+01  0.5203E+02
     51.157  0.6432E+00  0.5220E+02
     51.426  0.1173E+01  0.5252E+02
     51.695  0.1769E+01  0.5299E+02
     51.964  0.1162E+01  0.5331E+02
     52.233  0.8887E+00  0.5354E+02
     52.502  0.1571E+01  0.5397E+02
     52.771  0.1213E+01  0.5429E+02
     53.040  0.1494E+01  0.5470E+02
     53.309  0.1101E+01  0.5499E+02
     53.578  0.1146E+01  0.5530E+02
     53.847  0.8161E+00  0.5552E+02
     54.116  0.7486E+00  0.5572E+02
     54.385  0.7961E+00  0.5594E+02
     54.654  0.1080E+01  0.5623E+02
     54.923  0.6944E+00  0.5641E+02
     55.192  0.5551E+00  0.5656E+02
     55.461  0.6084E+00  0.5673E+02
     55.730  0.2553E+00  0.5679E+02
     55.999  0.7426E+00  0.5699E+02
     56.268  0.1898E+01  0.5750E+02
     56.537  0.2689E+01  0.5823E+02
     56.806  0.1701E+01  0.5869E+02
     57.075  0.1375E+01  0.5906E+02
     57.345  0.1021E+01  0.5933E+02
     57.614  0.1436E+01  0.5972E+02
     57.883  0.1561E+01  0.6014E+02
     58.152  0.1892E+01  0.6065E+02
     58.421  0.1589E+01  0.6107E+02
     58.690  0.1826E+01  0.6157E+02
     58.959  0.1594E+01  0.6199E+02
     59.228  0.1173E+01  0.6231E+02
     59.497  0.1586E+01  0.6274E+02
     59.766  0.1486E+01  0.6314E+02
     60.035  0.1965E+01  0.6366E+02
     60.304  0.1274E+01  0.6401E+02
     60.573  0.1552E+01  0.6443E+02
     60.842  0.1989E+01  0.6496E+02
     61.111  0.1984E+01  0.6549E+02
     61.380  0.2336E+01  0.6612E+02
     61.649  0.2302E+01  0.6674E+02
     61.918  0.2155E+01  0.6732E+02
     62.187  0.1660E+01  0.6777E+02
     62.456  0.6391E+00  0.6794E+02
     62.725  0.1550E+01  0.6836E+02
     62.994  0.1889E+01  0.6887E+02
     63.263  0.1514E+01  0.6927E+02
     63.533  0.1869E+01  0.6978E+02
     63.802  0.2466E+01  0.7044E+02
     64.071  0.1537E+01  0.7085E+02
     64.340  0.1646E+01  0.7130E+02
     64.609  0.6801E+00  0.7148E+02
     64.878  0.1296E+01  0.7183E+02
     65.147  0.1269E+01  0.7217E+02
     65.416  0.2165E+01  0.7275E+02
     65.685  0.1389E+01  0.7313E+02
     65.954  0.1403E+01  0.7350E+02
     66.223  0.1153E+01  0.7381E+02
     66.492  0.1498E+01  0.7422E+02
     66.761  0.1980E+01  0.7475E+02
     67.030  0.2304E+01  0.7537E+02
     67.299  0.2015E+01  0.7591E+02
     67.568  0.1540E+01  0.7632E+02
     67.837  0.1637E+01  0.7677E+02
     68.106  0.1083E+01  0.7706E+02
     68.375  0.1293E+01  0.7740E+02
     68.644  0.2048E+01  0.7796E+02
     68.913  0.1446E+01  0.7834E+02
     69.182  0.9475E+00  0.7860E+02
     69.451  0.1770E+01  0.7908E+02
     69.721  0.8503E+00  0.7930E+02
     69.990  0.8401E+00  0.7953E+02
     70.259  0.6987E+00  0.7972E+02
     70.528  0.7632E+00  0.7992E+02
     70.797  0.1669E+00  0.7997E+02
     71.066 -0.1400E-01  0.7997E+02
     71.335 -0.1789E-02  0.7996E+02
     71.604  0.1938E-01  0.7997E+02
     71.873  0.1128E+00  0.8000E+02
     72.142  0.1207E-03  0.8000E+02
     72.411 -0.5141E-03  0.8000E+02
     72.680 -0.4143E-06  0.8000E+02
     72.949 -0.6977E-11  0.8000E+02
     73.218  0.0000E+00  0.8000E+02
     73.487  0.0000E+00  0.8000E+02
     73.756  0.0000E+00  0.8000E+02
     74.025  0.0000E+00  0.8000E+02
     74.294  0.0000E+00  0.8000E+02
     74.563  0.0000E+00  0.8000E+02
     74.832  0.0000E+00  0.8000E+02
     75.101  0.0000E+00  0.8000E+02
     75.370  0.0000E+00  0.8000E+02
