    2    2    1    1
  0.9638209E+01  0.2330000E-09  0.2330000E-09  0.4100000E-09  0.5000000E-15
  1.000000000000000E-004
  CAR 
 unknown system                          
     16     32     40
 
  0.0000000E+00  0.0000000E+00  0.0000000E+00  0.2915452E-02
    1       -1.673739   1.000000
    2        2.248967   1.000000
    3        5.211220   1.000000
    4        5.858707   1.000000
    5        5.858789   1.000000
    6        6.195004   1.000000
    7        6.195101   1.000000
    8        6.807277   1.000000
    9        7.234534   1.015496
   10        7.234558   1.015501
   11        8.392810  -0.000000
   12        8.392835  -0.000000
   13       15.398080   0.000000
   14       31.432568   0.000000
   15       31.646356   0.000000
   16       34.560513   0.000000
   17       37.243864   0.000000
   18       37.243916   0.000000
   19       38.016952   0.000000
   20       38.017134   0.000000
   21       38.841374   0.000000
   22       40.696328   0.000000
   23       40.696340   0.000000
   24       41.742796   0.000000
   25       44.574645   0.000000
   26       44.574662   0.000000
   27       45.516496   0.000000
   28       48.646164   0.000000
   29       48.646574   0.000000
   30       50.580485   0.000000
   31       50.580619   0.000000
   32       53.196205   0.000000
   33       60.971255   0.000000
   34       62.985214   0.000000
   35       62.986111   0.000000
   36       63.062933   0.000000
   37       64.174179   0.000000
   38       65.608174   0.000000
   39       65.609269   0.000000
   40       67.183358   0.000000
 
  0.1428571E+00 -0.5113488E-17  0.0000000E+00  0.1749271E-01
    1       -0.839887   1.000000
    2        2.842646   1.000000
    3        5.116286   1.000000
    4        5.249606   1.000000
    5        5.739129   1.000000
    6        6.054480   1.000000
    7        6.357888   1.000000
    8        6.658362   1.000000
    9        6.872836   1.000003
   10        6.960931   1.000042
   11        8.464435  -0.000000
   12       10.602000  -0.000000
   13       15.458458   0.000000
   14       28.311461   0.000000
   15       32.172224   0.000000
   16       32.400837   0.000000
   17       32.650068   0.000000
   18       34.113645   0.000000
   19       37.182248   0.000000
   20       38.346020   0.000000
   21       39.628484   0.000000
   22       39.637686   0.000000
   23       42.450239   0.000000
   24       43.334603   0.000000
   25       45.271813   0.000000
   26       45.419853   0.000000
   27       47.154874   0.000000
   28       48.741328   0.000000
   29       52.531619   0.000000
   30       52.941966   0.000000
   31       54.674691   0.000000
   32       57.000422   0.000000
   33       58.974180   0.000000
   34       60.413328   0.000000
   35       60.929368   0.000000
   36       62.145038   0.000000
   37       63.181418   0.000000
   38       66.996578   0.000000
   39       67.073819   0.000000
   40       68.220693   0.000000
 
  0.2857143E+00 -0.6063640E-17  0.0000000E+00  0.1749271E-01
    1        1.213312   1.000000
    2        3.366416   1.000000
    3        3.802237   1.000000
    4        4.964178   1.000000
    5        5.465155   1.000000
    6        6.139213   1.000000
    7        6.454838   1.000000
    8        7.189279   1.008017
    9        7.592605   0.485202
   10        7.783539  -0.021991
   11        8.523655  -0.000000
   12       13.921990   0.000000
   13       15.750268   0.000000
   14       21.994395   0.000000
   15       27.877737   0.000000
   16       28.616300   0.000000
   17       29.769646   0.000000
   18       32.840914   0.000000
   19       35.238901   0.000000
   20       38.533078   0.000000
   21       38.770852   0.000000
   22       39.266465   0.000000
   23       39.363803   0.000000
   24       43.475782   0.000000
   25       50.042056   0.000000
   26       51.410248   0.000000
   27       52.561292   0.000000
   28       53.558432   0.000000
   29       54.026950   0.000000
   30       56.157328   0.000000
   31       57.069218   0.000000
   32       58.907102   0.000000
   33       60.020472   0.000000
   34       60.048427   0.000000
   35       61.510347   0.000000
   36       64.071821   0.000000
   37       64.297206   0.000000
   38       66.863721   0.000000
   39       68.118306   0.000000
   40       68.172166   0.000000
 
  0.4285714E+00 -0.5159619E-16  0.0000000E+00  0.1749271E-01
    1        2.585488   1.000000
    2        2.908251   1.000000
    3        3.075818   1.000000
    4        5.558507   1.000000
    5        5.580209   1.000000
    6        6.094239   1.000000
    7        6.106983   1.000000
    8        8.525941  -0.000000
    9        8.715323  -0.000000
   10        8.831997  -0.000000
   11        9.593341  -0.000000
   12       14.317437   0.000000
   13       17.493510   0.000000
   14       19.367763   0.000000
   15       23.042335   0.000000
   16       25.212718   0.000000
   17       26.138327   0.000000
   18       31.559106   0.000000
   19       34.084965   0.000000
   20       36.651979   0.000000
   21       38.053394   0.000000
   22       40.715418   0.000000
   23       42.658821   0.000000
   24       43.150472   0.000000
   25       48.624268   0.000000
   26       52.862653   0.000000
   27       54.180048   0.000000
   28       57.845076   0.000000
   29       58.481688   0.000000
   30       58.740482   0.000000
   31       59.407523   0.000000
   32       61.391274   0.000000
   33       61.603494   0.000000
   34       62.995952   0.000000
   35       63.608338   0.000000
   36       65.907900   0.000000
   37       65.940850   0.000000
   38       67.364159   0.000000
   39       68.038480   0.000000
   40       68.379947   0.000000
 
  0.1428571E+00  0.1428571E+00  0.0000000E+00  0.1749271E-01
    1        0.656478   1.000000
    2        3.660843   1.000000
    3        4.186238   1.000000
    4        4.568236   1.000000
    5        5.575798   1.000000
    6        6.085596   1.000000
    7        6.261336   1.000000
    8        6.830310   1.000001
    9        7.353452   1.035104
   10        7.718286   0.060454
   11        8.403987  -0.000000
   12       13.033116  -0.000000
   13       15.722748   0.000000
   14       24.980467   0.000000
   15       25.949028   0.000000
   16       30.339976   0.000000
   17       31.792634   0.000000
   18       33.997647   0.000000
   19       34.667575   0.000000
   20       36.216360   0.000000
   21       38.237927   0.000000
   22       42.826315   0.000000
   23       42.888955   0.000000
   24       44.344602   0.000000
   25       45.620516   0.000000
   26       47.026567   0.000000
   27       49.098332   0.000000
   28       54.179957   0.000000
   29       56.179172   0.000000
   30       56.511441   0.000000
   31       56.786166   0.000000
   32       59.063327   0.000000
   33       59.081251   0.000000
   34       59.916618   0.000000
   35       60.340591   0.000000
   36       61.700624   0.000000
   37       63.353975   0.000000
   38       67.082080   0.000000
   39       67.985249   0.000000
   40       69.406846   0.000000
 
  0.2857143E+00  0.1428571E+00  0.0000000E+00  0.3498542E-01
    1        2.691565   1.000000
    2        3.410464   1.000000
    3        3.520595   1.000000
    4        4.671885   1.000000
    5        5.544866   1.000000
    6        5.818446   1.000000
    7        6.215354   1.000000
    8        7.312846   1.032433
    9        8.310269  -0.000002
   10        8.498132  -0.000000
   11        9.550675  -0.000000
   12       16.321342   0.000000
   13       16.438169   0.000000
   14       19.800352   0.000000
   15       23.070233   0.000000
   16       25.667173   0.000000
   17       28.492100   0.000000
   18       29.383868   0.000000
   19       32.974205   0.000000
   20       38.384821   0.000000
   21       39.017465   0.000000
   22       42.407038   0.000000
   23       43.795992   0.000000
   24       46.133236   0.000000
   25       48.170181   0.000000
   26       50.780976   0.000000
   27       51.925350   0.000000
   28       52.403976   0.000000
   29       56.296669   0.000000
   30       56.884841   0.000000
   31       58.469887   0.000000
   32       61.089397   0.000000
   33       61.969238   0.000000
   34       62.847806   0.000000
   35       64.821674   0.000000
   36       65.022010   0.000000
   37       66.189423   0.000000
   38       67.341424   0.000000
   39       68.347785   0.000000
   40       70.063674   0.000000
 
  0.4285714E+00  0.1428571E+00  0.0000000E+00  0.1749271E-01
    1        3.107132   1.000000
    2        3.156038   1.000000
    3        3.307767   1.000000
    4        5.358935   1.000000
    5        5.484936   1.000000
    6        5.758925   1.000000
    7        6.176575   1.000000
    8        8.268702  -0.000008
    9        8.406787  -0.000000
   10        8.617256  -0.000000
   11       11.710780  -0.000000
   12       13.805475   0.000000
   13       19.396232   0.000000
   14       20.343335   0.000000
   15       21.678301   0.000000
   16       22.153181   0.000000
   17       24.857602   0.000000
   18       28.603749   0.000000
   19       32.137544   0.000000
   20       38.081448   0.000000
   21       40.771238   0.000000
   22       43.130670   0.000000
   23       44.718045   0.000000
   24       44.728945   0.000000
   25       48.427517   0.000000
   26       51.591726   0.000000
   27       53.420029   0.000000
   28       53.711584   0.000000
   29       57.218796   0.000000
   30       57.896581   0.000000
   31       60.394676   0.000000
   32       60.972999   0.000000
   33       61.819241   0.000000
   34       61.953666   0.000000
   35       66.093263   0.000000
   36       67.183156   0.000000
   37       67.745620   0.000000
   38       68.458226   0.000000
   39       68.800186   0.000000
   40       70.368368   0.000000
 
  0.2857143E+00  0.2857143E+00  0.0000000E+00  0.1749271E-01
    1        3.419896   1.000000
    2        3.875602   1.000000
    3        4.177941   1.000000
    4        4.244382   1.000000
    5        5.263422   1.000000
    6        5.596108   1.000000
    7        6.296527   1.000000
    8        7.634530   0.313189
    9        8.007814  -0.005841
   10        8.477132  -0.000000
   11       12.419669  -0.000000
   12       16.744093   0.000000
   13       16.982331   0.000000
   14       20.017065   0.000000
   15       21.029161   0.000000
   16       24.547024   0.000000
   17       24.635154   0.000000
   18       26.745215   0.000000
   19       27.647128   0.000000
   20       41.494424   0.000000
   21       43.028695   0.000000
   22       46.188861   0.000000
   23       47.231294   0.000000
   24       47.289039   0.000000
   25       47.783707   0.000000
   26       48.025695   0.000000
   27       51.026686   0.000000
   28       53.286342   0.000000
   29       54.079634   0.000000
   30       56.053964   0.000000
   31       58.158895   0.000000
   32       60.468177   0.000000
   33       60.743034   0.000000
   34       62.209007   0.000000
   35       66.715537   0.000000
   36       67.146764   0.000000
   37       67.836271   0.000000
   38       68.939062   0.000000
   39       69.399094   0.000000
   40       71.701645   0.000000
 
  0.0000000E+00  0.0000000E+00  0.1428571E+00  0.5830904E-02
    1       -1.468546   1.000000
    2        2.171672   1.000000
    3        5.154669   1.000000
    4        5.838839   1.000000
    5        5.838919   1.000000
    6        6.151036   1.000000
    7        6.151131   1.000000
    8        6.300245   1.000000
    9        7.331732   1.034912
   10        7.331758   1.034914
   11        8.367642  -0.000000
   12        8.367669  -0.000000
   13       16.303405   0.000000
   14       30.027938   0.000000
   15       31.789295   0.000000
   16       34.154047   0.000000
   17       37.357611   0.000000
   18       37.357645   0.000000
   19       38.037412   0.000000
   20       38.037580   0.000000
   21       39.888165   0.000000
   22       40.542595   0.000000
   23       40.542649   0.000000
   24       42.370986   0.000000
   25       43.831666   0.000000
   26       43.831688   0.000000
   27       46.105319   0.000000
   28       49.258884   0.000000
   29       49.259250   0.000000
   30       51.513014   0.000000
   31       51.513130   0.000000
   32       52.811670   0.000000
   33       59.309830   0.000000
   34       62.469691   0.000000
   35       62.470495   0.000000
   36       63.091943   0.000000
   37       63.092395   0.000000
   38       63.432549   0.000000
   39       64.737221   0.000000
   40       66.086972   0.000000
 
  0.1428571E+00 -0.5113488E-17  0.1428571E+00  0.3498542E-01
    1       -0.648441   1.000000
    2        2.791511   1.000000
    3        4.997411   1.000000
    4        5.137064   1.000000
    5        5.630883   1.000000
    6        6.025866   1.000000
    7        6.310274   1.000000
    8        6.599161   1.000000
    9        7.049298   1.000455
   10        7.109837   1.001817
   11        8.420179  -0.000000
   12       10.040625  -0.000000
   13       16.547543   0.000000
   14       28.412121   0.000000
   15       30.846193   0.000000
   16       32.146291   0.000000
   17       32.856830   0.000000
   18       33.830268   0.000000
   19       36.944934   0.000000
   20       38.817083   0.000000
   21       38.880177   0.000000
   22       40.712801   0.000000
   23       42.637122   0.000000
   24       44.087507   0.000000
   25       45.584339   0.000000
   26       46.005091   0.000000
   27       46.925669   0.000000
   28       49.092792   0.000000
   29       51.937890   0.000000
   30       53.524154   0.000000
   31       55.356352   0.000000
   32       56.429296   0.000000
   33       56.732276   0.000000
   34       59.818891   0.000000
   35       61.840726   0.000000
   36       62.498431   0.000000
   37       63.665497   0.000000
   38       65.299236   0.000000
   39       65.344143   0.000000
   40       67.337365   0.000000
 
  0.2857143E+00 -0.6063640E-17  0.1428571E+00  0.3498542E-01
    1        1.319830   1.000000
    2        3.347205   1.000000
    3        3.782571   1.000000
    4        4.924846   1.000000
    5        5.404826   1.000000
    6        6.233478   1.000000
    7        6.517956   1.000000
    8        7.255530   1.019967
    9        7.606987   0.424679
   10        7.744129   0.016598
   11        8.467749  -0.000000
   12       12.458584  -0.000000
   13       17.520873   0.000000
   14       22.156254   0.000000
   15       27.018851   0.000000
   16       28.893733   0.000000
   17       30.328195   0.000000
   18       32.431736   0.000000
   19       34.883951   0.000000
   20       36.663407   0.000000
   21       37.269321   0.000000
   22       40.950023   0.000000
   23       41.286803   0.000000
   24       45.125540   0.000000
   25       49.836022   0.000000
   26       50.249043   0.000000
   27       51.622764   0.000000
   28       51.690127   0.000000
   29       55.976470   0.000000
   30       56.959918   0.000000
   31       57.520509   0.000000
   32       58.725082   0.000000
   33       59.377682   0.000000
   34       59.734544   0.000000
   35       62.262170   0.000000
   36       63.014650   0.000000
   37       65.063429   0.000000
   38       66.220093   0.000000
   39       66.740080   0.000000
   40       68.910001   0.000000
 
  0.4285714E+00 -0.5159619E-16  0.1428571E+00  0.3498542E-01
    1        2.430841   1.000000
    2        2.797170   1.000000
    3        3.473784   1.000000
    4        4.689873   1.000000
    5        6.077322   1.000000
    6        6.205489   1.000000
    7        6.698002   1.000000
    8        8.360632  -0.000000
    9        8.724980  -0.000000
   10        8.846056  -0.000000
   11        9.402581  -0.000000
   12       13.548667   0.000000
   13       17.602801   0.000000
   14       19.782625   0.000000
   15       22.837105   0.000000
   16       26.125147   0.000000
   17       26.463017   0.000000
   18       31.560912   0.000000
   19       34.020019   0.000000
   20       34.855632   0.000000
   21       38.700957   0.000000
   22       39.932349   0.000000
   23       41.656086   0.000000
   24       45.450240   0.000000
   25       48.387897   0.000000
   26       52.999385   0.000000
   27       54.622317   0.000000
   28       56.221853   0.000000
   29       57.366734   0.000000
   30       59.514017   0.000000
   31       60.557478   0.000000
   32       61.238971   0.000000
   33       61.623590   0.000000
   34       63.467018   0.000000
   35       64.091589   0.000000
   36       65.556052   0.000000
   37       66.277947   0.000000
   38       67.165801   0.000000
   39       68.541246   0.000000
   40       68.662423   0.000000
 
  0.1428571E+00  0.1428571E+00  0.1428571E+00  0.3498542E-01
    1        0.805692   1.000000
    2        3.667280   1.000000
    3        4.048882   1.000000
    4        4.618480   1.000000
    5        5.600681   1.000000
    6        5.724273   1.000000
    7        6.654734   1.000000
    8        6.733230   1.000000
    9        7.488222   0.872521
   10        7.653433   0.242794
   11        8.378803  -0.000000
   12       11.890685  -0.000000
   13       17.236211   0.000000
   14       25.130787   0.000000
   15       26.135170   0.000000
   16       29.686785   0.000000
   17       30.826327   0.000000
   18       33.817753   0.000000
   19       34.900487   0.000000
   20       35.987739   0.000000
   21       38.896522   0.000000
   22       42.574799   0.000000
   23       44.297003   0.000000
   24       44.530839   0.000000
   25       44.710380   0.000000
   26       48.322075   0.000000
   27       49.221441   0.000000
   28       52.922385   0.000000
   29       54.382055   0.000000
   30       56.889537   0.000000
   31       57.825667   0.000000
   32       58.231136   0.000000
   33       58.583617   0.000000
   34       60.658457   0.000000
   35       60.755816   0.000000
   36       62.606915   0.000000
   37       63.613630   0.000000
   38       65.600920   0.000000
   39       67.766772   0.000000
   40       67.957358   0.000000
 
  0.2857143E+00  0.1428571E+00  0.1428571E+00  0.6997085E-01
    1        2.648480   1.000000
    2        3.399645   1.000000
    3        3.633325   1.000000
    4        4.603615   1.000000
    5        5.542981   1.000000
    6        5.944484   1.000000
    7        6.268208   1.000000
    8        7.355619   1.034911
    9        8.131636  -0.000425
   10        8.570204  -0.000000
   11        9.581266  -0.000000
   12       14.204515   0.000000
   13       18.556391   0.000000
   14       20.155844   0.000000
   15       23.227267   0.000000
   16       24.961561   0.000000
   17       28.609842   0.000000
   18       29.505537   0.000000
   19       33.819480   0.000000
   20       36.490063   0.000000
   21       39.034384   0.000000
   22       42.059260   0.000000
   23       45.087246   0.000000
   24       46.908705   0.000000
   25       47.418636   0.000000
   26       48.964113   0.000000
   27       52.296119   0.000000
   28       53.787976   0.000000
   29       56.005314   0.000000
   30       57.946748   0.000000
   31       58.742958   0.000000
   32       61.136228   0.000000
   33       61.709929   0.000000
   34       62.778086   0.000000
   35       64.279209   0.000000
   36       65.335327   0.000000
   37       66.580489   0.000000
   38       66.837929   0.000000
   39       67.598460   0.000000
   40       69.277104   0.000000
 
  0.4285714E+00  0.1428571E+00  0.1428571E+00  0.3498542E-01
    1        2.839644   1.000000
    2        3.150727   1.000000
    3        3.773404   1.000000
    4        4.642948   1.000000
    5        5.588169   1.000000
    6        6.200996   1.000000
    7        6.425045   1.000000
    8        8.090748  -0.001116
    9        8.400350  -0.000000
   10        8.645565  -0.000000
   11       11.666717  -0.000000
   12       13.648538   0.000000
   13       18.905706   0.000000
   14       19.421347   0.000000
   15       22.105230   0.000000
   16       23.449088   0.000000
   17       25.592647   0.000000
   18       27.892022   0.000000
   19       33.091504   0.000000
   20       37.739194   0.000000
   21       39.461133   0.000000
   22       40.472810   0.000000
   23       45.278063   0.000000
   24       47.694477   0.000000
   25       48.140151   0.000000
   26       49.734030   0.000000
   27       54.560060   0.000000
   28       55.295992   0.000000
   29       57.921316   0.000000
   30       58.186070   0.000000
   31       59.663787   0.000000
   32       60.512093   0.000000
   33       61.974515   0.000000
   34       62.521832   0.000000
   35       64.730699   0.000000
   36       67.025784   0.000000
   37       67.121338   0.000000
   38       68.710411   0.000000
   39       69.109311   0.000000
   40       70.484704   0.000000
 
  0.2857143E+00  0.2857143E+00  0.1428571E+00  0.3498542E-01
    1        3.425692   1.000000
    2        3.909932   1.000000
    3        4.130785   1.000000
    4        4.286852   1.000000
    5        5.367944   1.000000
    6        5.448646   1.000000
    7        6.333113   1.000000
    8        7.723635   0.050045
    9        7.820370  -0.034667
   10        8.541787  -0.000000
   11       12.536932  -0.000000
   12       16.298769   0.000000
   13       17.160584   0.000000
   14       19.431938   0.000000
   15       21.716359   0.000000
   16       23.676415   0.000000
   17       24.421678   0.000000
   18       27.999434   0.000000
   19       28.784215   0.000000
   20       39.072296   0.000000
   21       42.614548   0.000000
   22       44.354260   0.000000
   23       45.653416   0.000000
   24       47.961788   0.000000
   25       49.347399   0.000000
   26       50.351363   0.000000
   27       52.173436   0.000000
   28       53.454776   0.000000
   29       53.929767   0.000000
   30       56.393224   0.000000
   31       58.829355   0.000000
   32       59.927766   0.000000
   33       60.953103   0.000000
   34       62.611403   0.000000
   35       66.516161   0.000000
   36       67.073937   0.000000
   37       67.602740   0.000000
   38       69.382024   0.000000
   39       69.402815   0.000000
   40       70.294401   0.000000
 
  0.0000000E+00  0.0000000E+00  0.2857143E+00  0.5830904E-02
    1       -0.875826   1.000000
    2        1.823714   1.000000
    3        5.013532   1.000000
    4        5.407342   1.000000
    5        5.814460   1.000000
    6        5.814536   1.000000
    7        6.042036   1.000000
    8        6.042126   1.000000
    9        7.570391   0.578815
   10        7.570421   0.578691
   11        8.275494  -0.000007
   12        8.275525  -0.000007
   13       18.493396   0.000000
   14       27.386295   0.000000
   15       31.808297   0.000000
   16       33.310984   0.000000
   17       37.656953   0.000000
   18       37.656965   0.000000
   19       38.074922   0.000000
   20       38.075046   0.000000
   21       40.278194   0.000000
   22       40.278359   0.000000
   23       42.020911   0.000000
   24       42.405702   0.000000
   25       42.405776   0.000000
   26       43.734293   0.000000
   27       47.612771   0.000000
   28       50.880432   0.000000
   29       50.880710   0.000000
   30       51.807052   0.000000
   31       53.415960   0.000000
   32       53.416071   0.000000
   33       57.084500   0.000000
   34       60.063716   0.000000
   35       60.064012   0.000000
   36       60.305932   0.000000
   37       61.090062   0.000000
   38       61.090677   0.000000
   39       64.460740   0.000000
   40       69.106452   0.000000
 
  0.1428571E+00 -0.5113488E-17  0.2857143E+00  0.3498542E-01
    1       -0.095408   1.000000
    2        2.481622   1.000000
    3        4.622248   1.000000
    4        5.107006   1.000000
    5        5.426546   1.000000
    6        5.918601   1.000000
    7        6.257141   1.000000
    8        6.482101   1.000000
    9        7.415626   1.005340
   10        7.434759   0.982461
   11        8.286782  -0.000005
   12        9.159917  -0.000000
   13       18.931831   0.000000
   14       28.008928   0.000000
   15       28.900859   0.000000
   16       31.142481   0.000000
   17       33.477062   0.000000
   18       33.887579   0.000000
   19       35.898620   0.000000
   20       37.290377   0.000000
   21       40.670434   0.000000
   22       42.740556   0.000000
   23       43.055258   0.000000
   24       44.551743   0.000000
   25       45.535688   0.000000
   26       46.945197   0.000000
   27       48.613207   0.000000
   28       49.971956   0.000000
   29       51.481082   0.000000
   30       52.609869   0.000000
   31       54.317532   0.000000
   32       56.168040   0.000000
   33       56.380603   0.000000
   34       58.040605   0.000000
   35       61.052007   0.000000
   36       61.810950   0.000000
   37       63.701486   0.000000
   38       63.870715   0.000000
   39       65.061010   0.000000
   40       66.354716   0.000000
 
  0.2857143E+00 -0.6063640E-17  0.2857143E+00  0.3498542E-01
    1        1.624307   1.000000
    2        3.100299   1.000000
    3        3.889835   1.000000
    4        4.759733   1.000000
    5        5.477916   1.000000
    6        6.249699   1.000000
    7        6.694903   1.000000
    8        7.499080   0.841495
    9        7.565733   0.598160
   10        7.781224  -0.020538
   11        8.317168  -0.000002
   12       10.690563  -0.000000
   13       20.187860   0.000000
   14       22.636263   0.000000
   15       25.698551   0.000000
   16       29.440207   0.000000
   17       29.704268   0.000000
   18       32.165020   0.000000
   19       33.802502   0.000000
   20       34.546737   0.000000
   21       37.988230   0.000000
   22       42.776159   0.000000
   23       43.528670   0.000000
   24       46.269731   0.000000
   25       48.412088   0.000000
   26       49.611281   0.000000
   27       50.569516   0.000000
   28       51.348804   0.000000
   29       56.088395   0.000000
   30       56.386014   0.000000
   31       57.057338   0.000000
   32       58.520526   0.000000
   33       60.867003   0.000000
   34       60.909105   0.000000
   35       61.430469   0.000000
   36       63.609486   0.000000
   37       64.161443   0.000000
   38       65.741467   0.000000
   39       65.982752   0.000000
   40       69.288613   0.000000
 
  0.4285714E+00 -0.5159619E-16  0.2857143E+00  0.3498542E-01
    1        2.276284   1.000000
    2        2.764366   1.000000
    3        3.801733   1.000000
    4        4.155418   1.000000
    5        6.382437   1.000000
    6        6.493446   1.000000
    7        7.875747  -0.030498
    8        7.961968  -0.012085
    9        8.751150  -0.000000
   10        8.845312  -0.000000
   11        8.853004  -0.000000
   12       12.059453  -0.000000
   13       17.878276   0.000000
   14       19.644702   0.000000
   15       23.918539   0.000000
   16       27.391060   0.000000
   17       27.524335   0.000000
   18       31.543706   0.000000
   19       32.666409   0.000000
   20       33.467815   0.000000
   21       36.550105   0.000000
   22       40.498451   0.000000
   23       42.486072   0.000000
   24       45.654074   0.000000
   25       50.534310   0.000000
   26       51.756940   0.000000
   27       52.905351   0.000000
   28       57.507603   0.000000
   29       57.646395   0.000000
   30       59.832279   0.000000
   31       59.958510   0.000000
   32       60.706557   0.000000
   33       63.459674   0.000000
   34       63.679369   0.000000
   35       64.832968   0.000000
   36       65.412701   0.000000
   37       66.524121   0.000000
   38       66.584565   0.000000
   39       69.820317   0.000000
   40       70.246002   0.000000
 
  0.1428571E+00  0.1428571E+00  0.2857143E+00  0.3498542E-01
    1        1.232835   1.000000
    2        3.313221   1.000000
    3        4.087685   1.000000
    4        4.761766   1.000000
    5        5.295274   1.000000
    6        5.549567   1.000000
    7        6.681019   1.000000
    8        7.108776   1.001777
    9        7.579920   0.538833
   10        7.721501   0.054112
   11        8.297129  -0.000003
   12       10.343998  -0.000000
   13       19.877114   0.000000
   14       25.564731   0.000000
   15       26.639831   0.000000
   16       28.585850   0.000000
   17       28.840936   0.000000
   18       31.091751   0.000000
   19       36.663907   0.000000
   20       37.496813   0.000000
   21       39.361111   0.000000
   22       41.606840   0.000000
   23       44.100749   0.000000
   24       44.410609   0.000000
   25       47.664426   0.000000
   26       49.076242   0.000000
   27       49.956646   0.000000
   28       51.848493   0.000000
   29       51.919528   0.000000
   30       56.683519   0.000000
   31       56.846418   0.000000
   32       58.033309   0.000000
   33       59.222322   0.000000
   34       60.826103   0.000000
   35       61.280447   0.000000
   36       61.841919   0.000000
   37       64.328112   0.000000
   38       64.474982   0.000000
   39       67.404562   0.000000
   40       68.032819   0.000000
 
  0.2857143E+00  0.1428571E+00  0.2857143E+00  0.6997085E-01
    1        2.632781   1.000000
    2        3.253174   1.000000
    3        3.873968   1.000000
    4        4.606328   1.000000
    5        5.488973   1.000000
    6        6.034134   1.000000
    7        6.518571   1.000000
    8        7.527094   0.748939
    9        7.817003  -0.034203
   10        8.713899  -0.000000
   11        9.644090  -0.000000
   12       12.278561  -0.000000
   13       19.865019   0.000000
   14       21.579713   0.000000
   15       23.358669   0.000000
   16       24.568426   0.000000
   17       27.332810   0.000000
   18       30.413324   0.000000
   19       33.839685   0.000000
   20       36.135431   0.000000
   21       38.991184   0.000000