Automatically generated mesh
      32
Reciprocal lattice
    0.00000000000000    0.00000000000000    0.00000000000000             1
    0.14285714285715   -0.00000000000000    0.00000000000000             6
    0.28571428571428   -0.00000000000000    0.00000000000000             6
    0.42857142857143   -0.00000000000000    0.00000000000000             6
    0.14285714285715    0.14285714285715    0.00000000000000             6
    0.28571428571428    0.14285714285715    0.00000000000000            12
    0.42857142857143    0.14285714285715    0.00000000000000             6
    0.28571428571428    0.28571428571428    0.00000000000000             6
    0.00000000000000    0.00000000000000    0.14285714285715             2
    0.14285714285715   -0.00000000000000    0.14285714285715            12
    0.28571428571428   -0.00000000000000    0.14285714285715            12
    0.42857142857143   -0.00000000000000    0.14285714285715            12
    0.14285714285715    0.14285714285715    0.14285714285715            12
    0.28571428571428    0.14285714285715    0.14285714285715            24
    0.42857142857143    0.14285714285715    0.14285714285715            12
    0.28571428571428    0.28571428571428    0.14285714285715            12
    0.00000000000000    0.00000000000000    0.28571428571428             2
    0.14285714285715   -0.00000000000000    0.28571428571428            12
    0.28571428571428   -0.00000000000000    0.28571428571428            12
    0.42857142857143   -0.00000000000000    0.28571428571428            12
    0.14285714285715    0.14285714285715    0.28571428571428            12
    0.28571428571428    0.14285714285715    0.28571428571428            24
    0.42857142857143    0.14285714285715    0.28571428571428            12
    0.28571428571428    0.28571428571428    0.28571428571428            12
    0.00000000000000    0.00000000000000    0.42857142857143             2
    0.14285714285715   -0.00000000000000    0.42857142857143            12
    0.28571428571428   -0.00000000000000    0.42857142857143            12
    0.42857142857143   -0.00000000000000    0.42857142857143            12
    0.14285714285715    0.14285714285715    0.42857142857143            12
    0.28571428571428    0.14285714285715    0.42857142857143            24
    0.42857142857143    0.14285714285715    0.42857142857143            12
    0.28571428571428    0.28571428571428    0.42857142857143            12
