<?xml version="1.0" encoding="ISO-8859-1"?>
<modeling>
 <generator>
  <i name="program" type="string">vasp </i>
  <i name="version" type="string">6.2.0  </i>
  <i name="subversion" type="string">18Jan21 (build Mar 17 2021 09:06:54) complex                          serial </i>
  <i name="platform" type="string">LinuxIFC </i>
  <i name="date" type="string">2021 09 09 </i>
  <i name="time" type="string">13:51:21 </i>
 </generator>
 <incar>
  <i type="string" name="PREC">normal</i>
  <i type="int" name="ICHARG">     1</i>
  <i type="int" name="IBRION">    -1</i>
  <i name="EDIFF">      0.00000100</i>
  <i type="int" name="NSW">     0</i>
  <i name="ENCUT">    280.00000000</i>
  <i type="int" name="NBANDS">    40</i>
  <i type="int" name="ISMEAR">     1</i>
  <i name="SIGMA">      0.20000000</i>
  <i type="logical" name="LCHARG"> T  </i>
  <i type="int" name="KPAR">     1</i>
  <i type="int" name="NCORE">     1</i>
  <i type="string" name="GGA">PE</i>
 </incar>
 <primitive_cell>
  <structure name="primitive_cell" >
   <crystal>
    <varray name="basis" >
     <v>       2.33000000       0.00000000       0.00000000 </v>
     <v>      -1.16500000       2.01783919       0.00000000 </v>
     <v>       0.00000000       0.00000000       4.10000000 </v>
    </varray>
    <i name="volume">     19.27641779 </i>
    <varray name="rec_basis" >
     <v>       0.42918455       0.24778982       0.00000000 </v>
     <v>       0.00000000       0.49557963       0.00000000 </v>
     <v>       0.00000000       0.00000000       0.24390244 </v>
    </varray>
   </crystal>
   <varray name="positions" >
    <v>       0.00000000       0.00000000       0.00000000 </v>
    <v>       0.33333333       0.66666667       0.50000000 </v>
   </varray>
  </structure>
  <varray name="primitive_index" >
   <v type="int" >        1 </v>
   <v type="int" >        2 </v>
  </varray>
 </primitive_cell>
 <kpoints>
  <generation param="Monkhorst-Pack">
   <v type="int" name="divisions">       7        7        7 </v>
   <v name="usershift">      0.00000000       0.00000000       0.00000000 </v>
   <v name="genvec1">      0.14285714       0.00000000       0.00000000 </v>
   <v name="genvec2">      0.00000000       0.14285714       0.00000000 </v>
   <v name="genvec3">      0.00000000       0.00000000       0.14285714 </v>
   <v name="shift">      0.00000000       0.00000000       0.00000000 </v>
  </generation>
  <varray name="kpointlist" >
   <v>       0.00000000       0.00000000       0.00000000 </v>
   <v>       0.14285714      -0.00000000       0.00000000 </v>
   <v>       0.28571429      -0.00000000       0.00000000 </v>
   <v>       0.42857143      -0.00000000       0.00000000 </v>
   <v>       0.14285714       0.14285714       0.00000000 </v>
   <v>       0.28571429       0.14285714       0.00000000 </v>
   <v>       0.42857143       0.14285714       0.00000000 </v>
   <v>       0.28571429       0.28571429       0.00000000 </v>
   <v>       0.00000000       0.00000000       0.14285714 </v>
   <v>       0.14285714      -0.00000000       0.14285714 </v>
   <v>       0.28571429      -0.00000000       0.14285714 </v>
   <v>       0.42857143      -0.00000000       0.14285714 </v>
   <v>       0.14285714       0.14285714       0.14285714 </v>
   <v>       0.28571429       0.14285714       0.14285714 </v>
   <v>       0.42857143       0.14285714       0.14285714 </v>
   <v>       0.28571429       0.28571429       0.14285714 </v>
   <v>       0.00000000       0.00000000       0.28571429 </v>
   <v>       0.14285714      -0.00000000       0.28571429 </v>
   <v>       0.28571429      -0.00000000       0.28571429 </v>
   <v>       0.42857143      -0.00000000       0.28571429 </v>
   <v>       0.14285714       0.14285714       0.28571429 </v>
   <v>       0.28571429       0.14285714       0.28571429 </v>
   <v>       0.42857143       0.14285714       0.28571429 </v>
   <v>       0.28571429       0.28571429       0.28571429 </v>
   <v>       0.00000000       0.00000000       0.42857143 </v>
   <v>       0.14285714      -0.00000000       0.42857143 </v>
   <v>       0.28571429      -0.00000000       0.42857143 </v>
   <v>       0.42857143      -0.00000000       0.42857143 </v>
   <v>       0.14285714       0.14285714       0.42857143 </v>
   <v>       0.28571429       0.14285714       0.42857143 </v>
   <v>       0.42857143       0.14285714       0.42857143 </v>
   <v>       0.28571429       0.28571429       0.42857143 </v>
  </varray>
  <varray name="weights" >
   <v>       0.00291545 </v>
   <v>       0.01749271 </v>
   <v>       0.01749271 </v>
   <v>       0.01749271 </v>
   <v>       0.01749271 </v>
   <v>       0.03498542 </v>
   <v>       0.01749271 </v>
   <v>       0.01749271 </v>
   <v>       0.00583090 </v>
   <v>       0.03498542 </v>
   <v>       0.03498542 </v>
   <v>       0.03498542 </v>
   <v>       0.03498542 </v>
   <v>       0.06997085 </v>
   <v>       0.03498542 </v>
   <v>       0.03498542 </v>
   <v>       0.00583090 </v>
   <v>       0.03498542 </v>
   <v>       0.03498542 </v>
   <v>       0.03498542 </v>
   <v>       0.03498542 </v>
   <v>       0.06997085 </v>
   <v>       0.03498542 </v>
   <v>       0.03498542 </v>
   <v>       0.00583090 </v>
   <v>       0.03498542 </v>
   <v>       0.03498542 </v>
   <v>       0.03498542 </v>
   <v>       0.03498542 </v>
   <v>       0.06997085 </v>
   <v>       0.03498542 </v>
   <v>       0.03498542 </v>
  </varray>
 </kpoints>
 <parameters>
  <separator name="general" >
   <i type="string" name="SYSTEM">unknown system</i>
   <i type="logical" name="LCOMPAT"> F  </i>
  </separator>
  <separator name="electronic" >
   <i type="string" name="PREC">normal</i>
   <i name="ENMAX">    280.00000000</i>
   <i name="ENAUG">    511.36800000</i>
   <i name="EDIFF">      0.00000100</i>
   <i type="int" name="IALGO">    38</i>
   <i type="int" name="IWAVPR">     0</i>
   <i type="int" name="NBANDS">    40</i>
   <i type="int" name="NBANDSLOW">    -1</i>
   <i type="int" name="NBANDSHIGH">    -1</i>
   <i name="NELECT">     16.00000000</i>
   <i type="int" name="TURBO">     0</i>
   <i type="int" name="IRESTART">     0</i>
   <i type="int" name="NREBOOT">     0</i>
   <i type="int" name="NMIN">     0</i>
   <i name="EREF">      0.00000000</i>
   <separator name="electronic smearing" >
    <i type="int" name="ISMEAR">     1</i>
    <i name="SIGMA">      0.20000000</i>
    <i name="KSPACING">      0.50000000</i>
    <i type="logical" name="KGAMMA"> T  </i>
    <i type="logical" name="KBLOWUP"> T  </i>
   </separator>
   <separator name="electronic projectors" >
    <i type="logical" name="LREAL"> F  </i>
    <v name="ROPT">      0.00000000</v>
    <i type="int" name="LMAXPAW">  -100</i>
    <i type="int" name="LMAXMIX">     2</i>
    <i type="logical" name="NLSPLINE"> F  </i>
   </separator>
   <separator name="electronic startup" >
    <i type="int" name="ISTART">     1</i>
    <i type="int" name="ICHARG">     1</i>
    <i type="int" name="INIWAV">     1</i>
   </separator>
   <separator name="electronic spin" >
    <i type="int" name="ISPIN">     1</i>
    <i type="logical" name="LNONCOLLINEAR"> F  </i>
    <v name="MAGMOM">      1.00000000      1.00000000</v>
    <i name="NUPDOWN">     -1.00000000</i>
    <i type="logical" name="LSORBIT"> F  </i>
    <v name="SAXIS">      0.00000000      0.00000000      1.00000000</v>
    <i type="logical" name="LSPIRAL"> F  </i>
    <v name="QSPIRAL">      0.00000000      0.00000000      0.00000000</v>
    <i type="logical" name="LZEROZ"> F  </i>
   </separator>
   <separator name="electronic exchange-correlation" >
    <i type="logical" name="LASPH"> F  </i>
    <i type="logical" name="LMETAGGA"> F  </i>
   </separator>
   <separator name="electronic convergence" >
    <i type="int" name="NELM">    60</i>
    <i type="int" name="NELMDL">     0</i>
    <i type="int" name="NELMIN">     2</i>
    <i name="ENINI">    280.00000000</i>
    <separator name="electronic convergence detail" >
     <i type="logical" name="LDIAG"> T  </i>
     <i type="logical" name="LSUBROT"> F  </i>
     <i name="WEIMIN">      0.00000000</i>
     <i name="EBREAK">      0.00000001</i>
     <i name="DEPER">      0.30000000</i>
     <i type="int" name="NRMM">     4</i>
     <i name="TIME">      0.40000000</i>
    </separator>
   </separator>
   <separator name="electronic mixer" >
    <i name="AMIX">      0.40000000</i>
    <i name="BMIX">      1.00000000</i>
    <i name="AMIN">      0.10000000</i>
    <i name="AMIX_MAG">      1.60000000</i>
    <i name="BMIX_MAG">      1.00000000</i>
    <separator name="electronic mixer details" >
     <i type="int" name="IMIX">     4</i>
     <i type="logical" name="MIXFIRST"> F  </i>
     <i type="int" name="MAXMIX">   -45</i>
     <i name="WC">    100.00000000</i>
     <i type="int" name="INIMIX">     1</i>
     <i type="int" name="MIXPRE">     1</i>
     <i type="int" name="MREMOVE">     5</i>
    </separator>
   </separator>
   <separator name="electronic dipolcorrection" >
    <i type="logical" name="LDIPOL"> F  </i>
    <i type="logical" name="LMONO"> F  </i>
    <i type="int" name="IDIPOL">     0</i>
    <i name="EPSILON">      1.00000000</i>
    <v name="DIPOL">   -100.00000000   -100.00000000   -100.00000000</v>
    <i name="EFIELD">      0.00000000</i>
   </separator>
  </separator>
  <separator name="grids" >
   <i type="int" name="NGX">    10</i>
   <i type="int" name="NGY">    10</i>
   <i type="int" name="NGZ">    18</i>
   <i type="int" name="NGXF">    20</i>
   <i type="int" name="NGYF">    20</i>
   <i type="int" name="NGZF">    36</i>
   <i type="logical" name="ADDGRID"> F  </i>
  </separator>
  <separator name="ionic" >
   <i type="int" name="NSW">     0</i>
   <i type="int" name="IBRION">    -1</i>
   <i type="int" name="MDALGO">     0</i>
   <i type="int" name="ISIF">     2</i>
   <i name="PSTRESS">      0.00000000</i>
   <i name="EDIFFG">      0.00001000</i>
   <i type="int" name="NFREE">     0</i>
   <i name="POTIM">      0.50000000</i>
   <i name="SMASS">     -3.00000000</i>
   <i name="SCALEE">      1.00000000</i>
  </separator>
  <separator name="ionic md" >
   <i name="TEBEG">      0.00010000</i>
   <i name="TEEND">      0.00010000</i>
   <i type="int" name="NBLOCK">     1</i>
   <i type="int" name="KBLOCK">     1</i>
   <i type="int" name="NPACO">   256</i>
   <i name="APACO">     16.00000000</i>
  </separator>
  <separator name="symmetry" >
   <i type="int" name="ISYM">     2</i>
   <i name="SYMPREC">      0.00001000</i>
  </separator>
  <separator name="dos" >
   <i type="int" name="LORBIT">     0</i>
   <v name="RWIGS">     -1.00000000</v>
   <i type="int" name="NEDOS">   301</i>
   <i name="EMIN">     10.00000000</i>
   <i name="EMAX">    -10.00000000</i>
   <i name="EFERMI">      0.00000000</i>
  </separator>
  <separator name="writing" >
   <i type="int" name="NWRITE">     2</i>
   <i type="logical" name="LWAVE"> T  </i>
   <i type="logical" name="LDOWNSAMPLE"> F  </i>
   <i type="logical" name="LCHARG"> T  </i>
   <i type="logical" name="LPARD"> F  </i>
   <i type="logical" name="LVTOT"> F  </i>
   <i type="logical" name="LVHAR"> F  </i>
   <i type="logical" name="LELF"> F  </i>
   <i type="logical" name="LOPTICS"> F  </i>
   <v name="STM">      0.00000000      0.00000000      0.00000000      0.00000000      0.00000000      0.00000000      0.00000000</v>
  </separator>
  <separator name="performance" >
   <i type="int" name="NPAR">     1</i>
   <i type="int" name="NSIM">     4</i>
   <i type="int" name="NBLK">    -1</i>
   <i type="logical" name="LPLANE"> T  </i>
   <i type="logical" name="LSCALAPACK"> F  </i>
   <i type="logical" name="LSCAAWARE"> F  </i>
   <i type="logical" name="LSCALU"> F  </i>
   <i type="logical" name="LASYNC"> F  </i>
   <i type="logical" name="LORBITALREAL"> F  </i>
  </separator>
  <separator name="miscellaneous" >
   <i type="int" name="IDIOT">     3</i>
   <i type="int" name="PHON_NSTRUCT">    -1</i>
   <i type="logical" name="LMUSIC"> F  </i>
   <v name="POMASS">     55.84700000</v>
   <v name="DARWINR">      0.00000000</v>
   <v name="DARWINV">      1.00000000</v>
   <i type="logical" name="LCORR"> T  </i>
  </separator>
  <i type="logical" name="GGA_COMPAT"> T  </i>
  <i type="logical" name="LBERRY"> F  </i>
  <i type="int" name="ICORELEVEL">     0</i>
  <i type="logical" name="LDAU"> F  </i>
  <i type="int" name="I_CONSTRAINED_M">     0</i>
  <separator name="electronic exchange-correlation" >
   <i type="string" name="GGA">PE</i>
   <i type="int" name="VOSKOWN">     0</i>
   <i type="logical" name="LHFCALC"> F  </i>
   <i type="string" name="PRECFOCK"></i>
   <i type="logical" name="LSYMGRAD"> F  </i>
   <i type="logical" name="LHFONE"> F  </i>
   <i type="logical" name="LRHFCALC"> F  </i>
   <i type="logical" name="LTHOMAS"> F  </i>
   <i type="logical" name="LMODELHF"> F  </i>
   <i type="logical" name="LFOCKACE"> F  </i>
   <i name="ENCUT4O">     -1.00000000</i>
   <i type="int" name="EXXOEP">     0</i>
   <i type="int" name="FOURORBIT">     0</i>
   <i name="AEXX">      0.00000000</i>
   <i name="HFALPHA">      0.00000000</i>
   <i name="MCALPHA">      0.00000000</i>
   <i name="ALDAX">      1.00000000</i>
   <i name="AGGAX">      1.00000000</i>
   <i name="ALDAC">      1.00000000</i>
   <i name="AGGAC">      1.00000000</i>
   <i type="int" name="NKREDX">     1</i>
   <i type="int" name="NKREDY">     1</i>
   <i type="int" name="NKREDZ">     1</i>
   <i type="logical" name="SHIFTRED"> F  </i>
   <i type="logical" name="ODDONLY"> F  </i>
   <i type="logical" name="EVENONLY"> F  </i>
   <i type="int" name="LMAXFOCK">     0</i>
   <i type="int" name="NMAXFOCKAE">     0</i>
   <i type="logical" name="LFOCKAEDFT"> F  </i>
   <i name="HFSCREEN">      0.00000000</i>
   <i name="HFSCREENC">      0.00000000</i>
   <i type="int" name="NBANDSGWLOW">     0</i>
  </separator>
  <separator name="vdW DFT" >
   <i type="logical" name="LUSE_VDW"> F  </i>
   <i name="Zab_VDW">     -0.84910000</i>
   <i name="PARAM1">      0.12340000</i>
   <i name="PARAM2">      1.00000000</i>
   <i name="PARAM3">      0.00000000</i>
  </separator>
  <separator name="model GW" >
   <i type="int" name="MODEL_GW">     0</i>
   <i name="MODEL_EPS0">      5.78292534</i>
   <i name="MODEL_ALPHA">      1.00000000</i>
  </separator>
  <separator name="linear response parameters" >
   <i type="logical" name="LEPSILON"> F  </i>
   <i type="logical" name="LRPA"> F  </i>
   <i type="logical" name="LNABLA"> F  </i>
   <i type="logical" name="LVEL"> F  </i>
   <i type="int" name="KINTER">     0</i>
   <i name="CSHIFT">      0.10000000</i>
   <i name="OMEGAMAX">     -1.00000000</i>
   <i name="DEG_THRESHOLD">      0.00200000</i>
   <i name="RTIME">     -0.10000000</i>
   <i name="WPLASMAI">      0.00000000</i>
   <v name="DFIELD">      0.00000000      0.00000000      0.00000000</v>
   <v name="WPLASMA">      0.00000000      0.00000000      0.00000000      0.00000000      0.00000000      0.00000000      0.00000000      0.00000000      0.00000000</v>
  </separator>
  <separator name="orbital magnetization" >
   <i type="logical" name="NUCIND"> F  </i>
   <v name="MAGPOS">      0.00000000      0.00000000      0.00000000</v>
   <i type="logical" name="LNICSALL"> T  </i>
   <i type="logical" name="ORBITALMAG"> F  </i>
   <i type="logical" name="LMAGBLOCH"> F  </i>
   <i type="logical" name="LCHIMAG"> F  </i>
   <i type="logical" name="LGAUGE"> T  </i>
   <i type="int" name="MAGATOM">     0</i>
   <v name="MAGDIPOL">      0.00000000      0.00000000      0.00000000</v>
   <v name="AVECCONST">      0.00000000      0.00000000      0.00000000</v>
  </separator>
  <separator name="response functions" >
   <i type="logical" name="LFINITE_TEMPERATURE"> F  </i>
   <i type="logical" name="LADDER"> F  </i>
   <i type="logical" name="LRPAFORCE"> F  </i>
   <i type="logical" name="LFXC"> F  </i>
   <i type="logical" name="LHARTREE"> T  </i>
   <i type="int" name="IBSE">     0</i>
   <v type="int" name="KPOINT">    -1     0     0     0</v>
   <i type="logical" name="LTCTC"> F  </i>
   <i type="logical" name="LTCTE"> F  </i>
   <i type="logical" name="LTETE"> F  </i>
   <i type="logical" name="LTRIPLET"> F  </i>
   <i type="logical" name="LFXCEPS"> F  </i>
   <i type="logical" name="LFXHEG"> F  </i>
   <i type="int" name="NATURALO">     2</i>
   <i type="logical" name="LHOLEGF"> F  </i>
   <i type="logical" name="L2ORDER"> F  </i>
   <i type="logical" name="LDMP1"> F  </i>
   <i type="logical" name="LMP2LT"> F  </i>
   <i type="logical" name="LSMP2LT"> F  </i>
   <i type="logical" name="LGWLF"> F  </i>
   <i name="ENCUTGW">     -2.00000000</i>
   <i name="ENCUTGWSOFT">     -2.00000000</i>
   <i name="ENCUTLF">     -1.00000000</i>
   <i type="logical" name="LESF_SPLINES"> F  </i>
   <i type="int" name="LMAXMP2">    -1</i>
   <i name="SCISSOR">      0.00000000</i>
   <i type="int" name="NOMEGA">     0</i>
   <i type="int" name="NOMEGAR">     0</i>
   <i type="int" name="NBANDSGW">    -1</i>
   <i type="int" name="NBANDSO">    -1</i>
   <i type="int" name="NBANDSV">    -1</i>
   <i type="int" name="NELM">     1</i>
   <i type="int" name="NELMHF">     1</i>
   <i type="int" name="DIM">     3</i>
   <i type="int" name="IESPILON">     4</i>
   <i type="int" name="ANTIRES">     0</i>
   <i name="OMEGAMAX">    -30.00000000</i>
   <i name="OMEGAMIN">    -30.00000000</i>
   <i name="OMEGATL">   -200.00000000</i>
   <i type="int" name="OMEGAGRID">     0</i>
   <i name="CSHIFT">     -0.10000000</i>
   <i type="logical" name="LSELFENERGY"> F  </i>
   <i type="logical" name="LSPECTRAL"> F  </i>
   <i type="logical" name="LSPECTRALGW"> F  </i>
   <i type="logical" name="LSINGLES"> F  </i>
   <i type="logical" name="LFERMIGW"> F  </i>
   <i type="logical" name="ODDONLYGW"> F  </i>
   <i type="logical" name="EVENONLYGW"> F  </i>
   <i type="int" name="NKREDLFX">     1</i>
   <i type="int" name="NKREDLFY">     1</i>
   <i type="int" name="NKREDLFZ">     1</i>
   <i type="int" name="MAXMEM">  2800</i>
   <i type="int" name="TELESCOPE">     0</i>
   <i type="int" name="NTAUPAR">    -1</i>
   <i type="int" name="NOMEGAPAR">    -1</i>
   <i name="DAMP_NEWTON">      0.80000001</i>
   <i name="LAMBDA">      1.00000000</i>
  </separator>
  <separator name="External order field" >
   <i name="OFIELD_KAPPA">      0.00000000</i>
   <v name="OFIELD_K">      0.00000000      0.00000000      0.00000000</v>
   <i name="OFIELD_Q6_NEAR">      0.00000000</i>
   <i name="OFIELD_Q6_FAR">      0.00000000</i>
   <i name="OFIELD_A">      0.00000000</i>
  </separator>
 </parameters>
 <atominfo>
  <atoms>       2 </atoms>
  <types>       1 </types>
  <array name="atoms" >
   <dimension dim="1">ion</dimension>
   <field type="string">element</field>
   <field type="int">atomtype</field>
   <set>
    <rc><c>Fe</c><c>   1</c></rc>
    <rc><c>Fe</c><c>   1</c></rc>
   </set>
  </array>
  <array name="atomtypes" >
   <dimension dim="1">type</dimension>
   <field type="int">atomspertype</field>
   <field type="string">element</field>
   <field>mass</field>
   <field>valence</field>
   <field type="string">pseudopotential</field>
   <set>
    <rc><c>   2</c><c>Fe</c><c>     55.84700000</c><c>      8.00000000</c><c>  PAW_PBE Fe 06Sep2000                  </c></rc>
   </set>
  </array>
 </atominfo>
 <structure name="initialpos" >
  <crystal>
   <varray name="basis" >
    <v>       2.33000000       0.00000000       0.00000000 </v>
    <v>      -1.16500000       2.01783919       0.00000000 </v>
    <v>       0.00000000       0.00000000       4.10000000 </v>
   </varray>
   <i name="volume">     19.27641779 </i>
   <varray name="rec_basis" >
    <v>       0.42918455       0.24778982       0.00000000 </v>
    <v>       0.00000000       0.49557963       0.00000000 </v>
    <v>       0.00000000       0.00000000       0.24390244 </v>
   </varray>
  </crystal>
  <varray name="positions" >
   <v>       0.00000000       0.00000000       0.00000000 </v>
   <v>       0.33333333       0.66666667       0.50000000 </v>
  </varray>
 </structure>
 <calculation>
  <scstep>
   <time name="dav">    0.22    0.23</time>
   <time name="total">    0.24    0.24</time>
   <energy>
    <i name="alphaZ">    143.41622339 </i>
    <i name="ewald">  -1249.69361233 </i>
    <i name="hartreedc">   -165.82814799 </i>
    <i name="XCdc">      7.28627232 </i>
    <i name="pawpsdc">   1546.99365063 </i>
    <i name="pawaedc">  -1565.01498565 </i>
    <i name="eentropy">     -0.00138104 </i>
    <i name="bandstr">     78.28285918 </i>
    <i name="atom">   1188.57490811 </i>
    <i name="e_fr_energy">    -15.98421336 </i>
    <i name="e_wo_entrp">    -15.98283232 </i>
    <i name="e_0_energy">    -15.98375302 </i>
   </energy>
  </scstep>
  <scstep>
   <time name="dav">    0.18    0.18</time>
   <time name="total">    0.20    0.20</time>
   <energy>
    <i name="e_fr_energy">    -15.98415226 </i>
    <i name="e_wo_entrp">    -15.98286860 </i>
    <i name="e_0_energy">    -15.98372437 </i>
   </energy>
  </scstep>
  <scstep>
   <time name="dav">    0.15    0.15</time>
   <time name="total">    0.16    0.16</time>
   <energy>
    <i name="alphaZ">    143.41622339 </i>
    <i name="ewald">  -1249.69361233 </i>
    <i name="hartreedc">   -165.82824889 </i>
    <i name="XCdc">      7.28627891 </i>
    <i name="pawpsdc">   1546.99464424 </i>
    <i name="pawaedc">  -1565.01601169 </i>
    <i name="eentropy">     -0.00129413 </i>
    <i name="bandstr">     78.28295979 </i>
    <i name="atom">   1188.57490811 </i>
    <i name="e_fr_energy">    -15.98415259 </i>
    <i name="e_wo_entrp">    -15.98285846 </i>
    <i name="e_0_energy">    -15.98372121 </i>
   </energy>
  </scstep>
  <structure>
   <crystal>
    <varray name="basis" >
     <v>       2.33000000       0.00000000       0.00000000 </v>
     <v>      -1.16500000       2.01783919       0.00000000 </v>
     <v>       0.00000000       0.00000000       4.10000000 </v>
    </varray>
    <i name="volume">     19.27641779 </i>
    <varray name="rec_basis" >
     <v>       0.42918455       0.24778982       0.00000000 </v>
     <v>       0.00000000       0.49557963       0.00000000 </v>
     <v>       0.00000000       0.00000000       0.24390244 </v>
    </varray>
   </crystal>
   <varray name="positions" >
    <v>       0.00000000       0.00000000       0.00000000 </v>
    <v>       0.33333333       0.66666667       0.50000000 </v>
   </varray>
  </structure>
  <varray name="forces" >
   <v>       0.00000000      -0.00000000       0.00000000 </v>
   <v>      -0.00000000       0.00000000      -0.00000000 </v>
  </varray>
  <varray name="stress" >
   <v>     374.13717382       0.00000000       0.00000000 </v>
   <v>       0.00000000     374.13717382       0.00000000 </v>
   <v>      -0.00000000      -0.00000000    -172.21013548 </v>
  </varray>
  <energy>
   <i name="e_fr_energy">    -15.98415259 </i>
   <i name="e_wo_entrp">    -15.98285846 </i>
   <i name="e_0_energy">    -15.98372121 </i>
  </energy>
  <time name="totalsc">    0.71    0.71</time>
  <eigenvalues>
   <array>
    <dimension dim="1">band</dimension>
    <dimension dim="2">kpoint</dimension>
    <dimension dim="3">spin</dimension>
    <field>eigene</field>
    <field>occ</field>
    <set>
     <set comment="spin 1">
      <set comment="kpoint 1">
       <r>   -1.6737    1.0000 </r>
       <r>    2.2490    1.0000 </r>
       <r>    5.2112    1.0000 </r>
       <r>    5.8587    1.0000 </r>
       <r>    5.8588    1.0000 </r>
       <r>    6.1950    1.0000 </r>
       <r>    6.1951    1.0000 </r>
       <r>    6.8073    1.0000 </r>
       <r>    7.2345    1.0155 </r>
       <r>    7.2346    1.0155 </r>
       <r>    8.3928   -0.0000 </r>
       <r>    8.3928   -0.0000 </r>
       <r>   15.3981    0.0000 </r>
       <r>   31.4326    0.0000 </r>
       <r>   31.6464    0.0000 </r>
       <r>   34.5605    0.0000 </r>
       <r>   37.2439    0.0000 </r>
       <r>   37.2439    0.0000 </r>
       <r>   38.0170    0.0000 </r>
       <r>   38.0171    0.0000 </r>
       <r>   38.8414    0.0000 </r>
       <r>   40.6963    0.0000 </r>
       <r>   40.6963    0.0000 </r>
       <r>   41.7428    0.0000 </r>
       <r>   44.5746    0.0000 </r>
       <r>   44.5747    0.0000 </r>
       <r>   45.5165    0.0000 </r>
       <r>   48.6462    0.0000 </r>
       <r>   48.6466    0.0000 </r>
       <r>   50.5805    0.0000 </r>
       <r>   50.5806    0.0000 </r>
       <r>   53.1962    0.0000 </r>
       <r>   60.9713    0.0000 </r>
       <r>   62.9852    0.0000 </r>
       <r>   62.9861    0.0000 </r>
       <r>   63.0629    0.0000 </r>
       <r>   64.1742    0.0000 </r>
       <r>   65.6082    0.0000 </r>
       <r>   65.6093    0.0000 </r>
       <r>   67.1834    0.0000 </r>
      </set>
      <set comment="kpoint 2">
       <r>   -0.8399    1.0000 </r>
       <r>    2.8426    1.0000 </r>
       <r>    5.1163    1.0000 </r>
       <r>    5.2496    1.0000 </r>
       <r>    5.7391    1.0000 </r>
       <r>    6.0545    1.0000 </r>
       <r>    6.3579    1.0000 </r>
       <r>    6.6584    1.0000 </r>
       <r>    6.8728    1.0000 </r>
       <r>    6.9609    1.0000 </r>
       <r>    8.4644   -0.0000 </r>
       <r>   10.6020   -0.0000 </r>
       <r>   15.4585    0.0000 </r>
       <r>   28.3115    0.0000 </r>
       <r>   32.1722    0.0000 </r>
       <r>   32.4008    0.0000 </r>
       <r>   32.6501    0.0000 </r>
       <r>   34.1136    0.0000 </r>
       <r>   37.1822    0.0000 </r>
       <r>   38.3460    0.0000 </r>
       <r>   39.6285    0.0000 </r>
       <r>   39.6377    0.0000 </r>
       <r>   42.4502    0.0000 </r>
       <r>   43.3346    0.0000 </r>
       <r>   45.2718    0.0000 </r>
       <r>   45.4199    0.0000 </r>
       <r>   47.1549    0.0000 </r>
       <r>   48.7413    0.0000 </r>
       <r>   52.5316    0.0000 </r>
       <r>   52.9420    0.0000 </r>
       <r>   54.6747    0.0000 </r>
       <r>   57.0004    0.0000 </r>
       <r>   58.9742    0.0000 </r>
       <r>   60.4133    0.0000 </r>
       <r>   60.9294    0.0000 </r>
       <r>   62.1450    0.0000 </r>
       <r>   63.1814    0.0000 </r>
       <r>   66.9966    0.0000 </r>
       <r>   67.0738    0.0000 </r>
       <r>   68.2207    0.0000 </r>
      </set>
      <set comment="kpoint 3">
       <r>    1.2133    1.0000 </r>
       <r>    3.3664    1.0000 </r>
       <r>    3.8022    1.0000 </r>
       <r>    4.9642    1.0000 </r>
       <r>    5.4652    1.0000 </r>
       <r>    6.1392    1.0000 </r>
       <r>    6.4548    1.0000 </r>
       <r>    7.1893    1.0080 </r>
       <r>    7.5926    0.4852 </r>
       <r>    7.7835   -0.0220 </r>
       <r>    8.5237   -0.0000 </r>
       <r>   13.9220    0.0000 </r>
       <r>   15.7503    0.0000 </r>
       <r>   21.9944    0.0000 </r>
       <r>   27.8777    0.0000 </r>
       <r>   28.6163    0.0000 </r>
       <r>   29.7696    0.0000 </r>
       <r>   32.8409    0.0000 </r>
       <r>   35.2389    0.0000 </r>
       <r>   38.5331    0.0000 </r>
       <r>   38.7709    0.0000 </r>
       <r>   39.2665    0.0000 </r>
       <r>   39.3638    0.0000 </r>
       <r>   43.4758    0.0000 </r>
       <r>   50.0421    0.0000 </r>
       <r>   51.4102    0.0000 </r>
       <r>   52.5613    0.0000 </r>
       <r>   53.5584    0.0000 </r>
       <r>   54.0270    0.0000 </r>
       <r>   56.1573    0.0000 </r>
       <r>   57.0692    0.0000 </r>
       <r>   58.9071    0.0000 </r>
       <r>   60.0205    0.0000 </r>
       <r>   60.0484    0.0000 </r>
       <r>   61.5103    0.0000 </r>
       <r>   64.0718    0.0000 </r>
       <r>   64.2972    0.0000 </r>
       <r>   66.8637    0.0000 </r>
       <r>   68.1183    0.0000 </r>
       <r>   68.1722    0.0000 </r>
      </set>
      <set comment="kpoint 4">
       <r>    2.5855    1.0000 </r>
       <r>    2.9083    1.0000 </r>
       <r>    3.0758    1.0000 </r>
       <r>    5.5585    1.0000 </r>
       <r>    5.5802    1.0000 </r>
       <r>    6.0942    1.0000 </r>
       <r>    6.1070    1.0000 </r>
       <r>    8.5259   -0.0000 </r>
       <r>    8.7153   -0.0000 </r>
       <r>    8.8320   -0.0000 </r>
       <r>    9.5933   -0.0000 </r>
       <r>   14.3174    0.0000 </r>
       <r>   17.4935    0.0000 </r>
       <r>   19.3678    0.0000 </r>
       <r>   23.0423    0.0000 </r>
       <r>   25.2127    0.0000 </r>
       <r>   26.1383    0.0000 </r>
       <r>   31.5591    0.0000 </r>
       <r>   34.0850    0.0000 </r>
       <r>   36.6520    0.0000 </r>
       <r>   38.0534    0.0000 </r>
       <r>   40.7154    0.0000 </r>
       <r>   42.6588    0.0000 </r>
       <r>   43.1505    0.0000 </r>
       <r>   48.6243    0.0000 </r>
       <r>   52.8627    0.0000 </r>
       <r>   54.1800    0.0000 </r>
       <r>   57.8451    0.0000 </r>
       <r>   58.4817    0.0000 </r>
       <r>   58.7405    0.0000 </r>
       <r>   59.4075    0.0000 </r>
       <r>   61.3913    0.0000 </r>
       <r>   61.6035    0.0000 </r>
       <r>   62.9960    0.0000 </r>
       <r>   63.6083    0.0000 </r>
       <r>   65.9079    0.0000 </r>
       <r>   65.9408    0.0000 </r>
       <r>   67.3642    0.0000 </r>
       <r>   68.0385    0.0000 </r>
       <r>   68.3799    0.0000 </r>
      </set>
      <set comment="kpoint 5">
       <r>    0.6565    1.0000 </r>
       <r>    3.6608    1.0000 </r>
       <r>    4.1862    1.0000 </r>
       <r>    4.5682    1.0000 </r>
       <r>    5.5758    1.0000 </r>
       <r>    6.0856    1.0000 </r>
       <r>    6.2613    1.0000 </r>
       <r>    6.8303    1.0000 </r>
       <r>    7.3535    1.0351 </r>
       <r>    7.7183    0.0605 </r>
       <r>    8.4040   -0.0000 </r>
       <r>   13.0331   -0.0000 </r>
       <r>   15.7227    0.0000 </r>
       <r>   24.9805    0.0000 </r>
       <r>   25.9490    0.0000 </r>
       <r>   30.3400    0.0000 </r>
       <r>   31.7926    0.0000 </r>
       <r>   33.9976    0.0000 </r>
       <r>   34.6676    0.0000 </r>
       <r>   36.2164    0.0000 </r>
       <r>   38.2379    0.0000 </r>
       <r>   42.8263    0.0000 </r>
       <r>   42.8890    0.0000 </r>
       <r>   44.3446    0.0000 </r>
       <r>   45.6205    0.0000 </r>
       <r>   47.0266    0.0000 </r>
       <r>   49.0983    0.0000 </r>
       <r>   54.1800    0.0000 </r>
       <r>   56.1792    0.0000 </r>
       <r>   56.5114    0.0000 </r>
       <r>   56.7862    0.0000 </r>
       <r>   59.0633    0.0000 </r>
       <r>   59.0813    0.0000 </r>
       <r>   59.9166    0.0000 </r>
       <r>   60.3406    0.0000 </r>
       <r>   61.7006    0.0000 </r>
       <r>   63.3540    0.0000 </r>
       <r>   67.0821    0.0000 </r>
       <r>   67.9852    0.0000 </r>
       <r>   69.4068    0.0000 </r>
      </set>
      <set comment="kpoint 6">
       <r>    2.6916    1.0000 </r>
       <r>    3.4105    1.0000 </r>
       <r>    3.5206    1.0000 </r>
       <r>    4.6719    1.0000 </r>
       <r>    5.5449    1.0000 </r>
       <r>    5.8184    1.0000 </r>
       <r>    6.2154    1.0000 </r>
       <r>    7.3128    1.0324 </r>
       <r>    8.3103   -0.0000 </r>
       <r>    8.4981   -0.0000 </r>
       <r>    9.5507   -0.0000 </r>
       <r>   16.3213    0.0000 </r>
       <r>   16.4382    0.0000 </r>
       <r>   19.8004    0.0000 </r>
       <r>   23.0702    0.0000 </r>
       <r>   25.6672    0.0000 </r>
       <r>   28.4921    0.0000 </r>
       <r>   29.3839    0.0000 </r>
       <r>   32.9742    0.0000 </r>
       <r>   38.3848    0.0000 </r>
       <r>   39.0175    0.0000 </r>
       <r>   42.4070    0.0000 </r>
       <r>   43.7960    0.0000 </r>
       <r>   46.1332    0.0000 </r>
       <r>   48.1702    0.0000 </r>
       <r>   50.7810    0.0000 </r>
       <r>   51.9254    0.0000 </r>
       <r>   52.4040    0.0000 </r>
       <r>   56.2967    0.0000 </r>
       <r>   56.8848    0.0000 </r>
       <r>   58.4699    0.0000 </r>
       <r>   61.0894    0.0000 </r>
       <r>   61.9692    0.0000 </r>
       <r>   62.8478    0.0000 </r>
       <r>   64.8217    0.0000 </r>
       <r>   65.0220    0.0000 </r>
       <r>   66.1894    0.0000 </r>
       <r>   67.3414    0.0000 </r>
       <r>   68.3478    0.0000 </r>
       <r>   70.0637    0.0000 </r>
      </set>
      <set comment="kpoint 7">
       <r>    3.1071    1.0000 </r>
       <r>    3.1560    1.0000 </r>
       <r>    3.3078    1.0000 </r>
       <r>    5.3589    1.0000 </r>
       <r>    5.4849    1.0000 </r>
       <r>    5.7589    1.0000 </r>
       <r>    6.1766    1.0000 </r>
       <r>    8.2687   -0.0000 </r>
       <r>    8.4068   -0.0000 </r>
       <r>    8.6173   -0.0000 </r>
       <r>   11.7108   -0.0000 </r>
       <r>   13.8055    0.0000 </r>
       <r>   19.3962    0.0000 </r>
       <r>   20.3433    0.0000 </r>
       <r>   21.6783    0.0000 </r>
       <r>   22.1532    0.0000 </r>
       <r>   24.8576    0.0000 </r>
       <r>   28.6037    0.0000 </r>
       <r>   32.1375    0.0000 </r>
       <r>   38.0814    0.0000 </r>
       <r>   40.7712    0.0000 </r>
       <r>   43.1307    0.0000 </r>
       <r>   44.7180    0.0000 </r>
       <r>   44.7289    0.0000 </r>
       <r>   48.4275    0.0000 </r>
       <r>   51.5917    0.0000 </r>
       <r>   53.4200    0.0000 </r>
       <r>   53.7116    0.0000 </r>
       <r>   57.2188    0.0000 </r>
       <r>   57.8966    0.0000 </r>
       <r>   60.3947    0.0000 </r>
       <r>   60.9730    0.0000 </r>
       <r>   61.8192    0.0000 </r>
       <r>   61.9537    0.0000 </r>
       <r>   66.0933    0.0000 </r>
       <r>   67.1832    0.0000 </r>
       <r>   67.7456    0.0000 </r>
       <r>   68.4582    0.0000 </r>
       <r>   68.8002    0.0000 </r>
       <r>   70.3684    0.0000 </r>
      </set>
      <set comment="kpoint 8">
       <r>    3.4199    1.0000 </r>
       <r>    3.8756    1.0000 </r>
       <r>    4.1779    1.0000 </r>
       <r>    4.2444    1.0000 </r>
       <r>    5.2634    1.0000 </r>
       <r>    5.5961    1.0000 </r>
       <r>    6.2965    1.0000 </r>
       <r>    7.6345    0.3132 </r>
       <r>    8.0078   -0.0058 </r>
       <r>    8.4771   -0.0000 </r>
       <r>   12.4197   -0.0000 </r>
       <r>   16.7441    0.0000 </r>
       <r>   16.9823    0.0000 </r>
       <r>   20.0171    0.0000 </r>
       <r>   21.0292    0.0000 </r>
       <r>   24.5470    0.0000 </r>
       <r>   24.6352    0.0000 </r>
       <r>   26.7452    0.0000 </r>
       <r>   27.6471    0.0000 </r>
       <r>   41.4944    0.0000 </r>
       <r>   43.0287    0.0000 </r>
       <r>   46.1889    0.0000 </r>
       <r>   47.2313    0.0000 </r>
       <r>   47.2890    0.0000 </r>
       <r>   47.7837    0.0000 </r>
       <r>   48.0257    0.0000 </r>
       <r>   51.0267    0.0000 </r>
       <r>   53.2863    0.0000 </r>
       <r>   54.0796    0.0000 </r>
       <r>   56.0540    0.0000 </r>
       <r>   58.1589    0.0000 </r>
       <r>   60.4682    0.0000 </r>
       <r>   60.7430    0.0000 </r>
       <r>   62.2090    0.0000 </r>
       <r>   66.7155    0.0000 </r>
       <r>   67.1468    0.0000 </r>
       <r>   67.8363    0.0000 </r>
       <r>   68.9391    0.0000 </r>
       <r>   69.3991    0.0000 </r>
       <r>   71.7016    0.0000 </r>
      </set>
      <set comment="kpoint 9">
       <r>   -1.4685    1.0000 </r>
       <r>    2.1717    1.0000 </r>
       <r>    5.1547    1.0000 </r>
       <r>    5.8388    1.0000 </r>
       <r>    5.8389    1.0000 </r>
       <r>    6.1510    1.0000 </r>
       <r>    6.1511    1.0000 </r>
       <r>    6.3002    1.0000 </r>
       <r>    7.3317    1.0349 </r>
       <r>    7.3318    1.0349 </r>
       <r>    8.3676   -0.0000 </r>
       <r>    8.3677   -0.0000 </r>
       <r>   16.3034    0.0000 </r>
       <r>   30.0279    0.0000 </r>
       <r>   31.7893    0.0000 </r>
       <r>   34.1540    0.0000 </r>
       <r>   37.3576    0.0000 </r>
       <r>   37.3576    0.0000 </r>
       <r>   38.0374    0.0000 </r>
       <r>   38.0376    0.0000 </r>
       <r>   39.8882    0.0000 </r>
       <r>   40.5426    0.0000 </r>
       <r>   40.5426    0.0000 </r>
       <r>   42.3710    0.0000 </r>
       <r>   43.8317    0.0000 </r>
       <r>   43.8317    0.0000 </r>
       <r>   46.1053    0.0000 </r>
       <r>   49.2589    0.0000 </r>
       <r>   49.2592    0.0000 </r>
       <r>   51.5130    0.0000 </r>
       <r>   51.5131    0.0000 </r>
       <r>   52.8117    0.0000 </r>
       <r>   59.3098    0.0000 </r>
       <r>   62.4697    0.0000 </r>
       <r>   62.4705    0.0000 </r>
       <r>   63.0919    0.0000 </r>
       <r>   63.0924    0.0000 </r>
       <r>   63.4325    0.0000 </r>
       <r>   64.7372    0.0000 </r>
       <r>   66.0870    0.0000 </r>
      </set>
      <set comment="kpoint 10">
       <r>   -0.6484    1.0000 </r>
       <r>    2.7915    1.0000 </r>
       <r>    4.9974    1.0000 </r>
       <r>    5.1371    1.0000 </r>
       <r>    5.6309    1.0000 </r>
       <r>    6.0259    1.0000 </r>
       <r>    6.3103    1.0000 </r>
       <r>    6.5992    1.0000 </r>
       <r>    7.0493    1.0005 </r>
       <r>    7.1098    1.0018 </r>
       <r>    8.4202   -0.0000 </r>
       <r>   10.0406   -0.0000 </r>
       <r>   16.5475    0.0000 </r>
       <r>   28.4121    0.0000 </r>
       <r>   30.8462    0.0000 </r>
       <r>   32.1463    0.0000 </r>
       <r>   32.8568    0.0000 </r>
       <r>   33.8303    0.0000 </r>
       <r>   36.9449    0.0000 </r>
       <r>   38.8171    0.0000 </r>
       <r>   38.8802    0.0000 </r>
       <r>   40.7128    0.0000 </r>
       <r>   42.6371    0.0000 </r>
       <r>   44.0875    0.0000 </r>
       <r>   45.5843    0.0000 </r>
       <r>   46.0051    0.0000 </r>
       <r>   46.9257    0.0000 </r>
       <r>   49.0928    0.0000 </r>
       <r>   51.9379    0.0000 </r>
       <r>   53.5242    0.0000 </r>
       <r>   55.3564    0.0000 </r>
       <r>   56.4293    0.0000 </r>
       <r>   56.7323    0.0000 </r>
       <r>   59.8189    0.0000 </r>
       <r>   61.8407    0.0000 </r>
       <r>   62.4984    0.0000 </r>
       <r>   63.6655    0.0000 </r>
       <r>   65.2992    0.0000 </r>
       <r>   65.3441    0.0000 </r>
       <r>   67.3374    0.0000 </r>
      </set>
      <set comment="kpoint 11">
       <r>    1.3198    1.0000 </r>
       <r>    3.3472    1.0000 </r>
       <r>    3.7826    1.0000 </r>
       <r>    4.9248    1.0000 </r>
       <r>    5.4048    1.0000 </r>
       <r>    6.2335    1.0000 </r>
       <r>    6.5180    1.0000 </r>
       <r>    7.2555    1.0200 </r>
       <r>    7.6070    0.4247 </r>
       <r>    7.7441    0.0166 </r>
       <r>    8.4677   -0.0000 </r>
       <r>   12.4586   -0.0000 </r>
       <r>   17.5209    0.0000 </r>
       <r>   22.1563    0.0000 </r>
       <r>   27.0189    0.0000 </r>
       <r>   28.8937    0.0000 </r>
       <r>   30.3282    0.0000 </r>
       <r>   32.4317    0.0000 </r>
       <r>   34.8840    0.0000 </r>
       <r>   36.6634    0.0000 </r>
       <r>   37.2693    0.0000 </r>
       <r>   40.9500    0.0000 </r>
       <r>   41.2868    0.0000 </r>
       <r>   45.1255    0.0000 </r>
       <r>   49.8360    0.0000 </r>
       <r>   50.2490    0.0000 </r>
       <r>   51.6228    0.0000 </r>
       <r>   51.6901    0.0000 </r>
       <r>   55.9765    0.0000 </r>
       <r>   56.9599    0.0000 </r>
       <r>   57.5205    0.0000 </r>
       <r>   58.7251    0.0000 </r>
       <r>   59.3777    0.0000 </r>
       <r>   59.7345    0.0000 </r>
       <r>   62.2622    0.0000 </r>
       <r>   63.0147    0.0000 </r>
       <r>   65.0634    0.0000 </r>
       <r>   66.2201    0.0000 </r>
       <r>   66.7401    0.0000 </r>
       <r>   68.9100    0.0000 </r>
      </set>
      <set comment="kpoint 12">
       <r>    2.4308    1.0000 </r>
       <r>    2.7972    1.0000 </r>
       <r>    3.4738    1.0000 </r>
       <r>    4.6899    1.0000 </r>
       <r>    6.0773    1.0000 </r>
       <r>    6.2055    1.0000 </r>
       <r>    6.6980    1.0000 </r>
       <r>    8.3606   -0.0000 </r>
       <r>    8.7250   -0.0000 </r>
       <r>    8.8461   -0.0000 </r>
       <r>    9.4026   -0.0000 </r>
       <r>   13.5487    0.0000 </r>
       <r>   17.6028    0.0000 </r>
       <r>   19.7826    0.0000 </r>
       <r>   22.8371    0.0000 </r>
       <r>   26.1251    0.0000 </r>
       <r>   26.4630    0.0000 </r>
       <r>   31.5609    0.0000 </r>
       <r>   34.0200    0.0000 </r>
       <r>   34.8556    0.0000 </r>
       <r>   38.7010    0.0000 </r>
       <r>   39.9323    0.0000 </r>
       <r>   41.6561    0.0000 </r>
       <r>   45.4502    0.0000 </r>
       <r>   48.3879    0.0000 </r>
       <r>   52.9994    0.0000 </r>
       <r>   54.6223    0.0000 </r>
       <r>   56.2219    0.0000 </r>
       <r>   57.3667    0.0000 </r>
       <r>   59.5140    0.0000 </r>
       <r>   60.5575    0.0000 </r>
       <r>   61.2390    0.0000 </r>
       <r>   61.6236    0.0000 </r>
       <r>   63.4670    0.0000 </r>
       <r>   64.0916    0.0000 </r>
       <r>   65.5561    0.0000 </r>
       <r>   66.2779    0.0000 </r>
       <r>   67.1658    0.0000 </r>
       <r>   68.5412    0.0000 </r>
       <r>   68.6624    0.0000 </r>
      </set>
      <set comment="kpoint 13">
       <r>    0.8057    1.0000 </r>
       <r>    3.6673    1.0000 </r>
       <r>    4.0489    1.0000 </r>
       <r>    4.6185    1.0000 </r>
       <r>    5.6007    1.0000 </r>
       <r>    5.7243    1.0000 </r>
       <r>    6.6547    1.0000 </r>
       <r>    6.7332    1.0000 </r>
       <r>    7.4882    0.8725 </r>
       <r>    7.6534    0.2428 </r>
       <r>    8.3788   -0.0000 </r>
       <r>   11.8907   -0.0000 </r>
       <r>   17.2362    0.0000 </r>
       <r>   25.1308    0.0000 </r>
       <r>   26.1352    0.0000 </r>
       <r>   29.6868    0.0000 </r>
       <r>   30.8263    0.0000 </r>
       <r>   33.8178    0.0000 </r>
       <r>   34.9005    0.0000 </r>
       <r>   35.9877    0.0000 </r>
       <r>   38.8965    0.0000 </r>
       <r>   42.5748    0.0000 </r>
       <r>   44.2970    0.0000 </r>
       <r>   44.5308    0.0000 </r>
       <r>   44.7104    0.0000 </r>
       <r>   48.3221    0.0000 </r>
       <r>   49.2214    0.0000 </r>
       <r>   52.9224    0.0000 </r>
       <r>   54.3821    0.0000 </r>
       <r>   56.8895    0.0000 </r>
       <r>   57.8257    0.0000 </r>
       <r>   58.2311    0.0000 </r>
       <r>   58.5836    0.0000 </r>
       <r>   60.6585    0.0000 </r>
       <r>   60.7558    0.0000 </r>
       <r>   62.6069    0.0000 </r>
       <r>   63.6136    0.0000 </r>
       <r>   65.6009    0.0000 </r>
       <r>   67.7668    0.0000 </r>
       <r>   67.9574    0.0000 </r>
      </set>
      <set comment="kpoint 14">
       <r>    2.6485    1.0000 </r>
       <r>    3.3996    1.0000 </r>
       <r>    3.6333    1.0000 </r>
       <r>    4.6036    1.0000 </r>
       <r>    5.5430    1.0000 </r>
       <r>    5.9445    1.0000 </r>
       <r>    6.2682    1.0000 </r>
       <r>    7.3556    1.0349 </r>
       <r>    8.1316   -0.0004 </r>
       <r>    8.5702   -0.0000 </r>
       <r>    9.5813   -0.0000 </r>
       <r>   14.2045    0.0000 </r>
       <r>   18.5564    0.0000 </r>
       <r>   20.1558    0.0000 </r>
       <r>   23.2273    0.0000 </r>
       <r>   24.9616    0.0000 </r>
       <r>   28.6098    0.0000 </r>
       <r>   29.5055    0.0000 </r>
       <r>   33.8195    0.0000 </r>
       <r>   36.4901    0.0000 </r>
       <r>   39.0344    0.0000 </r>
       <r>   42.0593    0.0000 </r>
       <r>   45.0872    0.0000 </r>
       <r>   46.9087    0.0000 </r>
       <r>   47.4186    0.0000 </r>
       <r>   48.9641    0.0000 </r>
       <r>   52.2961    0.0000 </r>
       <r>   53.7880    0.0000 </r>
       <r>   56.0053    0.0000 </r>
       <r>   57.9467    0.0000 </r>
       <r>   58.7430    0.0000 </r>
       <r>   61.1362    0.0000 </r>
       <r>   61.7099    0.0000 </r>
       <r>   62.7781    0.0000 </r>
       <r>   64.2792    0.0000 </r>
       <r>   65.3353    0.0000 </r>
       <r>   66.5805    0.0000 </r>
       <r>   66.8379    0.0000 </r>
       <r>   67.5985    0.0000 </r>
       <r>   69.2771    0.0000 </r>
      </set>
      <set comment="kpoint 15">
       <r>    2.8396    1.0000 </r>
       <r>    3.1507    1.0000 </r>
       <r>    3.7734    1.0000 </r>
       <r>    4.6429    1.0000 </r>
       <r>    5.5882    1.0000 </r>
       <r>    6.2010    1.0000 </r>
       <r>    6.4250    1.0000 </r>
       <r>    8.0907   -0.0011 </r>
       <r>    8.4003   -0.0000 </r>
       <r>    8.6456   -0.0000 </r>
       <r>   11.6667   -0.0000 </r>
       <r>   13.6485    0.0000 </r>
       <r>   18.9057    0.0000 </r>
       <r>   19.4213    0.0000 </r>
       <r>   22.1052    0.0000 </r>
       <r>   23.4491    0.0000 </r>
       <r>   25.5926    0.0000 </r>
       <r>   27.8920    0.0000 </r>
       <r>   33.0915    0.0000 </r>
       <r>   37.7392    0.0000 </r>
       <r>   39.4611    0.0000 </r>
       <r>   40.4728    0.0000 </r>
       <r>   45.2781    0.0000 </r>
       <r>   47.6945    0.0000 </r>
       <r>   48.1402    0.0000 </r>
       <r>   49.7340    0.0000 </r>
       <r>   54.5601    0.0000 </r>
       <r>   55.2960    0.0000 </r>
       <r>   57.9213    0.0000 </r>
       <r>   58.1861    0.0000 </r>
       <r>   59.6638    0.0000 </r>
       <r>   60.5121    0.0000 </r>
       <r>   61.9745    0.0000 </r>
       <r>   62.5218    0.0000 </r>
       <r>   64.7307    0.0000 </r>
       <r>   67.0258    0.0000 </r>
       <r>   67.1213    0.0000 </r>
       <r>   68.7104    0.0000 </r>
       <r>   69.1093    0.0000 </r>
       <r>   70.4847    0.0000 </r>
      </set>
      <set comment="kpoint 16">
       <r>    3.4257    1.0000 </r>
       <r>    3.9099    1.0000 </r>
       <r>    4.1308    1.0000 </r>
       <r>    4.2869    1.0000 </r>
       <r>    5.3679    1.0000 </r>
       <r>    5.4486    1.0000 </r>
       <r>    6.3331    1.0000 </r>
       <r>    7.7236    0.0500 </r>
       <r>    7.8204   -0.0347 </r>
       <r>    8.5418   -0.0000 </r>
       <r>   12.5369   -0.0000 </r>
       <r>   16.2988    0.0000 </r>
       <r>   17.1606    0.0000 </r>
       <r>   19.4319    0.0000 </r>
       <r>   21.7164    0.0000 </r>
       <r>   23.6764    0.0000 </r>
       <r>   24.4217    0.0000 </r>
       <r>   27.9994    0.0000 </r>
       <r>   28.7842    0.0000 </r>
       <r>   39.0723    0.0000 </r>
       <r>   42.6145    0.0000 </r>
       <r>   44.3543    0.0000 </r>
       <r>   45.6534    0.0000 </r>
       <r>   47.9618    0.0000 </r>
       <r>   49.3474    0.0000 </r>
       <r>   50.3514    0.0000 </r>
       <r>   52.1734    0.0000 </r>
       <r>   53.4548    0.0000 </r>
       <r>   53.9298    0.0000 </r>
       <r>   56.3932    0.0000 </r>
       <r>   58.8294    0.0000 </r>
       <r>   59.9278    0.0000 </r>
       <r>   60.9531    0.0000 </r>
       <r>   62.6114    0.0000 </r>
       <r>   66.5162    0.0000 </r>
       <r>   67.0739    0.0000 </r>
       <r>   67.6027    0.0000 </r>
       <r>   69.3820    0.0000 </r>
       <r>   69.4028    0.0000 </r>
       <r>   70.2944    0.0000 </r>
      </set>
      <set comment="kpoint 17">
       <r>   -0.8758    1.0000 </r>
       <r>    1.8237    1.0000 </r>
       <r>    5.0135    1.0000 </r>
       <r>    5.4073    1.0000 </r>
       <r>    5.8145    1.0000 </r>
       <r>    5.8145    1.0000 </r>
       <r>    6.0420    1.0000 </r>
       <r>    6.0421    1.0000 </r>
       <r>    7.5704    0.5788 </r>
       <r>    7.5704    0.5787 </r>
       <r>    8.2755   -0.0000 </r>
       <r>    8.2755   -0.0000 </r>
       <r>   18.4934    0.0000 </r>
       <r>   27.3863    0.0000 </r>
       <r>   31.8083    0.0000 </r>
       <r>   33.3110    0.0000 </r>
       <r>   37.6570    0.0000 </r>
       <r>   37.6570    0.0000 </r>
       <r>   38.0749    0.0000 </r>
       <r>   38.0750    0.0000 </r>
       <r>   40.2782    0.0000 </r>
       <r>   40.2784    0.0000 </r>
       <r>   42.0209    0.0000 </r>
       <r>   42.4057    0.0000 </r>
       <r>   42.4058    0.0000 </r>
       <r>   43.7343    0.0000 </r>
       <r>   47.6128    0.0000 </r>
       <r>   50.8804    0.0000 </r>
       <r>   50.8807    0.0000 </r>
       <r>   51.8071    0.0000 </r>
       <r>   53.4160    0.0000 </r>
       <r>   53.4161    0.0000 </r>
       <r>   57.0845    0.0000 </r>
       <r>   60.0637    0.0000 </r>
       <r>   60.0640    0.0000 </r>
       <r>   60.3059    0.0000 </r>
       <r>   61.0901    0.0000 </r>
       <r>   61.0907    0.0000 </r>
       <r>   64.4607    0.0000 </r>
       <r>   69.1065    0.0000 </r>
      </set>
      <set comment="kpoint 18">
       <r>   -0.0954    1.0000 </r>
       <r>    2.4816    1.0000 </r>
       <r>    4.6222    1.0000 </r>
       <r>    5.1070    1.0000 </r>
       <r>    5.4265    1.0000 </r>
       <r>    5.9186    1.0000 </r>
       <r>    6.2571    1.0000 </r>
       <r>    6.4821    1.0000 </r>
       <r>    7.4156    1.0053 </r>
       <r>    7.4348    0.9825 </r>
       <r>    8.2868   -0.0000 </r>
       <r>    9.1599   -0.0000 </r>
       <r>   18.9318    0.0000 </r>
       <r>   28.0089    0.0000 </r>
       <r>   28.9009    0.0000 </r>
       <r>   31.1425    0.0000 </r>
       <r>   33.4771    0.0000 </r>
       <r>   33.8876    0.0000 </r>
       <r>   35.8986    0.0000 </r>
       <r>   37.2904    0.0000 </r>
       <r>   40.6704    0.0000 </r>
       <r>   42.7406    0.0000 </r>
       <r>   43.0553    0.0000 </r>
       <r>   44.5517    0.0000 </r>
       <r>   45.5357    0.0000 </r>
       <r>   46.9452    0.0000 </r>
       <r>   48.6132    0.0000 </r>
       <r>   49.9720    0.0000 </r>
       <r>   51.4811    0.0000 </r>
       <r>   52.6099    0.0000 </r>
       <r>   54.3175    0.0000 </r>
       <r>   56.1680    0.0000 </r>
       <r>   56.3806    0.0000 </r>
       <r>   58.0406    0.0000 </r>
       <r>   61.0520    0.0000 </r>
       <r>   61.8109    0.0000 </r>
       <r>   63.7015    0.0000 </r>
       <r>   63.8707    0.0000 </r>
       <r>   65.0610    0.0000 </r>
       <r>   66.3547    0.0000 </r>
      </set>
      <set comment="kpoint 19">
       <r>    1.6243    1.0000 </r>
       <r>    3.1003    1.0000 </r>
       <r>    3.8898    1.0000 </r>
       <r>    4.7597    1.0000 </r>
       <r>    5.4779    1.0000 </r>
       <r>    6.2497    1.0000 </r>
       <r>    6.6949    1.0000 </r>
       <r>    7.4991    0.8415 </r>
       <r>    7.5657    0.5982 </r>
       <r>    7.7812   -0.0205 </r>
       <r>    8.3172   -0.0000 </r>
       <r>   10.6906   -0.0000 </r>
       <r>   20.1879    0.0000 </r>
       <r>   22.6363    0.0000 </r>
       <r>   25.6986    0.0000 </r>
       <r>   29.4402    0.0000 </r>
       <r>   29.7043    0.0000 </r>
       <r>   32.1650    0.0000 </r>
       <r>   33.8025    0.0000 </r>
       <r>   34.5467    0.0000 </r>
       <r>   37.9882    0.0000 </r>
       <r>   42.7762    0.0000 </r>
       <r>   43.5287    0.0000 </r>
       <r>   46.2697    0.0000 </r>
       <r>   48.4121    0.0000 </r>
       <r>   49.6113    0.0000 </r>
       <r>   50.5695    0.0000 </r>
       <r>   51.3488    0.0000 </r>
       <r>   56.0884    0.0000 </r>
       <r>   56.3860    0.0000 </r>
       <r>   57.0573    0.0000 </r>
       <r>   58.5205    0.0000 </r>
       <r>   60.8670    0.0000 </r>
       <r>   60.9091    0.0000 </r>
       <r>   61.4305    0.0000 </r>
       <r>   63.6095    0.0000 </r>
       <r>   64.1614    0.0000 </r>
       <r>   65.7415    0.0000 </r>
       <r>   65.9828    0.0000 </r>
       <r>   69.2886    0.0000 </r>
      </set>
      <set comment="kpoint 20">
       <r>    2.2763    1.0000 </r>
       <r>    2.7644    1.0000 </r>
       <r>    3.8017    1.0000 </r>
       <r>    4.1554    1.0000 </r>
       <r>    6.3824    1.0000 </r>
       <r>    6.4934    1.0000 </r>
       <r>    7.8757   -0.0305 </r>
       <r>    7.9620   -0.0121 </r>
       <r>    8.7511   -0.0000 </r>
       <r>    8.8453   -0.0000 </r>
       <r>    8.8530   -0.0000 </r>
       <r>   12.0595   -0.0000 </r>
       <r>   17.8783    0.0000 </r>
       <r>   19.6447    0.0000 </r>
       <r>   23.9185    0.0000 </r>
       <r>   27.3911    0.0000 </r>
       <r>   27.5243    0.0000 </r>
       <r>   31.5437    0.0000 </r>
       <r>   32.6664    0.0000 </r>
       <r>   33.4678    0.0000 </r>
       <r>   36.5501    0.0000 </r>
       <r>   40.4985    0.0000 </r>
       <r>   42.4861    0.0000 </r>
       <r>   45.6541    0.0000 </r>
       <r>   50.5343    0.0000 </r>
       <r>   51.7569    0.0000 </r>
       <r>   52.9054    0.0000 </r>
       <r>   57.5076    0.0000 </r>
       <r>   57.6464    0.0000 </r>
       <r>   59.8323    0.0000 </r>
       <r>   59.9585    0.0000 </r>
       <r>   60.7066    0.0000 </r>
       <r>   63.4597    0.0000 </r>
       <r>   63.6794    0.0000 </r>
       <r>   64.8330    0.0000 </r>
       <r>   65.4127    0.0000 </r>
       <r>   66.5241    0.0000 </r>
       <r>   66.5846    0.0000 </r>
       <r>   69.8203    0.0000 </r>
       <r>   70.2460    0.0000 </r>
      </set>
      <set comment="kpoint 21">
       <r>    1.2328    1.0000 </r>
       <r>    3.3132    1.0000 </r>
       <r>    4.0877    1.0000 </r>
       <r>    4.7618    1.0000 </r>
       <r>    5.2953    1.0000 </r>
       <r>    5.5496    1.0000 </r>
       <r>    6.6810    1.0000 </r>
       <r>    7.1088    1.0018 </r>
       <r>    7.5799    0.5388 </r>
       <r>    7.7215    0.0541 </r>
       <r>    8.2971   -0.0000 </r>
       <r>   10.3440   -0.0000 </r>
       <r>   19.8771    0.0000 </r>
       <r>   25.5647    0.0000 </r>
       <r>   26.6398    0.0000 </r>
       <r>   28.5859    0.0000 </r>
       <r>   28.8409    0.0000 </r>
       <r>   31.0918    0.0000 </r>
       <r>   36.6639    0.0000 </r>
       <r>   37.4968    0.0000 </r>
       <r>   39.3611    0.0000 </r>
       <r>   41.6068    0.0000 </r>
       <r>   44.1007    0.0000 </r>
       <r>   44.4106    0.0000 </r>
       <r>   47.6644    0.0000 </r>
       <r>   49.0762    0.0000 </r>
       <r>   49.9566    0.0000 </r>
       <r>   51.8485    0.0000 </r>
       <r>   51.9195    0.0000 </r>
       <r>   56.6835    0.0000 </r>
       <r>   56.8464    0.0000 </r>
       <r>   58.0333    0.0000 </r>
       <r>   59.2223    0.0000 </r>
       <r>   60.8261    0.0000 </r>
       <r>   61.2804    0.0000 </r>
       <r>   61.8419    0.0000 </r>
       <r>   64.3281    0.0000 </r>
       <r>   64.4750    0.0000 </r>
       <r>   67.4046    0.0000 </r>
       <r>   68.0328    0.0000 </r>
      </set>
      <set comment="kpoint 22">
       <r>    2.6328    1.0000 </r>
       <r>    3.2532    1.0000 </r>
       <r>    3.8740    1.0000 </r>
       <r>    4.6063    1.0000 </r>
       <r>    5.4890    1.0000 </r>
       <r>    6.0341    1.0000 </r>
       <r>    6.5186    1.0000 </r>
       <r>    7.5271    0.7489 </r>
       <r>    7.8170   -0.0342 </r>
       <r>    8.7139   -0.0000 </r>
       <r>    9.6441   -0.0000 </r>
       <r>   12.2786   -0.0000 </r>
       <r>   19.8650    0.0000 </r>
       <r>   21.5797    0.0000 </r>
       <r>   23.3587    0.0000 </r>
       <r>   24.5684    0.0000 </r>
       <r>   27.3328    0.0000 </r>
       <r>   30.4133    0.0000 </r>
       <r>   33.8397    0.0000 </r>
       <r>   36.1354    0.0000 </r>
       <r>   38.9912    0.0000 </r>
       <r>   40.6232    0.0000 </r>
       <r>   44.8168    0.0000 </r>
       <r>   45.3093    0.0000 </r>
       <r>   48.8960    0.0000 </r>
       <r>   49.7169    0.0000 </r>
       <r>   53.1518    0.0000 </r>
       <r>   53.5017    0.0000 </r>
       <r>   57.4001    0.0000 </r>
       <r>   58.3115    0.0000 </r>
       <r>   59.9510    0.0000 </r>
       <r>   61.1326    0.0000 </r>
       <r>   61.5718    0.0000 </r>
       <r>   62.8065    0.0000 </r>
       <r>   63.3033    0.0000 </r>
       <r>   63.8109    0.0000 </r>
       <r>   65.8037    0.0000 </r>
       <r>   67.5816    0.0000 </r>
       <r>   68.4313    0.0000 </r>
       <r>   69.5940    0.0000 </r>
      </set>
      <set comment="kpoint 23">
       <r>    2.6719    1.0000 </r>
       <r>    3.1872    1.0000 </r>
       <r>    4.1025    1.0000 </r>
       <r>    4.2546    1.0000 </r>
       <r>    5.4661    1.0000 </r>
       <r>    6.6915    1.0000 </r>
       <r>    6.8780    1.0000 </r>
       <r>    7.7061    0.0868 </r>
       <r>    8.3928   -0.0000 </r>
       <r>    8.6828   -0.0000 </r>
       <r>   11.6323   -0.0000 </r>
       <r>   13.1817    0.0000 </r>
       <r>   18.1974    0.0000 </r>
       <r>   18.4054    0.0000 </r>
       <r>   22.9568    0.0000 </r>
       <r>   25.5906    0.0000 </r>
       <r>   26.5927    0.0000 </r>
       <r>   27.2977    0.0000 </r>
       <r>   35.0081    0.0000 </r>
       <r>   35.7919    0.0000 </r>
       <r>   37.0861    0.0000 </r>
       <r>   39.1804    0.0000 </r>
       <r>   44.4836    0.0000 </r>
       <r>   46.0800    0.0000 </r>
       <r>   49.7307    0.0000 </r>
       <r>   52.6810    0.0000 </r>
       <r>   56.2923    0.0000 </r>
       <r>   56.4942    0.0000 </r>
       <r>   57.8859    0.0000 </r>
       <r>   58.4227    0.0000 </r>
       <r>   59.3290    0.0000 </r>
       <r>   59.7998    0.0000 </r>
       <r>   62.4983    0.0000 </r>
       <r>   63.4472    0.0000 </r>
       <r>   63.6961    0.0000 </r>
       <r>   66.7452    0.0000 </r>
       <r>   66.8709    0.0000 </r>
       <r>   68.5797    0.0000 </r>
       <r>   69.0826    0.0000 </r>
       <r>   70.4863    0.0000 </r>
      </set>
      <set comment="kpoint 24">
       <r>    3.4545    1.0000 </r>
       <r>    3.8169    1.0000 </r>
       <r>    4.1508    1.0000 </r>
       <r>    4.5715    1.0000 </r>
       <r>    5.1323    1.0000 </r>
       <r>    5.4627    1.0000 </r>
       <r>    6.4161    1.0000 </r>
       <r>    7.3555    1.0349 </r>
       <r>    8.0130   -0.0053 </r>
       <r>    8.6449   -0.0000 </r>
       <r>   12.8481   -0.0000 </r>
       <r>   15.2315    0.0000 </r>
       <r>   17.6721    0.0000 </r>
       <r>   19.2567    0.0000 </r>
       <r>   21.2477    0.0000 </r>
       <r>   22.3483    0.0000 </r>
       <r>   25.9477    0.0000 </r>
       <r>   30.2919    0.0000 </r>
       <r>   30.6825    0.0000 </r>
       <r>   36.0425    0.0000 </r>
       <r>   39.6759    0.0000 </r>
       <r>   41.2925    0.0000 </r>
       <r>   46.1262    0.0000 </r>
       <r>   47.8664    0.0000 </r>
       <r>   51.4443    0.0000 </r>
       <r>   51.4897    0.0000 </r>
       <r>   53.0370    0.0000 </r>
       <r>   55.1484    0.0000 </r>
       <r>   56.3845    0.0000 </r>
       <r>   57.5438    0.0000 </r>
       <r>   58.8535    0.0000 </r>
       <r>   60.2443    0.0000 </r>
       <r>   61.3298    0.0000 </r>
       <r>   63.3269    0.0000 </r>
       <r>   65.3210    0.0000 </r>
       <r>   65.7454    0.0000 </r>
       <r>   66.9382    0.0000 </r>
       <r>   68.3418    0.0000 </r>
       <r>   68.8783    0.0000 </r>
       <r>   69.8784    0.0000 </r>
      </set>
      <set comment="kpoint 25">
       <r>    0.0230    1.0000 </r>
       <r>    1.0381    1.0000 </r>
       <r>    4.8733    1.0000 </r>
       <r>    4.9155    1.0000 </r>
       <r>    5.8385    1.0000 </r>
       <r>    5.8386    1.0000 </r>
       <r>    5.9214    1.0000 </r>
       <r>    5.9215    1.0000 </r>
       <r>    7.8547   -0.0340 </r>
       <r>    7.8548   -0.0340 </r>
       <r>    8.1034   -0.0008 </r>
       <r>    8.1035   -0.0008 </r>
       <r>   21.2932    0.0000 </r>
       <r>   24.3418    0.0000 </r>
       <r>   32.0089    0.0000 </r>
       <r>   32.5221    0.0000 </r>
       <r>   37.9757    0.0000 </r>
       <r>   37.9757    0.0000 </r>
       <r>   38.1010    0.0000 </r>
       <r>   38.1010    0.0000 </r>
       <r>   40.3725    0.0000 </r>
       <r>   40.3727    0.0000 </r>
       <r>   41.1516    0.0000 </r>
       <r>   41.1517    0.0000 </r>
       <r>   44.0211    0.0000 </r>
       <r>   44.7086    0.0000 </r>
       <r>   49.2715    0.0000 </r>
       <r>   50.5388    0.0000 </r>
       <r>   53.0673    0.0000 </r>
       <r>   53.0675    0.0000 </r>
       <r>   54.6452    0.0000 </r>
       <r>   54.6453    0.0000 </r>
       <r>   55.8032    0.0000 </r>
       <r>   56.9677    0.0000 </r>
       <r>   58.1867    0.0000 </r>
       <r>   58.1869    0.0000 </r>
       <r>   59.2296    0.0000 </r>
       <r>   59.2301    0.0000 </r>
       <r>   66.0389    0.0000 </r>
       <r>   68.0385    0.0000 </r>
      </set>
      <set comment="kpoint 26">
       <r>    0.7461    1.0000 </r>
       <r>    1.7123    1.0000 </r>
       <r>    4.5814    1.0000 </r>
       <r>    4.8263    1.0000 </r>
       <r>    5.5102    1.0000 </r>
       <r>    5.7162    1.0000 </r>
       <r>    6.2716    1.0000 </r>
       <r>    6.3571    1.0000 </r>
       <r>    7.7541    0.0039 </r>
       <r>    7.9114   -0.0225 </r>
       <r>    8.0579   -0.0023 </r>
       <r>    8.4656   -0.0000 </r>
       <r>   21.8377    0.0000 </r>
       <r>   24.9644    0.0000 </r>
       <r>   29.3796    0.0000 </r>
       <r>   30.1575    0.0000 </r>
       <r>   34.2693    0.0000 </r>
       <r>   34.4556    0.0000 </r>
       <r>   34.9525    0.0000 </r>
       <r>   35.7653    0.0000 </r>
       <r>   42.3910    0.0000 </r>
       <r>   43.4208    0.0000 </r>
       <r>   43.6903    0.0000 </r>
       <r>   44.5350    0.0000 </r>
       <r>   45.9945    0.0000 </r>
       <r>   48.0673    0.0000 </r>
       <r>   49.8450    0.0000 </r>
       <r>   50.5464    0.0000 </r>
       <r>   51.2568    0.0000 </r>
       <r>   52.0977    0.0000 </r>
       <r>   53.0576    0.0000 </r>
       <r>   54.1029    0.0000 </r>
       <r>   56.5636    0.0000 </r>
       <r>   58.3177    0.0000 </r>
       <r>   59.5794    0.0000 </r>
       <r>   61.7377    0.0000 </r>
       <r>   62.1098    0.0000 </r>
       <r>   63.5833    0.0000 </r>
       <r>   65.2843    0.0000 </r>
       <r>   66.5290    0.0000 </r>
      </set>
      <set comment="kpoint 27">
       <r>    2.0817    1.0000 </r>
       <r>    2.6149    1.0000 </r>
       <r>    4.1654    1.0000 </r>
       <r>    4.4846    1.0000 </r>
       <r>    5.7444    1.0000 </r>
       <r>    6.0509    1.0000 </r>
       <r>    6.9546    1.0000 </r>
       <r>    7.2462    1.0179 </r>
       <r>    7.9332   -0.0177 </r>
       <r>    8.1241   -0.0005 </r>
       <r>    8.2285   -0.0000 </r>
       <r>    9.2649   -0.0000 </r>
       <r>   22.7914    0.0000 </r>
       <r>   23.4361    0.0000 </r>
       <r>   24.7329    0.0000 </r>
       <r>   26.6714    0.0000 </r>
       <r>   30.9803    0.0000 </r>
       <r>   32.6194    0.0000 </r>
       <r>   32.6325    0.0000 </r>
       <r>   33.1257    0.0000 </r>
       <r>   40.0988    0.0000 </r>
       <r>   42.8074    0.0000 </r>
       <r>   45.4172    0.0000 </r>
       <r>   45.6825    0.0000 </r>
       <r>   47.6964    0.0000 </r>
       <r>   47.7137    0.0000 </r>
       <r>   52.3148    0.0000 </r>
       <r>   52.6110    0.0000 </r>
       <r>   54.4340    0.0000 </r>
       <r>   54.5683    0.0000 </r>
       <r>   57.8487    0.0000 </r>
       <r>   59.2028    0.0000 </r>
       <r>   60.3105    0.0000 </r>
       <r>   60.5024    0.0000 </r>
       <r>   62.8722    0.0000 </r>
       <r>   63.5423    0.0000 </r>
       <r>   64.0683    0.0000 </r>
       <r>   64.6762    0.0000 </r>
       <r>   66.8690    0.0000 </r>
       <r>   68.6231    0.0000 </r>
      </set>
      <set comment="kpoint 28">
       <r>    2.3321    1.0000 </r>
       <r>    2.5609    1.0000 </r>
       <r>    3.8709    1.0000 </r>
       <r>    4.0142    1.0000 </r>
       <r>    6.9277    1.0000 </r>
       <r>    7.0921    1.0012 </r>
       <r>    7.4476    0.9625 </r>
       <r>    8.0173   -0.0049 </r>
       <r>    8.7850   -0.0000 </r>
       <r>    8.8202   -0.0000 </r>
       <r>    9.1534   -0.0000 </r>
       <r>   10.5434   -0.0000 </r>
       <r>   18.3262    0.0000 </r>
       <r>   18.9513    0.0000 </r>
       <r>   26.0238    0.0000 </r>
       <r>   27.7369    0.0000 </r>
       <r>   28.8140    0.0000 </r>
       <r>   30.6094    0.0000 </r>
       <r>   31.6191    0.0000 </r>
       <r>   32.2638    0.0000 </r>
       <r>   36.6749    0.0000 </r>
       <r>   38.3412    0.0000 </r>
       <r>   45.1122    0.0000 </r>
       <r>   47.2047    0.0000 </r>
       <r>   47.8136    0.0000 </r>
       <r>   49.7619    0.0000 </r>
       <r>   55.8386    0.0000 </r>
       <r>   58.0974    0.0000 </r>
       <r>   58.5835    0.0000 </r>
       <r>   58.9597    0.0000 </r>
       <r>   60.0450    0.0000 </r>
       <r>   60.7523    0.0000 </r>
       <r>   63.8803    0.0000 </r>
       <r>   64.2609    0.0000 </r>
       <r>   65.0379    0.0000 </r>
       <r>   65.2065    0.0000 </r>
       <r>   66.0557    0.0000 </r>
       <r>   66.3373    0.0000 </r>
       <r>   68.6724    0.0000 </r>
       <r>   69.9104    0.0000 </r>
      </set>
      <set comment="kpoint 29">
       <r>    1.8744    1.0000 </r>
       <r>    2.6201    1.0000 </r>
       <r>    4.3992    1.0000 </r>
       <r>    4.7782    1.0000 </r>
       <r>    5.0780    1.0000 </r>
       <r>    5.3296    1.0000 </r>
       <r>    6.8249    1.0000 </r>
       <r>    7.0587    1.0006 </r>
       <r>    7.9444   -0.0154 </r>
       <r>    8.0554   -0.0024 </r>
       <r>    8.2130   -0.0000 </r>
       <r>    9.0830   -0.0000 </r>
       <r>   22.8658    0.0000 </r>
       <r>   25.9845    0.0000 </r>
       <r>   26.2523    0.0000 </r>
       <r>   26.9105    0.0000 </r>
       <r>   28.1512    0.0000 </r>
       <r>   29.2097    0.0000 </r>
       <r>   38.2602    0.0000 </r>
       <r>   38.5540    0.0000 </r>
       <r>   39.8702    0.0000 </r>
       <r>   40.5311    0.0000 </r>
       <r>   43.9743    0.0000 </r>
       <r>   44.2097    0.0000 </r>
       <r>   48.4168    0.0000 </r>
       <r>   49.3703    0.0000 </r>
       <r>   50.7583    0.0000 </r>
       <r>   51.3689    0.0000 </r>
       <r>   52.9344    0.0000 </r>
       <r>   55.5579    0.0000 </r>
       <r>   56.3735    0.0000 </r>
       <r>   56.6068    0.0000 </r>
       <r>   59.2226    0.0000 </r>
       <r>   59.2347    0.0000 </r>
       <r>   62.0325    0.0000 </r>
       <r>   62.6337    0.0000 </r>
       <r>   64.7624    0.0000 </r>
       <r>   65.2006    0.0000 </r>
       <r>   66.7400    0.0000 </r>
       <r>   67.1559    0.0000 </r>
      </set>
      <set comment="kpoint 30">
       <r>    2.7451    1.0000 </r>
       <r>    2.9806    1.0000 </r>
       <r>    4.1860    1.0000 </r>
       <r>    4.4901    1.0000 </r>
       <r>    5.6511    1.0000 </r>
       <r>    5.9184    1.0000 </r>
       <r>    6.7915    1.0000 </r>
       <r>    7.1620    1.0050 </r>
       <r>    8.3202   -0.0000 </r>
       <r>    8.7293   -0.0000 </r>
       <r>    9.8768   -0.0000 </r>
       <r>   10.7436   -0.0000 </r>
       <r>   20.7106    0.0000 </r>
       <r>   21.5916    0.0000 </r>
       <r>   24.5864    0.0000 </r>
       <r>   25.7869    0.0000 </r>
       <r>   26.0553    0.0000 </r>
       <r>   28.4143    0.0000 </r>
       <r>   35.0143    0.0000 </r>
       <r>   36.8644    0.0000 </r>
       <r>   38.9057    0.0000 </r>
       <r>   40.0714    0.0000 </r>
       <r>   43.0405    0.0000 </r>
       <r>   43.4551    0.0000 </r>
       <r>   50.8001    0.0000 </r>
       <r>   51.5046    0.0000 </r>
       <r>   52.4936    0.0000 </r>
       <r>   54.8565    0.0000 </r>
       <r>   56.5512    0.0000 </r>
       <r>   59.6119    0.0000 </r>
       <r>   60.6364    0.0000 </r>
       <r>   61.2639    0.0000 </r>
       <r>   61.5535    0.0000 </r>
       <r>   62.0077    0.0000 </r>
       <r>   62.9634    0.0000 </r>
       <r>   63.2059    0.0000 </r>
       <r>   65.4612    0.0000 </r>
       <r>   67.6697    0.0000 </r>
       <r>   68.5596    0.0000 </r>
       <r>   69.3855    0.0000 </r>
      </set>
      <set comment="kpoint 31">
       <r>    2.7327    1.0000 </r>
       <r>    2.9786    1.0000 </r>
       <r>    4.0719    1.0000 </r>
       <r>    4.2873    1.0000 </r>
       <r>    5.8352    1.0000 </r>
       <r>    6.4556    1.0000 </r>
       <r>    7.3280    1.0346 </r>
       <r>    7.5395    0.7030 </r>
       <r>    8.4355   -0.0000 </r>
       <r>    8.5907   -0.0000 </r>
       <r>   11.8880   -0.0000 </r>
       <r>   12.5031   -0.0000 </r>
       <r>   17.8195    0.0000 </r>
       <r>   17.8737    0.0000 </r>
       <r>   24.0354    0.0000 </r>
       <r>   25.2749    0.0000 </r>
       <r>   27.7744    0.0000 </r>
       <r>   28.7084    0.0000 </r>
       <r>   33.8961    0.0000 </r>
       <r>   34.7092    0.0000 </r>
       <r>   37.1508    0.0000 </r>
       <r>   38.6243    0.0000 </r>
       <r>   43.6069    0.0000 </r>
       <r>   44.0087    0.0000 </r>
       <r>   52.4107    0.0000 </r>
       <r>   55.0924    0.0000 </r>
       <r>   56.1548    0.0000 </r>
       <r>   57.2573    0.0000 </r>
       <r>   57.6616    0.0000 </r>
       <r>   58.5276    0.0000 </r>
       <r>   58.7027    0.0000 </r>
       <r>   60.2966    0.0000 </r>
       <r>   63.1644    0.0000 </r>
       <r>   63.7543    0.0000 </r>
       <r>   64.7836    0.0000 </r>
       <r>   65.8832    0.0000 </r>
       <r>   66.8751    0.0000 </r>
       <r>   67.1586    0.0000 </r>
       <r>   68.8940    0.0000 </r>
       <r>   70.0070    0.0000 </r>
      </set>
      <set comment="kpoint 32">
       <r>    3.5207    1.0000 </r>
       <r>    3.6392    1.0000 </r>
       <r>    4.3930    1.0000 </r>
       <r>    4.6916    1.0000 </r>
       <r>    5.0381    1.0000 </r>
       <r>    5.3417    1.0000 </r>
       <r>    6.5730    1.0000 </r>
       <r>    6.8849    1.0000 </r>
       <r>    8.3742   -0.0000 </r>
       <r>    8.6171   -0.0000 </r>
       <r>   13.3540    0.0000 </r>
       <r>   14.1478    0.0000 </r>
       <r>   18.4229    0.0000 </r>
       <r>   19.1286    0.0000 </r>
       <r>   20.7437    0.0000 </r>
       <r>   21.2630    0.0000 </r>
       <r>   28.4265    0.0000 </r>
       <r>   30.7988    0.0000 </r>
       <r>   32.9181    0.0000 </r>
       <r>   34.8126    0.0000 </r>
       <r>   37.0698    0.0000 </r>
       <r>   38.3436    0.0000 </r>
       <r>   46.8222    0.0000 </r>
       <r>   47.4947    0.0000 </r>
       <r>   50.9401    0.0000 </r>
       <r>   51.1276    0.0000 </r>
       <r>   56.5352    0.0000 </r>
       <r>   57.1339    0.0000 </r>
       <r>   57.6901    0.0000 </r>
       <r>   59.3641    0.0000 </r>
       <r>   60.2220    0.0000 </r>
       <r>   61.1912    0.0000 </r>
       <r>   61.4863    0.0000 </r>
       <r>   61.5440    0.0000 </r>
       <r>   63.9891    0.0000 </r>
       <r>   64.0931    0.0000 </r>
       <r>   66.4068    0.0000 </r>
       <r>   67.3792    0.0000 </r>
       <r>   68.0975    0.0000 </r>
       <r>   68.1822    0.0000 </r>
      </set>
     </set>
    </set>
   </array>
  </eigenvalues>
  <separator name="orbital magnetization" >
   <v name="MAGDIPOLOUT">      0.00000000      0.00000000      0.00000000</v>
  </separator>
  <dos>
   <i name="efermi">      7.58910756 </i>
   <total>
    <array>
     <dimension dim="1">gridpoints</dimension>
     <dimension dim="2">spin</dimension>
     <field>energy</field>
     <field>total</field>
     <field>integrated</field>
     <set>
      <set comment="spin 1">
       <r>    -5.3425     0.0000     0.0000 </r>
       <r>    -5.0735     0.0000     0.0000 </r>
       <r>    -4.8044     0.0000     0.0000 </r>
       <r>    -4.5354     0.0000     0.0000 </r>
       <r>    -4.2663     0.0000     0.0000 </r>
       <r>    -3.9973     0.0000     0.0000 </r>
       <r>    -3.7283     0.0000     0.0000 </r>
       <r>    -3.4592    -0.0000    -0.0000 </r>
       <r>    -3.1902    -0.0000    -0.0000 </r>
       <r>    -2.9211    -0.0000    -0.0000 </r>
       <r>    -2.6521    -0.0000    -0.0000 </r>
       <r>    -2.3830    -0.0000    -0.0000 </r>
       <r>    -2.1140    -0.0001    -0.0000 </r>
       <r>    -1.8449    -0.0005    -0.0002 </r>
       <r>    -1.5759     0.0241     0.0063 </r>
       <r>    -1.3069     0.0409     0.0173 </r>
       <r>    -1.0378    -0.0045     0.0161 </r>
       <r>    -0.7688     0.1657     0.0607 </r>
       <r>    -0.4997     0.2670     0.1326 </r>
       <r>    -0.2307     0.0185     0.1375 </r>
       <r>     0.0384     0.2585     0.2071 </r>
       <r>     0.3074     0.0321     0.2157 </r>
       <r>     0.5764     0.0154     0.2198 </r>
       <r>     0.8455     0.5103     0.3571 </r>
       <r>     1.1145     0.2013     0.4113 </r>
       <r>     1.3836     0.5331     0.5547 </r>
       <r>     1.6526     0.3093     0.6379 </r>
       <r>     1.9217     0.5220     0.7784 </r>
       <r>     2.1907     0.3728     0.8787 </r>
       <r>     2.4597     0.7808     1.0887 </r>
       <r>     2.7288     2.9549     1.8837 </r>
       <r>     2.9978     2.4231     2.5357 </r>
       <r>     3.2669     1.8337     3.0290 </r>
       <r>     3.5359     2.7746     3.7755 </r>
       <r>     3.8050     2.3573     4.4097 </r>
       <r>     4.0740     2.7460     5.1485 </r>
       <r>     4.3430     2.9375     5.9388 </r>
       <r>     4.6121     2.8337     6.7012 </r>
       <r>     4.8811     2.9193     7.4866 </r>
       <r>     5.1502     1.6756     7.9374 </r>
       <r>     5.4192     2.6258     8.6439 </r>
       <r>     5.6883     4.7882     9.9321 </r>
       <r>     5.9573     2.9554    10.7272 </r>
       <r>     6.2263     3.7086    11.7250 </r>
       <r>     6.4954     4.0818    12.8232 </r>
       <r>     6.7644     3.1142    13.6610 </r>
       <r>     7.0335     2.4932    14.3318 </r>
       <r>     7.3025     2.5481    15.0173 </r>
       <r>     7.5716     3.4188    15.9371 </r>
       <r>     7.8406     3.5551    16.8936 </r>
       <r>     8.1096     3.1099    17.7303 </r>
       <r>     8.3787     3.8547    18.7674 </r>
       <r>     8.6477     4.6562    20.0201 </r>
       <r>     8.9168     3.2999    20.9079 </r>
       <r>     9.1858     0.7908    21.1207 </r>
       <r>     9.4549     0.7017    21.3095 </r>
       <r>     9.7239     1.3051    21.6606 </r>
       <r>     9.9929     0.6759    21.8424 </r>
       <r>    10.2620     0.2660    21.9140 </r>
       <r>    10.5310     0.3481    22.0076 </r>
       <r>    10.8001     0.8783    22.2439 </r>
       <r>    11.0691     0.1699    22.2896 </r>
       <r>    11.3382    -0.0293    22.2818 </r>
       <r>    11.6072     0.1835    22.3311 </r>
       <r>    11.8762     0.7214    22.5252 </r>
       <r>    12.1453     0.5255    22.6666 </r>
       <r>    12.4143     0.7194    22.8602 </r>
       <r>    12.6834     0.7367    23.0584 </r>
       <r>    12.9524     0.2345    23.1215 </r>
       <r>    13.2215     0.3300    23.2102 </r>
       <r>    13.4905     0.3981    23.3174 </r>
       <r>    13.7595     0.4771    23.4457 </r>
       <r>    14.0286     0.2461    23.5119 </r>
       <r>    14.2976     0.7457    23.7126 </r>
       <r>    14.5667     0.1715    23.7587 </r>
       <r>    14.8357    -0.0155    23.7545 </r>
       <r>    15.1048     0.0164    23.7590 </r>
       <r>    15.3738     0.2640    23.8300 </r>
       <r>    15.6429     0.1769    23.8776 </r>
       <r>    15.9119     0.2135    23.9350 </r>
       <r>    16.1809     0.0271    23.9423 </r>
       <r>    16.4500     0.6912    24.1283 </r>
       <r>    16.7190     0.4271    24.2432 </r>
       <r>    16.9881     0.1346    24.2794 </r>
       <r>    17.2571     0.4281    24.3946 </r>
       <r>    17.5262     0.4325    24.5110 </r>
       <r>    17.7952     0.8337    24.7353 </r>
       <r>    18.0642     0.5999    24.8967 </r>
       <r>    18.3333     0.4510    25.0180 </r>
       <r>    18.6023     0.9718    25.2795 </r>
       <r>    18.8714     0.3757    25.3805 </r>
       <r>    19.1404     0.7311    25.5772 </r>
       <r>    19.4095     0.7276    25.7730 </r>
       <r>    19.6785     0.6361    25.9441 </r>
       <r>    19.9475     1.1856    26.2631 </r>
       <r>    20.2166     0.8545    26.4930 </r>
       <r>    20.4856     0.3220    26.5796 </r>
       <r>    20.7547     0.5056    26.7157 </r>
       <r>    21.0237     0.3510    26.8101 </r>
       <r>    21.2928     0.4003    26.9178 </r>
       <r>    21.5618     0.6677    27.0974 </r>
       <r>    21.8308     1.1085    27.3956 </r>
       <r>    22.0999     0.4946    27.5287 </r>
       <r>    22.3689     0.5937    27.6885 </r>
       <r>    22.6380     0.2178    27.7470 </r>
       <r>    22.9070     0.8311    27.9707 </r>
       <r>    23.1761     0.8502    28.1994 </r>
       <r>    23.4451     1.1168    28.4999 </r>
       <r>    23.7141     0.5148    28.6384 </r>
       <r>    23.9832     0.3534    28.7334 </r>
       <r>    24.2522     0.2348    28.7966 </r>
       <r>    24.5213     0.6121    28.9613 </r>
       <r>    24.7903     1.2462    29.2966 </r>
       <r>    25.0594     0.9828    29.5610 </r>
       <r>    25.3284     0.6188    29.7275 </r>
       <r>    25.5974     0.6183    29.8938 </r>
       <r>    25.8665     1.2992    30.2434 </r>
       <r>    26.1355     1.6750    30.6940 </r>
       <r>    26.4046     0.7449    30.8944 </r>
       <r>    26.6736     0.7212    31.0885 </r>
       <r>    26.9427     0.6066    31.2517 </r>
       <r>    27.2117     0.3766    31.3530 </r>
       <r>    27.4807     1.0025    31.6227 </r>
       <r>    27.7498     0.6298    31.7921 </r>
       <r>    28.0188     0.9549    32.0490 </r>
       <r>    28.2879     0.5791    32.2048 </r>
       <r>    28.5569     1.5334    32.6174 </r>
       <r>    28.8260     1.6744    33.0679 </r>
       <r>    29.0950     0.7743    33.2762 </r>
       <r>    29.3640     0.4985    33.4103 </r>
       <r>    29.6331     1.1492    33.7195 </r>
       <r>    29.9021     0.5243    33.8606 </r>
       <r>    30.1712     0.1913    33.9120 </r>
       <r>    30.4402     1.0203    34.1865 </r>
       <r>    30.7093     0.7300    34.3830 </r>
       <r>    30.9783     0.9783    34.6462 </r>
       <r>    31.2473     0.5904    34.8050 </r>
       <r>    31.5164     0.3154    34.8899 </r>
       <r>    31.7854     0.7892    35.1022 </r>
       <r>    32.0545     0.2350    35.1654 </r>
       <r>    32.3235     0.9197    35.4129 </r>
       <r>    32.5926     0.7246    35.6078 </r>
       <r>    32.8616     0.9757    35.8703 </r>
       <r>    33.1307     0.9061    36.1141 </r>
       <r>    33.3997     0.3587    36.2106 </r>
       <r>    33.6687     0.4290    36.3260 </r>
       <r>    33.9378     2.0613    36.8806 </r>
       <r>    34.2068     1.0015    37.1500 </r>
       <r>    34.4759     0.4138    37.2613 </r>
       <r>    34.7449     0.6953    37.4484 </r>
       <r>    35.0140     1.6341    37.8880 </r>
       <r>    35.2830     0.6072    38.0514 </r>
       <r>    35.5520    -0.0156    38.0472 </r>
       <r>    35.8211     0.3998    38.1548 </r>
       <r>    36.0901     0.9938    38.4221 </r>
       <r>    36.3592     0.5996    38.5835 </r>
       <r>    36.6282     0.9744    38.8456 </r>
       <r>    36.8973     1.1174    39.1463 </r>
       <r>    37.1663     1.0691    39.4339 </r>
       <r>    37.4353     0.8987    39.6757 </r>
       <r>    37.7044     0.3537    39.7708 </r>
       <r>    37.9734     0.4374    39.8885 </r>
       <r>    38.2425     0.9454    40.1429 </r>
       <r>    38.5115     1.1621    40.4555 </r>
       <r>    38.7806     0.9491    40.7109 </r>
       <r>    39.0496     2.2239    41.3092 </r>
       <r>    39.3186     1.1326    41.6139 </r>
       <r>    39.5877     0.6352    41.7848 </r>
       <r>    39.8567     0.5825    41.9416 </r>
       <r>    40.1258     0.9303    42.1919 </r>
       <r>    40.3948     0.4495    42.3128 </r>
       <r>    40.6639     1.4265    42.6966 </r>
       <r>    40.9329     0.8892    42.9358 </r>
       <r>    41.2019     0.2709    43.0087 </r>
       <r>    41.4710     0.5238    43.1496 </r>
       <r>    41.7400     0.5255    43.2910 </r>
       <r>    42.0091     0.2505    43.3584 </r>
       <r>    42.2781     0.4355    43.4755 </r>
       <r>    42.5472     1.0785    43.7657 </r>
       <r>    42.8162     1.4262    44.1494 </r>
       <r>    43.0852     1.1378    44.4555 </r>
       <r>    43.3543     0.7012    44.6442 </r>
       <r>    43.6233     1.2444    44.9790 </r>
       <r>    43.8924     0.7526    45.1814 </r>
       <r>    44.1614     1.0123    45.4538 </r>
       <r>    44.4305     1.1897    45.7739 </r>
       <r>    44.6995     1.4146    46.1545 </r>
       <r>    44.9685     0.8387    46.3801 </r>
       <r>    45.2376     1.1560    46.6911 </r>
       <r>    45.5066     1.4807    47.0895 </r>
       <r>    45.7757     1.2821    47.4345 </r>
       <r>    46.0447     0.6418    47.6071 </r>
       <r>    46.3138     1.1170    47.9076 </r>
       <r>    46.5828     0.0418    47.9189 </r>
       <r>    46.8518     0.4050    48.0279 </r>
       <r>    47.1209     1.1450    48.3359 </r>
       <r>    47.3899     0.7406    48.5352 </r>
       <r>    47.6590     1.0126    48.8076 </r>
       <r>    47.9280     1.3557    49.1724 </r>
       <r>    48.1971     0.9483    49.4275 </r>
       <r>    48.4661     1.1106    49.7263 </r>
       <r>    48.7351     0.6896    49.9118 </r>
       <r>    49.0042     1.0269    50.1881 </r>
       <r>    49.2732     1.1408    50.4950 </r>
       <r>    49.5423     0.5824    50.6517 </r>
       <r>    49.8113     1.4781    51.0494 </r>
       <r>    50.0804     1.1534    51.3597 </r>
       <r>    50.3494     0.3988    51.4670 </r>
       <r>    50.6185     0.8536    51.6967 </r>
       <r>    50.8875     1.2328    52.0284 </r>
       <r>    51.1565     0.6432    52.2014 </r>
       <r>    51.4256     1.1731    52.5170 </r>
       <r>    51.6946     1.7689    52.9929 </r>
       <r>    51.9637     1.1619    53.3055 </r>
       <r>    52.2327     0.8887    53.5446 </r>
       <r>    52.5018     1.5712    53.9674 </r>
       <r>    52.7708     1.2127    54.2936 </r>
       <r>    53.0398     1.4943    54.6957 </r>
       <r>    53.3089     1.1007    54.9918 </r>
       <r>    53.5779     1.1464    55.3002 </r>
       <r>    53.8470     0.8161    55.5198 </r>
       <r>    54.1160     0.7486    55.7212 </r>
       <r>    54.3851     0.7961    55.9354 </r>
       <r>    54.6541     1.0801    56.2260 </r>
       <r>    54.9231     0.6944    56.4128 </r>
       <r>    55.1922     0.5551    56.5622 </r>
       <r>    55.4612     0.6084    56.7258 </r>
       <r>    55.7303     0.2553    56.7945 </r>
       <r>    55.9993     0.7426    56.9943 </r>
       <r>    56.2684     1.8981    57.5050 </r>
       <r>    56.5374     2.6887    58.2284 </r>
       <r>    56.8064     1.7006    58.6859 </r>
       <r>    57.0755     1.3750    59.0559 </r>
       <r>    57.3445     1.0212    59.3306 </r>
       <r>    57.6136     1.4362    59.7170 </r>
       <r>    57.8826     1.5609    60.1370 </r>
       <r>    58.1517     1.8920    60.6460 </r>
       <r>    58.4207     1.5894    61.0736 </r>
       <r>    58.6897     1.8265    61.5650 </r>
       <r>    58.9588     1.5940    61.9939 </r>
       <r>    59.2278     1.1733    62.3095 </r>
       <r>    59.4969     1.5861    62.7362 </r>
       <r>    59.7659     1.4860    63.1360 </r>
       <r>    60.0350     1.9646    63.6646 </r>
       <r>    60.3040     1.2741    64.0074 </r>
       <r>    60.5730     1.5523    64.4250 </r>
       <r>    60.8421     1.9885    64.9600 </r>
       <r>    61.1111     1.9838    65.4938 </r>
       <r>    61.3802     2.3361    66.1223 </r>
       <r>    61.6492     2.3018    66.7415 </r>
       <r>    61.9183     2.1553    67.3214 </r>
       <r>    62.1873     1.6601    67.7680 </r>
       <r>    62.4563     0.6391    67.9400 </r>
       <r>    62.7254     1.5503    68.3571 </r>
       <r>    62.9944     1.8891    68.8653 </r>
       <r>    63.2635     1.5143    69.2728 </r>
       <r>    63.5325     1.8692    69.7757 </r>
       <r>    63.8016     2.4665    70.4392 </r>
       <r>    64.0706     1.5373    70.8528 </r>
       <r>    64.3396     1.6463    71.2958 </r>
       <r>    64.6087     0.6801    71.4787 </r>
       <r>    64.8777     1.2964    71.8275 </r>
       <r>    65.1468     1.2694    72.1691 </r>
       <r>    65.4158     2.1655    72.7517 </r>
       <r>    65.6849     1.3888    73.1253 </r>
       <r>    65.9539     1.4030    73.5028 </r>
       <r>    66.2229     1.1528    73.8129 </r>
       <r>    66.4920     1.4982    74.2160 </r>
       <r>    66.7610     1.9796    74.7486 </r>
       <r>    67.0301     2.3037    75.3684 </r>
       <r>    67.2991     2.0152    75.9106 </r>
       <r>    67.5682     1.5399    76.3249 </r>
       <r>    67.8372     1.6374    76.7655 </r>
       <r>    68.1063     1.0826    77.0567 </r>
       <r>    68.3753     1.2934    77.4047 </r>
       <r>    68.6443     2.0482    77.9558 </r>
       <r>    68.9134     1.4459    78.3447 </r>
       <r>    69.1824     0.9475    78.5997 </r>
       <r>    69.4515     1.7696    79.0758 </r>
       <r>    69.7205     0.8503    79.3045 </r>
       <r>    69.9896     0.8401    79.5306 </r>
       <r>    70.2586     0.6987    79.7186 </r>
       <r>    70.5276     0.7632    79.9239 </r>
       <r>    70.7967     0.1669    79.9688 </r>
       <r>    71.0657    -0.0140    79.9650 </r>
       <r>    71.3348    -0.0018    79.9646 </r>
       <r>    71.6038     0.0194    79.9698 </r>
       <r>    71.8729     0.1128    80.0001 </r>
       <r>    72.1419     0.0001    80.0001 </r>
       <r>    72.4109    -0.0005    80.0000 </r>
       <r>    72.6800    -0.0000    80.0000 </r>
       <r>    72.9490    -0.0000    80.0000 </r>
       <r>    73.2181     0.0000    80.0000 </r>
       <r>    73.4871     0.0000    80.0000 </r>
       <r>    73.7562     0.0000    80.0000 </r>
       <r>    74.0252     0.0000    80.0000 </r>
       <r>    74.2942     0.0000    80.0000 </r>
       <r>    74.5633     0.0000    80.0000 </r>
       <r>    74.8323     0.0000    80.0000 </r>
       <r>    75.1014     0.0000    80.0000 </r>
       <r>    75.3704     0.0000    80.0000 </r>
      </set>
     </set>
    </array>
   </total>
  </dos>
 </calculation>
 <structure name="finalpos" >
  <crystal>
   <varray name="basis" >
    <v>       2.33000000       0.00000000       0.00000000 </v>
    <v>      -1.16500000       2.01783919       0.00000000 </v>
    <v>       0.00000000       0.00000000       4.10000000 </v>
   </varray>
   <i name="volume">     19.27641779 </i>
   <varray name="rec_basis" >
    <v>       0.42918455       0.24778982       0.00000000 </v>
    <v>       0.00000000       0.49557963       0.00000000 </v>
    <v>       0.00000000       0.00000000       0.24390244 </v>
   </varray>
  </crystal>
  <varray name="positions" >
   <v>       0.00000000       0.00000000       0.00000000 </v>
   <v>       0.33333333       0.66666667       0.50000000 </v>
  </varray>
 </structure>
</modeling>
