unknown system                          
   1.00000000000000     
     3.609377    0.000000    0.000000
     0.000000    3.609377    0.000000
     0.000000    0.000000    3.609377
   Fe
     4
Direct
  0.000000  0.000000  0.000000
  0.500000  0.500000  0.000000
  0.500000  0.000000  0.500000
  0.000000  0.500000  0.500000
 
   32   32   32
  396.44      376.85      323.92      252.05      177.34      112.23      63.845      34.176      20.365      15.504    
  12.767      10.941      9.8231      9.1737      8.7642      8.4807      8.3682      8.4807      8.7642      9.1737    
  9.8231      10.941      12.767      15.504      20.365      34.176      63.845      112.23      177.34      252.05    
  323.92      376.85      376.85      358.21      307.84      239.41      168.28      106.39      60.597      32.757    
  19.963      15.416      12.752      10.981      9.8966      9.2644      8.8649      8.5895      8.4807      8.5895    
  8.8649      9.2644      9.8966      10.981      12.752      15.416      19.963      32.757      60.597      106.39    
  168.28      239.41      307.84      358.21      323.92      307.84      264.35      205.21      143.80      90.705    
  51.998      29.099      18.968      15.169      12.713      11.092      10.094      9.5020      9.1232      8.8649    
  8.7642      8.8649      9.1232      9.5020      10.094      11.092      12.713      15.169      18.968      29.099    
  51.998      90.705      143.80      205.21      264.35      307.84      252.05      239.41      205.21      158.74    
  110.73      69.838      40.910      24.649      17.844      14.811      12.673      11.270      10.393      9.8554    
  9.5020      9.2644      9.1737      9.2644      9.5020      9.8554      10.393      11.270      12.673      14.811    
  17.844      24.649      40.910      69.838      110.73      158.74      205.21      239.41      177.34      168.28    
  143.80      110.73      77.068      49.231      30.560      20.876      16.882      14.421      12.685      11.556    
  10.843      10.393      10.094      9.8966      9.8231      9.8966      10.094      10.393      10.843      11.556    
  12.685      14.421      16.882      20.876      30.560      49.231      77.068      110.73      143.80      168.28    
  112.23      106.39      90.705      69.838      49.231      33.087      23.159      18.459      15.976      14.099    
  12.831      12.036      11.556      11.270      11.092      10.981      10.941      10.981      11.092      11.270    
  11.556      12.036      12.831      14.099      15.976      18.459      23.159      33.087      49.231      69.838    
  90.705      106.39      63.845      60.597      51.998      40.910      30.560      23.159      19.094      16.902    
  15.176      13.954      13.212      12.831      12.685      12.673      12.713      12.752      12.767      12.752    
  12.713      12.673      12.685      12.831      13.212      13.954      15.176      16.902      19.094      23.159    
  30.560      40.910      51.998      60.597      34.176      32.757      29.099      24.649      20.876      18.459    
  16.902      15.584      14.627      14.097      13.954      14.099      14.421      14.811      15.169      15.416    
  15.504      15.416      15.169      14.811      14.421      14.099      13.954      14.097      14.627      15.584    
  16.902      18.459      20.876      24.649      29.099      32.757      20.365      19.963      18.968      17.844    
  16.882      15.976      15.176      14.627      14.431      14.627      15.176      15.976      16.882      17.844    
  18.968      19.963      20.365      19.963      18.968      17.844      16.882      15.976      15.176      14.627    
  14.431      14.627      15.176      15.976      16.882      17.844      18.968      19.963      15.504      15.416    
  15.169      14.811      14.421      14.099      13.954      14.097      14.627      15.584      16.902      18.459    
  20.876      24.649      29.099      32.757      34.176      32.757      29.099      24.649      20.876      18.459    
  16.902      15.584      14.627      14.097      13.954      14.099      14.421      14.811      15.169      15.416    
  12.767      12.752      12.713      12.673      12.685      12.831      13.212      13.954      15.176      16.902    
  19.094      23.159      30.560      40.910      51.998      60.597      63.845      60.597      51.998      40.910    
  30.560      23.159      19.094      16.902      15.176      13.954      13.212      12.831      12.685      12.673    
  12.713      12.752      10.941      10.981      11.092      11.270      11.556      12.036      12.831      14.099    
  15.976      18.459      23.159      33.087      49.231      69.838      90.705      106.39      112.23      106.39    
  90.705      69.838      49.231      33.087      23.159      18.459      15.976      14.099      12.831      12.036    
  11.556      11.270      11.092      10.981      9.8231      9.8966      10.094      10.393      10.843      11.556    
  12.685      14.421      16.882      20.876      30.560      49.231      77.068      110.73      143.80      168.28    
  177.34      168.28      143.80      110.73      77.068      49.231      30.560      20.876      16.882      14.421    
  12.685      11.556      10.843      10.393      10.094      9.8966      9.1737      9.2644      9.5020      9.8554    
  10.393      11.270      12.673      14.811      17.844      24.649      40.910      69.838      110.73      158.74    
  205.21      239.41      252.05      239.41      205.21      158.74      110.73      69.838      40.910      24.649    
  17.844      14.811      12.673      11.270      10.393      9.8554      9.5020      9.2644      8.7642      8.8649    
  9.1232      9.5020      10.094      11.092      12.713      15.169      18.968      29.099      51.998      90.705    
  143.80      205.21      264.35      307.84      323.92      307.84      264.35      205.21      143.80      90.705    
  51.998      29.099      18.968      15.169      12.713      11.092      10.094      9.5020      9.1232      8.8649    
  8.4807      8.5895      8.8649      9.2644      9.8966      10.981      12.752      15.416      19.963      32.757    
  60.597      106.39      168.28      239.41      307.84      358.21      376.85      358.21      307.84      239.41    
  168.28      106.39      60.597      32.757      19.963      15.416      12.752      10.981      9.8966      9.2644    
  8.8649      8.5895      8.3682      8.4807      8.7642      9.1737      9.8231      10.941      12.767      15.504    
  20.365      34.176      63.845      112.23      177.34      252.05      323.92      376.85      396.44      376.85    
  323.92      252.05      177.34      112.23      63.845      34.176      20.365      15.504      12.767      10.941    
  9.8231      9.1737      8.7642      8.4807      8.4807      8.5895      8.8649      9.2644      9.8966      10.981    
  12.752      15.416      19.963      32.757      60.597      106.39      168.28      239.41      307.84      358.21    
  376.85      358.21      307.84      239.41      168.28      106.39      60.597      32.757      19.963      15.416    
  12.752      10.981      9.8966      9.2644      8.8649      8.5895      8.7642      8.8649      9.1232      9.5020    
  10.094      11.092      12.713      15.169      18.968      29.099      51.998      90.705      143.80      205.21    
  264.35      307.84      323.92      307.84      264.35      205.21      143.80      90.705      51.998      29.099    
  18.968      15.169      12.713      11.092      10.094      9.5020      9.1232      8.8649      9.1737      9.2644    
  9.5020      9.8554      10.393      11.270      12.673      14.811      17.844      24.649      40.910      69.838    
  110.73      158.74      205.21      239.41      252.05      239.41      205.21      158.74      110.73      69.838    
  40.910      24.649      17.844      14.811      12.673      11.270      10.393      9.8554      9.5020      9.2644    
  9.8231      9.8966      10.094      10.393      10.843      11.556      12.685      14.421      16.882      20.876    
  30.560      49.231      77.068      110.73      143.80      168.28      177.34      168.28      143.80      110.73    
  77.068      49.231      30.560      20.876      16.882      14.421      12.685      11.556      10.843      10.393    
  10.094      9.8966      10.941      10.981      11.092      11.270      11.556      12.036      12.831      14.099    
  15.976      18.459      23.159      33.087      49.231      69.838      90.705      106.39      112.23      106.39    
  90.705      69.838      49.231      33.087      23.159      18.459      15.976      14.099      12.831      12.036    
  11.556      11.270      11.092      10.981      12.767      12.752      12.713      12.673      12.685      12.831    
  13.212      13.954      15.176      16.902      19.094      23.159      30.560      40.910      51.998      60.597    
  63.845      60.597      51.998      40.910      30.560      23.159      19.094      16.902      15.176      13.954    
  13.212      12.831      12.685      12.673      12.713      12.752      15.504      15.416      15.169      14.811    
  14.421      14.099      13.954      14.097      14.627      15.584      16.902      18.459      20.876      24.649    
  29.099      32.757      34.176      32.757      29.099      24.649      20.876      18.459      16.902      15.584    
  14.627      14.097      13.954      14.099      14.421      14.811      15.169      15.416      20.365      19.963    
  18.968      17.844      16.882      15.976      15.176      14.627      14.431      14.627      15.176      15.976    
  16.882      17.844      18.968      19.963      20.365      19.963      18.968      17.844      16.882      15.976    
  15.176      14.627      14.431      14.627      15.176      15.976      16.882      17.844      18.968      19.963    
  34.176      32.757      29.099      24.649      20.876      18.459      16.902      15.584      14.627      14.097    
  13.954      14.099      14.421      14.811      15.169      15.416      15.504      15.416      15.169      14.811    
  14.421      14.099      13.954      14.097      14.627      15.584      16.902      18.459      20.876      24.649    
  29.099      32.757      63.845      60.597      51.998      40.910      30.560      23.159      19.094      16.902    
  15.176      13.954      13.212      12.831      12.685      12.673      12.713      12.752      12.767      12.752    
  12.713      12.673      12.685      12.831      13.212      13.954      15.176      16.902      19.094      23.159    
  30.560      40.910      51.998      60.597      112.23      106.39      90.705      69.838      49.231      33.087    
  23.159      18.459      15.976      14.099      12.831      12.036      11.556      11.270      11.092      10.981    
  10.941      10.981      11.092      11.270      11.556      12.036      12.831      14.099      15.976      18.459    
  23.159      33.087      49.231      69.838      90.705      106.39      177.34      168.28      143.80      110.73    
  77.068      49.231      30.560      20.876      16.882      14.421      12.685      11.556      10.843      10.393    
  10.094      9.8966      9.8231      9.8966      10.094      10.393      10.843      11.556      12.685      14.421    
  16.882      20.876      30.560      49.231      77.068      110.73      143.80      168.28      252.05      239.41    
  205.21      158.74      110.73      69.838      40.910      24.649      17.844      14.811      12.673      11.270    
  10.393      9.8554      9.5020      9.2644      9.1737      9.2644      9.5020      9.8554      10.393      11.270    
  12.673      14.811      17.844      24.649      40.910      69.838      110.73      158.74      205.21      239.41    
  323.92      307.84      264.35      205.21      143.80      90.705      51.998      29.099      18.968      15.169    
  12.713      11.092      10.094      9.5020      9.1232      8.8649      8.7642      8.8649      9.1232      9.5020    
  10.094      11.092      12.713      15.169      18.968      29.099      51.998      90.705      143.80      205.21    
  264.35      307.84      376.85      358.21      307.84      239.41      168.28      106.39      60.597      32.757    
  19.963      15.416      12.752      10.981      9.8966      9.2644      8.8649      8.5895      8.4807      8.5895    
  8.8649      9.2644      9.8966      10.981      12.752      15.416      19.963      32.757      60.597      106.39    
  168.28      239.41      307.84      358.21      376.85      358.21      307.84      239.41      168.28      106.39    
  60.597      32.757      19.963      15.416      12.752      10.981      9.8966      9.2644      8.8649      8.5895    
  8.4807      8.5895      8.8649      9.2644      9.8966      10.981      12.752      15.416      19.963      32.757    
  60.597      106.39      168.28      239.41      307.84      358.21      358.21      340.47      292.54      227.38    
  159.66      100.85      57.539      31.437      19.593      15.328      12.736      11.019      9.9672      9.3518    
  8.9623      8.6948      8.5895      8.6948      8.9623      9.3518      9.9672      11.019      12.736      15.328    
  19.593      31.437      57.539      100.85      159.66      227.38      292.54      340.47      307.84      292.54    
  251.14      194.83      136.40      85.998      49.452      28.039      18.681      15.080      12.694      11.124    
  10.157      9.5819      9.2130      8.9623      8.8649      8.9623      9.2130      9.5819      10.157      11.124    
  12.694      15.080      18.681      28.039      49.452      85.998      136.40      194.83      251.14      292.54    
  239.41      227.38      194.83      150.62      105.00      66.274      39.056      23.922      17.643      14.722    
  12.650      11.294      10.447      9.9253      9.5819      9.3518      9.2644      9.3518      9.5819      9.9253    
  10.447      11.294      12.650      14.722      17.643      23.922      39.056      66.274      105.00      150.62    
  194.83      227.38      168.28      159.66      136.40      105.00      73.113      46.865      29.404      20.452    
  16.723      14.334      12.657      11.569      10.882      10.447      10.157      9.9672      9.8966      9.9672    
  10.157      10.447      10.882      11.569      12.657      14.334      16.723      20.452      29.404      46.865    
  73.113      105.00      136.40      159.66      106.39      100.85      85.998      66.274      46.865      31.758    
  22.558      18.223      15.829      14.014      12.793      12.030      11.569      11.294      11.124      11.019    
  10.981      11.019      11.124      11.294      11.569      12.030      12.793      14.014      15.829      18.223    
  22.558      31.758      46.865      66.274      85.998      100.85      60.597      57.539      49.452      39.056    
  29.404      22.558      18.817      16.718      15.046      13.868      13.157      12.793      12.657      12.650    
  12.694      12.736      12.752      12.736      12.694      12.650      12.657      12.793      13.157      13.868    
  15.046      16.718      18.817      22.558      29.404      39.056      49.452      57.539      32.757      31.437    
  28.039      23.922      20.452      18.223      16.718      15.435      14.510      14.002      13.868      14.014    
  14.334      14.722      15.080      15.328      15.416      15.328      15.080      14.722      14.334      14.014    
  13.868      14.002      14.510      15.435      16.718      18.223      20.452      23.922      28.039      31.437    
  19.963      19.593      18.681      17.643      16.723      15.829      15.046      14.510      14.320      14.510    
  15.046      15.829      16.723      17.643      18.681      19.593      19.963      19.593      18.681      17.643    
  16.723      15.829      15.046      14.510      14.320      14.510      15.046      15.829      16.723      17.643    
  18.681      19.593      15.416      15.328      15.080      14.722      14.334      14.014      13.868      14.002    
  14.510      15.435      16.718      18.223      20.452      23.922      28.039      31.437      32.757      31.437    
  28.039      23.922      20.452      18.223      16.718      15.435      14.510      14.002      13.868      14.014    
  14.334      14.722      15.080      15.328      12.752      12.736      12.694      12.650      12.657      12.793    
  13.157      13.868      15.046      16.718      18.817      22.558      29.404      39.056      49.452      57.539    
  60.597      57.539      49.452      39.056      29.404      22.558      18.817      16.718      15.046      13.868    
  13.157      12.793      12.657      12.650      12.694      12.736      10.981      11.019      11.124      11.294    
  11.569      12.030      12.793      14.014      15.829      18.223      22.558      31.758      46.865      66.274    
  85.998      100.85      106.39      100.85      85.998      66.274      46.865      31.758      22.558      18.223    
  15.829      14.014      12.793      12.030      11.569      11.294      11.124      11.019      9.8966      9.9672    
  10.157      10.447      10.882      11.569      12.657      14.334      16.723      20.452      29.404      46.865    
  73.113      105.00      136.40      159.66      168.28      159.66      136.40      105.00      73.113      46.865    
  29.404      20.452      16.723      14.334      12.657      11.569      10.882      10.447      10.157      9.9672    
  9.2644      9.3518      9.5819      9.9253      10.447      11.294      12.650      14.722      17.643      23.922    
  39.056      66.274      105.00      150.62      194.83      227.38      239.41      227.38      194.83      150.62    
  105.00      66.274      39.056      23.922      17.643      14.722      12.650      11.294      10.447      9.9253    
  9.5819      9.3518      8.8649      8.9623      9.2130      9.5819      10.157      11.124      12.694      15.080    
  18.681      28.039      49.452      85.998      136.40      194.83      251.14      292.54      307.84      292.54    
  251.14      194.83      136.40      85.998      49.452      28.039      18.681      15.080      12.694      11.124    
  10.157      9.5819      9.2130      8.9623      8.5895      8.6948      8.9623      9.3518      9.9672      11.019    
  12.736      15.328      19.593      31.437      57.539      100.85      159.66      227.38      292.54      340.47    
  358.21      340.47      292.54      227.38      159.66      100.85      57.539      31.437      19.593      15.328    
  12.736      11.019      9.9672      9.3518      8.9623      8.6948      8.4807      8.5895      8.8649      9.2644    
  9.8966      10.981      12.752      15.416      19.963      32.757      60.597      106.39      168.28      239.41    
  307.84      358.21      376.85      358.21      307.84      239.41      168.28      106.39      60.597      32.757    
  19.963      15.416      12.752      10.981      9.8966      9.2644      8.8649      8.5895      8.5895      8.6948    
  8.9623      9.3518      9.9672      11.019      12.736      15.328      19.593      31.437      57.539      100.85    
  159.66      227.38      292.54      340.47      358.21      340.47      292.54      227.38      159.66      100.85    
  57.539      31.437      19.593      15.328      12.736      11.019      9.9672      9.3518      8.9623      8.6948    
  8.8649      8.9623      9.2130      9.5819      10.157      11.124      12.694      15.080      18.681      28.039    
  49.452      85.998      136.40      194.83      251.14      292.54      307.84      292.54      251.14      194.83    
  136.40      85.998      49.452      28.039      18.681      15.080      12.694      11.124      10.157      9.5819    
  9.2130      8.9623      9.2644      9.3518      9.5819      9.9253      10.447      11.294      12.650      14.722    
  17.643      23.922      39.056      66.274      105.00      150.62      194.83      227.38      239.41      227.38    
  194.83      150.62      105.00      66.274      39.056      23.922      17.643      14.722      12.650      11.294    
  10.447      9.9253      9.5819      9.3518      9.8966      9.9672      10.157      10.447      10.882      11.569    
  12.657      14.334      16.723      20.452      29.404      46.865      73.113      105.00      136.40      159.66    
  168.28      159.66      136.40      105.00      73.113      46.865      29.404      20.452      16.723      14.334    
  12.657      11.569      10.882      10.447      10.157      9.9672      10.981      11.019      11.124      11.294    
  11.569      12.030      12.793      14.014      15.829      18.223      22.558      31.758      46.865      66.274    
  85.998      100.85      106.39      100.85      85.998      66.274      46.865      31.758      22.558      18.223    
  15.829      14.014      12.793      12.030      11.569      11.294      11.124      11.019      12.752      12.736    
  12.694      12.650      12.657      12.793      13.157      13.868      15.046      16.718      18.817      22.558    
  29.404      39.056      49.452      57.539      60.597      57.539      49.452      39.056      29.404      22.558    
  18.817      16.718      15.046      13.868      13.157      12.793      12.657      12.650      12.694      12.736    
  15.416      15.328      15.080      14.722      14.334      14.014      13.868      14.002      14.510      15.435    
  16.718      18.223      20.452      23.922      28.039      31.437      32.757      31.437      28.039      23.922    
  20.452      18.223      16.718      15.435      14.510      14.002      13.868      14.014      14.334      14.722    
  15.080      15.328      19.963      19.593      18.681      17.643      16.723      15.829      15.046      14.510    
  14.320      14.510      15.046      15.829      16.723      17.643      18.681      19.593      19.963      19.593    
  18.681      17.643      16.723      15.829      15.046      14.510      14.320      14.510      15.046      15.829    
  16.723      17.643      18.681      19.593      32.757      31.437      28.039      23.922      20.452      18.223    
  16.718      15.435      14.510      14.002      13.868      14.014      14.334      14.722      15.080      15.328    
  15.416      15.328      15.080      14.722      14.334      14.014      13.868      14.002      14.510      15.435    
  16.718      18.223      20.452      23.922      28.039      31.437      60.597      57.539      49.452      39.056    
  29.404      22.558      18.817      16.718      15.046      13.868      13.157      12.793      12.657      12.650    
  12.694      12.736      12.752      12.736      12.694      12.650      12.657      12.793      13.157      13.868    
  15.046      16.718      18.817      22.558      29.404      39.056      49.452      57.539      106.39      100.85    
  85.998      66.274      46.865      31.758      22.558      18.223      15.829      14.014      12.793      12.030    
  11.569      11.294      11.124      11.019      10.981      11.019      11.124      11.294      11.569      12.030    
  12.793      14.014      15.829      18.223      22.558      31.758      46.865      66.274      85.998      100.85    
  168.28      159.66      136.40      105.00      73.113      46.865      29.404      20.452      16.723      14.334    
  12.657      11.569      10.882      10.447      10.157      9.9672      9.8966      9.9672      10.157      10.447    
  10.882      11.569      12.657      14.334      16.723      20.452      29.404      46.865      73.113      105.00    
  136.40      159.66      239.41      227.38      194.83      150.62      105.00      66.274      39.056      23.922    
  17.643      14.722      12.650      11.294      10.447      9.9253      9.5819      9.3518      9.2644      9.3518    
  9.5819      9.9253      10.447      11.294      12.650      14.722      17.643      23.922      39.056      66.274    
  105.00      150.62      194.83      227.38      307.84      292.54      251.14      194.83      136.40      85.998    
  49.452      28.039      18.681      15.080      12.694      11.124      10.157      9.5819      9.2130      8.9623    
  8.8649      8.9623      9.2130      9.5819      10.157      11.124      12.694      15.080      18.681      28.039    
  49.452      85.998      136.40      194.83      251.14      292.54      358.21      340.47      292.54      227.38    
  159.66      100.85      57.539      31.437      19.593      15.328      12.736      11.019      9.9672      9.3518    
  8.9623      8.6948      8.5895      8.6948      8.9623      9.3518      9.9672      11.019      12.736      15.328    
  19.593      31.437      57.539      100.85      159.66      227.38      292.54      340.47      323.92      307.84    
  264.35      205.21      143.80      90.705      51.998      29.099      18.968      15.169      12.713      11.092    
  10.094      9.5020      9.1232      8.8649      8.7642      8.8649      9.1232      9.5020      10.094      11.092    
  12.713      15.169      18.968      29.099      51.998      90.705      143.80      205.21      264.35      307.84    
  307.84      292.54      251.14      194.83      136.40      85.998      49.452      28.039      18.681      15.080    
  12.694      11.124      10.157      9.5819      9.2130      8.9623      8.8649      8.9623      9.2130      9.5819    
  10.157      11.124      12.694      15.080      18.681      28.039      49.452      85.998      136.40      194.83    
  251.14      292.54      264.35      251.14      215.39      166.76      116.44      73.407      42.750      25.326    
  17.968      14.831      12.646      11.215      10.330      9.7944      9.4469      9.2130      9.1232      9.2130    
  9.4469      9.7944      10.330      11.215      12.646      14.831      17.968      25.326      42.750      73.407    
  116.44      166.76      215.39      251.14      205.21      194.83      166.76      128.69      89.603      56.791    
  34.216      22.081      17.127      14.477      12.593      11.365      10.595      10.114      9.7944      9.5819    
  9.5020      9.5819      9.7944      10.114      10.595      11.365      12.593      14.477      17.127      22.081    
  34.216      56.791      89.603      128.69      166.76      194.83      143.80      136.40      116.44      89.603    
  62.556      40.633      26.425      19.383      16.279      14.097      12.586      11.609      10.990      10.595    
  10.330      10.157      10.094      10.157      10.330      10.595      10.990      11.609      12.586      14.097    
  16.279      19.383      26.425      40.633      62.556      89.603      116.44      136.40      90.705      85.998    
  73.407      56.791      40.633      28.312      21.033      17.599      15.423      13.785      12.696      12.018    
  11.609      11.365      11.215      11.124      11.092      11.124      11.215      11.365      11.609      12.018    
  12.696      13.785      15.423      17.599      21.033      28.312      40.633      56.791      73.407      85.998    
  51.998      49.452      42.750      34.216      26.425      21.033      18.094      16.208      14.688      13.636    
  13.009      12.696      12.586      12.593      12.646      12.694      12.713      12.694      12.646      12.593    
  12.586      12.696      13.009      13.636      14.688      16.208      18.094      21.033      26.425      34.216    
  42.750      49.452      29.099      28.039      25.326      22.081      19.383      17.599      16.208      15.027    
  14.193      13.743      13.636      13.785      14.097      14.477      14.831      15.080      15.169      15.080    
  14.831      14.477      14.097      13.785      13.636      13.743      14.193      15.027      16.208      17.599    
  19.383      22.081      25.326      28.039      18.968      18.681      17.968      17.127      16.279      15.423    
  14.688      14.193      14.018      14.193      14.688      15.423      16.279      17.127      17.968      18.681    
  18.968      18.681      17.968      17.127      16.279      15.423      14.688      14.193      14.018      14.193    
  14.688      15.423      16.279      17.127      17.968      18.681      15.169      15.080      14.831      14.477    
  14.097      13.785      13.636      13.743      14.193      15.027      16.208      17.599      19.383      22.081    
  25.326      28.039      29.099      28.039      25.326      22.081      19.383      17.599      16.208      15.027    
  14.193      13.743      13.636      13.785      14.097      14.477      14.831      15.080      12.713      12.694    
  12.646      12.593      12.586      12.696      13.009      13.636      14.688      16.208      18.094      21.033    
  26.425      34.216      42.750      49.452      51.998      49.452      42.750      34.216      26.425      21.033    
  18.094      16.208      14.688      13.636      13.009      12.696      12.586      12.593      12.646      12.694    
  11.092      11.124      11.215      11.365      11.609      12.018      12.696      13.785      15.423      17.599    
  21.033      28.312      40.633      56.791      73.407      85.998      90.705      85.998      73.407      56.791    
  40.633      28.312      21.033      17.599      15.423      13.785      12.696      12.018      11.609      11.365    
  11.215      11.124      10.094      10.157      10.330      10.595      10.990      11.609      12.586      14.097    
  16.279      19.383      26.425      40.633      62.556      89.603      116.44      136.40      143.80      136.40    