   4   4   0   0
  0.1175539E+02  0.3609378E-09  0.3609378E-09  0.3609378E-09  0.5000000E-15
  1.000000000000000E-004
  CAR 
 unknown system                          
     35.17594854     -4.70374430  301      5.34353348      1.00000000
     -4.704  0.0000E+00  0.0000E+00
     -4.571  0.0000E+00  0.0000E+00
     -4.438  0.0000E+00  0.0000E+00
     -4.305 -0.3722E-29 -0.4948E-30
     -4.172 -0.9200E-25 -0.1223E-25
     -4.039 -0.9331E-21 -0.1241E-21
     -3.906 -0.3881E-17 -0.5160E-18
     -3.773 -0.6391E-14 -0.8501E-15
     -3.640 -0.4429E-11 -0.5896E-12
     -3.507 -0.1258E-08 -0.1678E-09
     -3.374 -0.1472E-06 -0.1974E-07
     -3.241 -0.7174E-05 -0.9733E-06
     -3.109 -0.1470E-03 -0.2052E-04
     -2.976 -0.1235E-02 -0.1847E-03
     -2.843 -0.3107E-02 -0.5977E-03
     -2.710  0.9724E-02  0.6950E-03
     -2.577  0.6344E-01  0.9128E-02
     -2.444  0.1181E+00  0.2483E-01
     -2.311  0.1396E+00  0.4339E-01
     -2.178  0.2207E+00  0.7273E-01
     -2.045  0.2537E+00  0.1064E+00
     -1.912  0.1821E+00  0.1307E+00
     -1.779  0.2657E+00  0.1660E+00
     -1.646  0.3668E+00  0.2147E+00
     -1.513  0.3204E+00  0.2573E+00
     -1.380  0.3474E+00  0.3035E+00
     -1.248  0.3838E+00  0.3545E+00
     -1.115  0.3002E+00  0.3944E+00
     -0.982  0.4378E+00  0.4526E+00
     -0.849  0.5454E+00  0.5251E+00
     -0.716  0.5522E+00  0.5986E+00
     -0.583  0.5046E+00  0.6656E+00
     -0.450  0.3309E+00  0.7096E+00
     -0.317  0.5163E+00  0.7783E+00
     -0.184  0.8014E+00  0.8848E+00
     -0.051  0.7618E+00  0.9861E+00
      0.082  0.6462E+00  0.1072E+01
      0.215  0.5588E+00  0.1146E+01
      0.348  0.7749E+00  0.1249E+01
      0.481  0.1040E+01  0.1388E+01
      0.614  0.9850E+00  0.1518E+01
      0.746  0.8609E+00  0.1633E+01
      0.879  0.1163E+01  0.1788E+01
      1.012  0.1517E+01  0.1989E+01
      1.145  0.1662E+01  0.2210E+01
      1.278  0.2361E+01  0.2524E+01
      1.411  0.3676E+01  0.3013E+01
      1.544  0.4264E+01  0.3579E+01
      1.677  0.4174E+01  0.4134E+01
      1.810  0.4198E+01  0.4692E+01
      1.943  0.4800E+01  0.5330E+01
      2.076  0.5425E+01  0.6051E+01
      2.209  0.6370E+01  0.6898E+01
      2.342  0.7092E+01  0.7841E+01
      2.475  0.6945E+01  0.8764E+01
      2.608  0.6662E+01  0.9650E+01
      2.740  0.6309E+01  0.1049E+02
      2.873  0.5988E+01  0.1128E+02
      3.006  0.5827E+01  0.1206E+02
      3.139  0.5807E+01  0.1283E+02
      3.272  0.6137E+01  0.1365E+02
      3.405  0.7540E+01  0.1465E+02
      3.538  0.8396E+01  0.1577E+02
      3.671  0.7974E+01  0.1683E+02
      3.804  0.8961E+01  0.1802E+02
      3.937  0.1013E+02  0.1936E+02
      4.070  0.1007E+02  0.2070E+02
      4.203  0.1088E+02  0.2215E+02
      4.336  0.1116E+02  0.2363E+02
      4.469  0.9324E+01  0.2487E+02
      4.602  0.7365E+01  0.2585E+02
      4.734  0.6589E+01  0.2673E+02
      4.867  0.7138E+01  0.2767E+02
      5.000  0.8207E+01  0.2877E+02
      5.133  0.9423E+01  0.3002E+02
      5.266  0.9800E+01  0.3132E+02
      5.399  0.8501E+01  0.3245E+02
      5.532  0.7994E+01  0.3351E+02
      5.665  0.7987E+01  0.3458E+02
      5.798  0.8112E+01  0.3565E+02
      5.931  0.9915E+01  0.3697E+02
      6.064  0.1322E+02  0.3873E+02
      6.197  0.1404E+02  0.4060E+02
      6.330  0.8605E+01  0.4174E+02
      6.463  0.3486E+01  0.4220E+02
      6.596  0.2075E+01  0.4248E+02
      6.728  0.1440E+01  0.4267E+02
      6.861  0.1062E+01  0.4281E+02
      6.994  0.1247E+01  0.4298E+02
      7.127  0.1495E+01  0.4318E+02
      7.260  0.1598E+01  0.4339E+02
      7.393  0.1281E+01  0.4356E+02
      7.526  0.7400E+00  0.4366E+02
      7.659  0.1103E+01  0.4380E+02
      7.792  0.2006E+01  0.4407E+02
      7.925  0.1546E+01  0.4428E+02
      8.058  0.6917E+00  0.4437E+02
      8.191  0.8588E+00  0.4448E+02
      8.324  0.1341E+01  0.4466E+02
      8.457  0.1446E+01  0.4485E+02
      8.589  0.1170E+01  0.4501E+02
      8.722  0.9240E+00  0.4513E+02
      8.855  0.1018E+01  0.4527E+02
      8.988  0.1122E+01  0.4542E+02
      9.121  0.1164E+01  0.4557E+02
      9.254  0.1251E+01  0.4574E+02
      9.387  0.1082E+01  0.4588E+02
      9.520  0.1120E+01  0.4603E+02
      9.653  0.9877E+00  0.4616E+02
      9.786  0.4183E+00  0.4622E+02
      9.919  0.5239E+00  0.4629E+02
     10.052  0.1045E+01  0.4642E+02
     10.185  0.1235E+01  0.4659E+02
     10.318  0.1257E+01  0.4676E+02
     10.451  0.9610E+00  0.4688E+02
     10.583  0.4266E+00  0.4694E+02
     10.716  0.3841E+00  0.4699E+02
     10.849  0.9228E+00  0.4711E+02
     10.982  0.8690E+00  0.4723E+02
     11.115  0.3147E+00  0.4727E+02
     11.248  0.4352E+00  0.4733E+02
     11.381  0.7571E+00  0.4743E+02
     11.514  0.6892E+00  0.4752E+02
     11.647  0.6832E+00  0.4761E+02
     11.780  0.5834E+00  0.4769E+02
     11.913  0.3263E+00  0.4773E+02
     12.046  0.1793E+00  0.4776E+02
     12.179  0.1840E+00  0.4778E+02
     12.312  0.4228E+00  0.4784E+02
     12.445  0.8005E+00  0.4794E+02
     12.577  0.1189E+01  0.4810E+02
     12.710  0.1306E+01  0.4828E+02
     12.843  0.1458E+01  0.4847E+02
     12.976  0.1705E+01  0.4870E+02
     13.109  0.1481E+01  0.4889E+02
     13.242  0.1463E+01  0.4909E+02
     13.375  0.1481E+01  0.4928E+02
     13.508  0.1057E+01  0.4942E+02
     13.641  0.1238E+01  0.4959E+02
     13.774  0.1580E+01  0.4980E+02
     13.907  0.1040E+01  0.4994E+02
     14.040  0.7416E+00  0.5004E+02
     14.173  0.8169E+00  0.5014E+02
     14.306  0.8410E+00  0.5026E+02
     14.439  0.1248E+01  0.5042E+02
     14.571  0.1358E+01  0.5060E+02
     14.704  0.1199E+01  0.5076E+02
     14.837  0.1051E+01  0.5090E+02
     14.970  0.8946E+00  0.5102E+02
     15.103  0.7466E+00  0.5112E+02
     15.236  0.6341E+00  0.5120E+02
     15.369  0.7621E+00  0.5131E+02
     15.502  0.1099E+01  0.5145E+02
     15.635  0.1279E+01  0.5162E+02
     15.768  0.1514E+01  0.5182E+02
     15.901  0.1421E+01  0.5201E+02
     16.034  0.7127E+00  0.5211E+02
     16.167  0.7960E+00  0.5221E+02
     16.300  0.2117E+01  0.5249E+02
     16.432  0.2345E+01  0.5281E+02
     16.565  0.1461E+01  0.5300E+02
     16.698  0.1097E+01  0.5315E+02
     16.831  0.1306E+01  0.5332E+02
     16.964  0.1771E+01  0.5355E+02
     17.097  0.1663E+01  0.5378E+02
     17.230  0.1447E+01  0.5397E+02
     17.363  0.1485E+01  0.5417E+02
     17.496  0.1740E+01  0.5440E+02
     17.629  0.1668E+01  0.5462E+02
     17.762  0.1446E+01  0.5481E+02
     17.895  0.1499E+01  0.5501E+02
     18.028  0.1436E+01  0.5520E+02
     18.161  0.1453E+01  0.5539E+02
     18.294  0.1830E+01  0.5564E+02
     18.426  0.2024E+01  0.5591E+02
     18.559  0.2091E+01  0.5618E+02
     18.692  0.1931E+01  0.5644E+02
     18.825  0.1322E+01  0.5662E+02
     18.958  0.1227E+01  0.5678E+02
     19.091  0.1645E+01  0.5700E+02
     19.224  0.1559E+01  0.5721E+02
     19.357  0.1473E+01  0.5740E+02
     19.490  0.1737E+01  0.5763E+02
     19.623  0.2143E+01  0.5792E+02
     19.756  0.2200E+01  0.5821E+02
     19.889  0.1734E+01  0.5844E+02
     20.022  0.1432E+01  0.5863E+02
     20.155  0.1917E+01  0.5889E+02
     20.288  0.2022E+01  0.5915E+02
     20.420  0.1556E+01  0.5936E+02
     20.553  0.1975E+01  0.5962E+02
     20.686  0.2261E+01  0.5992E+02
     20.819  0.1732E+01  0.6015E+02
     20.952  0.1759E+01  0.6039E+02
     21.085  0.2265E+01  0.6069E+02
     21.218  0.2226E+01  0.6099E+02
     21.351  0.1730E+01  0.6122E+02
     21.484  0.1298E+01  0.6139E+02
     21.617  0.1346E+01  0.6157E+02
     21.750  0.1560E+01  0.6177E+02
     21.883  0.1598E+01  0.6199E+02
     22.016  0.2282E+01  0.6229E+02
     22.149  0.2821E+01  0.6266E+02
     22.282  0.1676E+01  0.6289E+02
     22.414  0.7945E+00  0.6299E+02
     22.547  0.1316E+01  0.6317E+02
     22.680  0.1508E+01  0.6337E+02
     22.813  0.1317E+01  0.6354E+02
     22.946  0.1803E+01  0.6378E+02
     23.079  0.2309E+01  0.6409E+02
     23.212  0.1997E+01  0.6436E+02
     23.345  0.1856E+01  0.6460E+02
     23.478  0.1881E+01  0.6485E+02
     23.611  0.1105E+01  0.6500E+02
     23.744  0.6921E+00  0.6509E+02
     23.877  0.1314E+01  0.6527E+02
     24.010  0.1969E+01  0.6553E+02
     24.143  0.1744E+01  0.6576E+02
     24.275  0.1381E+01  0.6594E+02
     24.408  0.1273E+01  0.6611E+02
     24.541  0.1028E+01  0.6625E+02
     24.674  0.9081E+00  0.6637E+02
     24.807  0.1427E+01  0.6656E+02
     24.940  0.2495E+01  0.6689E+02
     25.073  0.2213E+01  0.6719E+02
     25.206  0.8470E+00  0.6730E+02
     25.339  0.7617E+00  0.6740E+02
     25.472  0.1633E+01  0.6762E+02
     25.605  0.1984E+01  0.6788E+02
     25.738  0.1512E+01  0.6808E+02
     25.871  0.1613E+01  0.6830E+02
     26.004  0.2066E+01  0.6857E+02
     26.137  0.1697E+01  0.6880E+02
     26.269  0.1058E+01  0.6894E+02
     26.402  0.1080E+01  0.6908E+02
     26.535  0.1668E+01  0.6930E+02
     26.668  0.2041E+01  0.6957E+02
     26.801  0.2218E+01  0.6987E+02
     26.934  0.2356E+01  0.7018E+02
     27.067  0.2494E+01  0.7051E+02
     27.200  0.2288E+01  0.7082E+02
     27.333  0.2086E+01  0.7109E+02
     27.466  0.1802E+01  0.7133E+02
     27.599  0.1525E+01  0.7154E+02
     27.732  0.2326E+01  0.7185E+02
     27.865  0.2678E+01  0.7220E+02
     27.998  0.1780E+01  0.7244E+02
     28.131  0.1558E+01  0.7265E+02
     28.263  0.1683E+01  0.7287E+02
     28.396  0.2114E+01  0.7315E+02
     28.529  0.2681E+01  0.7351E+02
     28.662  0.2751E+01  0.7387E+02
     28.795  0.2084E+01  0.7415E+02
     28.928  0.1431E+01  0.7434E+02
     29.061  0.1678E+01  0.7456E+02
     29.194  0.2524E+01  0.7490E+02
     29.327  0.2434E+01  0.7522E+02
     29.460  0.1876E+01  0.7547E+02
     29.593  0.1873E+01  0.7572E+02
     29.726  0.2357E+01  0.7603E+02
     29.859  0.2781E+01  0.7640E+02
     29.992  0.2473E+01  0.7673E+02
     30.125  0.1823E+01  0.7697E+02
     30.257  0.1572E+01  0.7718E+02
     30.390  0.1502E+01  0.7738E+02
     30.523  0.1565E+01  0.7759E+02
     30.656  0.1850E+01  0.7784E+02
     30.789  0.2042E+01  0.7811E+02
     30.922  0.1379E+01  0.7829E+02
     31.055  0.9306E+00  0.7842E+02
     31.188  0.1074E+01  0.7856E+02
     31.321  0.1205E+01  0.7872E+02
     31.454  0.1219E+01  0.7888E+02
     31.587  0.8957E+00  0.7900E+02
     31.720  0.8744E+00  0.7912E+02
     31.853  0.1039E+01  0.7925E+02
     31.986  0.1119E+01  0.7940E+02
     32.119  0.1089E+01  0.7955E+02
     32.251  0.9607E+00  0.7968E+02
     32.384  0.8158E+00  0.7978E+02
     32.517  0.6280E+00  0.7987E+02
     32.650  0.4623E+00  0.7993E+02
     32.783  0.2554E+00  0.7996E+02
     32.916  0.2396E-01  0.7997E+02
     33.049  0.9383E-02  0.7997E+02
     33.182  0.1205E+00  0.7998E+02
     33.315  0.1170E+00  0.8000E+02
     33.448  0.2037E-01  0.8000E+02
     33.581 -0.6988E-02  0.8000E+02
     33.714 -0.1875E-02  0.8000E+02
     33.847 -0.1267E-03  0.8000E+02
     33.980 -0.3040E-05  0.8000E+02
     34.112 -0.2804E-07  0.8000E+02
     34.245 -0.1025E-09  0.8000E+02
     34.378 -0.1507E-12  0.8000E+02
     34.511 -0.1205E-15  0.8000E+02
     34.644  0.0000E+00  0.8000E+02
     34.777  0.0000E+00  0.8000E+02
     34.910  0.0000E+00  0.8000E+02
     35.043  0.0000E+00  0.8000E+02
     35.176  0.0000E+00  0.8000E+02
