unknown system                          
   1.00000000000000     
     3.752338    0.000000    0.000000
     0.000000    3.752338    0.000000
     0.000000    0.000000    3.752338
   Pd   Ir   Pt   Cu
     1     1     1     1
Direct
  0.000000  0.000000  0.000000
  0.500000  0.500000  0.000000
  0.500000  0.000000  0.500000
  0.000000  0.500000  0.500000
 
   32   32   32
  327.60      313.39      276.72      230.22      183.59      139.71      98.952      64.089      39.362      25.625    
  18.534      14.260      11.907      10.737      10.110      9.6873      9.5126      9.6873      10.110      10.737    
  11.907      14.260      18.534      25.625      39.362      64.089      98.952      139.71      183.59      230.22    
  276.72      313.39      313.55      300.03      265.08      220.61      175.84      133.68      94.648      61.492    
  38.141      25.203      18.408      14.292      12.025      10.894      10.287      9.8786      9.7106      9.8786    
  10.287      10.894      12.025      14.292      18.408      25.203      38.141      61.492      94.648      133.68    
  175.84      220.61      265.08      300.03      276.72      264.96      234.39      195.11      155.18      117.56    
  83.211      54.654      34.967      24.107      18.085      14.414      12.395      11.384      10.841      10.480    
  10.333      10.480      10.841      11.384      12.395      14.414      18.085      24.107      34.967      54.654    
  83.211      117.56      155.18      195.11      234.39      264.96      228.82      219.21      194.04      161.26    
  127.60      96.118      68.187      45.854      30.984      22.714      17.726      14.720      13.090      12.291    
  11.877      11.610      11.502      11.610      11.877      12.291      13.090      14.720      17.726      22.714    
  30.984      45.854      68.187      96.118      127.60      161.26      194.04      219.21      179.78      172.24    
  152.30      126.06      99.032      74.264      53.288      37.440      27.310      21.368      17.573      15.388    
  14.288      13.828      13.651      13.552      13.510      13.552      13.651      13.828      14.288      15.388    
  17.573      21.368      27.310      37.440      53.288      74.264      99.032      126.06      152.30      172.24    
  134.07      128.41      113.37      93.503      73.224      55.269      40.952      30.834      24.501      20.398    
  17.909      16.680      16.278      16.341      16.567      16.750      16.814      16.750      16.567      16.341    
  16.278      16.680      17.909      20.398      24.501      30.834      40.952      55.269      73.224      93.503    
  113.37      128.41      93.403      89.513      79.197      65.645      52.092      40.611      32.041      26.306    
  22.513      20.112      19.007      18.879      19.381      20.228      21.147      21.846      22.106      21.846    
  21.147      20.228      19.381      18.879      19.007      20.112      22.513      26.306      32.041      40.611    
  52.092      65.645      79.197      89.513      60.268      57.988      51.976      44.192      36.636      30.543    
  26.229      23.277      21.413      20.718      21.057      22.223      24.085      26.383      28.661      30.354    
  30.981      30.354      28.661      26.383      24.085      22.223      21.057      20.718      21.413      23.277    
  26.229      30.543      36.636      44.192      51.976      57.988      37.398      36.345      33.595      30.108    
  26.830      24.261      22.401      21.367      21.327      22.282      24.240      27.259      31.200      35.646    
  39.862      42.929      44.056      42.929      39.862      35.646      31.200      27.259      24.240      22.282    
  21.327      21.367      22.401      24.261      26.830      30.108      33.595      36.345      24.564      24.208    
  23.280      22.093      20.941      20.122      19.935      20.599      22.208      24.903      28.916      34.240    
  40.601      47.397      53.645      58.119      59.752      58.119      53.645      47.397      40.601      34.240    
  28.916      24.903      22.208      20.599      19.935      20.122      20.941      22.093      23.280      24.208    
  17.658      17.566      17.335      17.102      17.080      17.528      18.707      20.805      24.015      28.735    
  35.045      42.690      51.204      59.890      67.690      73.227      75.244      73.227      67.690      59.890    
  51.204      42.690      35.045      28.735      24.015      20.805      18.707      17.528      17.080      17.102    
  17.335      17.566      13.375      13.427      13.608      13.997      14.760      16.138      18.396      21.759    
  26.748      33.686      42.272      51.865      61.848      71.634      80.317      86.503      88.770      86.503    
  80.317      71.634      61.848      51.865      42.272      33.686      26.748      21.759      18.396      16.138    
  14.760      13.997      13.608      13.427      10.930      11.062      11.472      12.228      13.496      15.545    
  18.672      23.318      30.245      39.469      50.156      61.244      72.104      82.489      91.798      98.584    
  101.11      98.584      91.798      82.489      72.104      61.244      50.156      39.469      30.245      23.318    
  18.672      15.545      13.496      12.228      11.472      11.062      9.6449      9.8123      10.331      11.284    
  12.869      15.411      19.271      25.243      34.137      45.577      58.159      70.481      82.080      93.203    
  103.54      111.36      114.34      111.36      103.54      93.203      82.080      70.481      58.159      45.577    
  34.137      25.243      19.271      15.411      12.869      11.284      10.331      9.8123      8.9199      9.1041    
  9.6798      10.749      12.551      15.464      19.955      27.148      37.809      51.188      65.403      78.854    
  91.364      103.69      115.66      125.04      128.66      125.04      115.66      103.69      91.364      78.854    
  65.403      51.188      37.809      27.148      19.955      15.464      12.551      10.749      9.6798      9.1041    
  8.4381      8.6350      9.2520      10.405      12.359      15.528      20.483      28.563      40.479      55.221    
  70.606      84.957      98.365      111.95      125.57      136.46      140.70      136.46      125.57      111.95    
  98.365      84.957      70.606      55.221      40.479      28.563      20.483      15.528      12.359      10.405    
  9.2520      8.6350      8.2454      8.4480      9.0834      10.271      12.285      15.550      20.679      29.086    
  41.460      56.699      72.517      87.223      101.02      115.16      129.48      141.00      145.50      141.00    
  129.48      115.16      101.02      87.223      72.517      56.699      41.460      29.086      20.679      15.550    
  12.285      10.271      9.0834      8.4480      8.4381      8.6350      9.2520      10.405      12.359      15.528    
  20.483      28.563      40.479      55.221      70.606      84.957      98.365      111.95      125.57      136.46    
  140.70      136.46      125.57      111.95      98.365      84.957      70.606      55.221      40.479      28.563    
  20.483      15.528      12.359      10.405      9.2520      8.6350      8.9199      9.1041      9.6798      10.749    
  12.551      15.464      19.955      27.148      37.809      51.188      65.403      78.854      91.364      103.69    
  115.66      125.04      128.66      125.04      115.66      103.69      91.364      78.854      65.403      51.188    
  37.809      27.148      19.955      15.464      12.551      10.749      9.6798      9.1041      9.6449      9.8123    
  10.331      11.284      12.869      15.411      19.271      25.243      34.137      45.577      58.159      70.481    
  82.080      93.203      103.54      111.36      114.34      111.36      103.54      93.203      82.080      70.481    
  58.159      45.577      34.137      25.243      19.271      15.411      12.869      11.284      10.331      9.8123    
  10.930      11.062      11.472      12.228      13.496      15.545      18.672      23.318      30.245      39.469    
  50.156      61.244      72.104      82.489      91.798      98.584      101.11      98.584      91.798      82.489    
  72.104      61.244      50.156      39.469      30.245      23.318      18.672      15.545      13.496      12.228    
  11.472      11.062      13.375      13.427      13.608      13.997      14.760      16.138      18.396      21.759    
  26.748      33.686      42.272      51.865      61.848      71.634      80.317      86.503      88.770      86.503    
  80.317      71.634      61.848      51.865      42.272      33.686      26.748      21.759      18.396      16.138    
  14.760      13.997      13.608      13.427      17.658      17.566      17.335      17.102      17.080      17.528    
  18.707      20.805      24.015      28.735      35.045      42.690      51.204      59.890      67.690      73.227    
  75.244      73.227      67.690      59.890      51.204      42.690      35.045      28.735      24.015      20.805    
  18.707      17.528      17.080      17.102      17.335      17.566      24.564      24.208      23.280      22.093    
  20.941      20.122      19.935      20.599      22.208      24.903      28.916      34.240      40.601      47.397    
  53.645      58.119      59.752      58.119      53.645      47.397      40.601      34.240      28.916      24.903    
  22.208      20.599      19.935      20.122      20.941      22.093      23.280      24.208      37.398      36.345    
  33.595      30.108      26.830      24.261      22.401      21.367      21.327      22.282      24.240      27.259    
  31.200      35.646      39.862      42.929      44.056      42.929      39.862      35.646      31.200      27.259    
  24.240      22.282      21.327      21.367      22.401      24.261      26.830      30.108      33.595      36.345    
  60.268      57.988      51.976      44.192      36.636      30.543      26.229      23.277      21.413      20.718    
  21.057      22.223      24.085      26.383      28.661      30.354      30.981      30.354      28.661      26.383    
  24.085      22.223      21.057      20.718      21.413      23.277      26.229      30.543      36.636      44.192    
  51.976      57.988      93.403      89.513      79.197      65.645      52.092      40.611      32.041      26.306    
  22.513      20.112      19.007      18.879      19.381      20.228      21.147      21.846      22.106      21.846    
  21.147      20.228      19.381      18.879      19.007      20.112      22.513      26.306      32.041      40.611    
  52.092      65.645      79.197      89.513      134.07      128.41      113.37      93.503      73.224      55.269    
  40.952      30.834      24.501      20.398      17.909      16.680      16.278      16.341      16.567      16.750    
  16.814      16.750      16.567      16.341      16.278      16.680      17.909      20.398      24.501      30.834    
  40.952      55.269      73.224      93.503      113.37      128.41      179.78      172.24      152.30      126.06    
  99.032      74.264      53.288      37.440      27.310      21.368      17.573      15.388      14.288      13.828    
  13.651      13.552      13.510      13.552      13.651      13.828      14.288      15.388      17.573      21.368    
  27.310      37.440      53.288      74.264      99.032      126.06      152.30      172.24      228.82      219.21    
  194.04      161.26      127.60      96.118      68.187      45.854      30.984      22.714      17.726      14.720    
  13.090      12.291      11.877      11.610      11.502      11.610      11.877      12.291      13.090      14.720    
  17.726      22.714      30.984      45.854      68.187      96.118      127.60      161.26      194.04      219.21    
  276.72      264.96      234.39      195.11      155.18      117.56      83.211      54.654      34.967      24.107    
  18.085      14.414      12.395      11.384      10.841      10.480      10.333      10.480      10.841      11.384    
  12.395      14.414      18.085      24.107      34.967      54.654      83.211      117.56      155.18      195.11    
  234.39      264.96      313.55      300.03      265.08      220.61      175.84      133.68      94.648      61.492    
  38.141      25.203      18.408      14.292      12.025      10.894      10.287      9.8786      9.7106      9.8786    
  10.287      10.894      12.025      14.292      18.408      25.203      38.141      61.492      94.648      133.68    
  175.84      220.61      265.08      300.03      313.71      300.22      265.34      220.92      176.14      133.90    
  94.769      61.533      38.140      25.192      18.400      14.291      12.032      10.907      10.305      9.9003    
  9.7335      9.9003      10.305      10.907      12.032      14.291      18.400      25.192      38.140      61.533    
  94.769      133.90      176.14      220.92      265.34      300.22      300.71      287.85      254.52      211.94    
  168.86      128.20      90.710      59.090      36.995      24.793      18.278      14.322      12.146      11.061    
  10.478      10.087      9.9264      10.087      10.478      11.061      12.146      14.322      18.278      24.793    
  36.995      59.090      90.710      128.20      168.86      211.94      254.52      287.85      266.49      255.22    
  225.86      188.01      149.38      112.97      79.911      52.653      34.016      23.752      17.965      14.440    
  12.505      11.536      11.016      10.672      10.531      10.672      11.016      11.536      12.505      14.440    
  17.965      23.752      34.016      52.653      79.911      112.97      149.38      188.01      225.86      255.22    
  221.48      212.19      187.81      155.97      123.21      92.626      65.690      44.358      30.271      22.415    
  17.616      14.735      13.178      12.416      12.023      11.770      11.667      11.770      12.023      12.416    
  13.178      14.735      17.616      22.415      30.271      44.358      65.690      92.626      123.21      155.97    
  187.81      212.19      174.68      167.33      147.89      122.26      95.869      71.780      51.547      36.410    
  26.799      21.107      17.466      15.380      14.336      13.904      13.742      13.653      13.615      13.653    
  13.742      13.904      14.336      15.380      17.466      21.107      26.799      36.410      51.547      71.780    
  95.869      122.26      147.89      167.33      130.40      124.87      110.18      90.777      71.004      53.582    
  39.804      30.150      24.109      20.162      17.786      16.625      16.258      16.335      16.567      16.753    
  16.818      16.753      16.567      16.335      16.258      16.625      17.786      20.162      24.109      30.150    
  39.804      53.582      71.004      90.777      110.18      124.87      90.728      86.943      76.908      63.738    
  50.597      39.520      31.306      25.826      22.173      19.879      18.842      18.748      19.259      20.092    
  20.986      21.664      21.916      21.664      20.986      20.092      19.259      18.748      18.842      19.879    
  22.173      25.826      31.306      39.520      50.597      63.738      76.908      86.943      58.498      56.296    
  50.491      42.986      35.717      29.874      25.739      22.887      21.102      20.461      20.823      21.975    
  23.783      26.000      28.192      29.819      30.421      29.819      28.192      26.000      23.783      21.975    
  20.823      20.461      21.102      22.887      25.739      29.874      35.717      42.986      50.491      56.296    
  36.433      35.425      32.791      29.453      26.313      23.834      22.025      21.034      21.020      21.978    
  23.894      26.822      30.628      34.910      38.962      41.905      42.986      41.905      38.962      34.910    
  30.628      26.822      23.894      21.978      21.020      21.034      22.025      23.834      26.313      29.453    
  32.791      35.425      24.133      23.792      22.898      21.745      20.616      19.819      19.643      20.301    
  21.886      24.515      28.414      33.578      39.734      46.290      52.298      56.590      58.156      56.590    
  52.298      46.290      39.734      33.578      28.414      24.515      21.886      20.301      19.643      19.819    
  20.616      21.745      22.898      23.792      17.450      17.360      17.133      16.904      16.881      17.318    
  18.468      20.520      23.648      28.240      34.388      41.836      50.108      58.506      66.006      71.306    
  73.233      71.306      66.006      58.506      50.108      41.836      34.388      28.240      23.648      20.520    
  18.468      17.318      16.881      16.904      17.133      17.360      13.313      13.364      13.537      13.912    
  14.651      15.989      18.188      21.466      26.316      33.087      41.498      50.903      60.649      70.120    
  78.441      84.324      86.471      84.324      78.441      70.120      60.649      50.903      41.498      33.087    
  26.316      21.466      18.188      15.989      14.651      13.912      13.537      13.364      10.970      11.096    
  11.490      12.218      13.444      15.433      18.480      22.997      29.744      38.786      49.319      60.262    
  70.906      80.934      89.779      96.151      98.511      96.151      89.779      80.934      70.906      60.262    
  49.319      38.786      29.744      22.997      18.480      15.433      13.444      12.218      11.490      11.096    
  9.7496      9.9095      10.406      11.322      12.854      15.321      19.081      24.885      33.572      44.832    
  57.300      69.524      80.906      91.579      101.28      108.52      111.25      108.52      101.28      91.579    
  80.906      69.524      57.300      44.832      33.572      24.885      19.081      15.321      12.854      11.322    
  10.406      9.9095      9.0709      9.2461      9.7951      10.820      12.560      15.389      19.759      26.755    
  37.189      50.398      64.537      77.920      90.176      101.91      113.02      121.60      124.90      121.60    
  113.02      101.91      90.176      77.920      64.537      50.398      37.189      26.755      19.759      15.389    
  12.560      10.820      9.7951      9.2461      8.6238      8.8103      9.3971      10.501      12.387      15.465    
  20.282      28.143      39.822      54.402      69.734      84.024      97.128      109.99      122.55      132.46    
  136.31      132.46      122.55      109.99      97.128      84.024      69.734      54.402      39.822      28.143    
  20.282      15.465      12.387      10.501      9.3971      8.8103      8.4451      8.6368      9.2405      10.377    
  12.320      15.491      20.477      28.658      40.791      55.870      71.642      86.288      99.755      113.11    
  126.30      136.77      140.85      136.77      126.30      113.11      99.755      86.288      71.642      55.870    
  40.791      28.658      20.477      15.491      12.320      10.377      9.2405      8.6368      8.6238      8.8103    
  9.3971      10.501      12.387      15.465      20.282      28.143      39.822      54.402      69.734      84.024    
  97.128      109.99      122.55      132.46      136.31      132.46      122.55      109.99      97.128      84.024    
  69.734      54.402      39.822      28.143      20.282      15.465      12.387      10.501      9.3971      8.8103    
  9.0709      9.2461      9.7951      10.820      12.560      15.389      19.759      26.755      37.189      50.398    
  64.537      77.920      90.176      101.91      113.02      121.60      124.90      121.60      113.02      101.91    
  90.176      77.920      64.537      50.398      37.189      26.755      19.759      15.389      12.560      10.820    
  9.7951      9.2461      9.7496      9.9095      10.406      11.322      12.854      15.321      19.081      24.885    
  33.572      44.832      57.300      69.524      80.906      91.579      101.28      108.52      111.25      108.52    
  101.28      91.579      80.906      69.524      57.300      44.832      33.572      24.885      19.081      15.321    
  12.854      11.322      10.406      9.9095      10.970      11.096      11.490      12.218      13.444      15.433    
  18.480      22.997      29.744      38.786      49.319      60.262      70.906      80.934      89.779      96.151    
  98.511      96.151      89.779      80.934      70.906      60.262      49.319      38.786      29.744      22.997    
  18.480      15.433      13.444      12.218      11.490      11.096      13.313      13.364      13.537      13.912    
  14.651      15.989      18.188      21.466      26.316      33.087      41.498      50.903      60.649      70.120    
  78.441      84.324      86.471      84.324      78.441      70.120      60.649      50.903      41.498      33.087    
  26.316      21.466      18.188      15.989      14.651      13.912      13.537      13.364      17.450      17.360    
  17.133      16.904      16.881      17.318      18.468      20.520      23.648      28.240      34.388      41.836    
  50.108      58.506      66.006      71.306      73.233      71.306      66.006      58.506      50.108      41.836    
  34.388      28.240      23.648      20.520      18.468      17.318      16.881      16.904      17.133      17.360    
  24.133      23.792      22.898      21.745      20.616      19.819      19.643      20.301      21.886      24.515    
  28.414      33.578      39.734      46.290      52.298      56.590      58.156      56.590      52.298      46.290    
  39.734      33.578      28.414      24.515      21.886      20.301      19.643      19.819      20.616      21.745    
  22.898      23.792      36.433      35.425      32.791      29.453      26.313      23.834      22.025      21.034    
  21.020      21.978      23.894      26.822      30.628      34.910      38.962      41.905      42.986      41.905    
  38.962      34.910      30.628      26.822      23.894      21.978      21.020      21.034      22.025      23.834    
  26.313      29.453      32.791      35.425      58.498      56.296      50.491      42.986      35.717      29.874    
  25.739      22.887      21.102      20.461      20.823      21.975      23.783      26.000      28.192      29.819    
  30.421      29.819      28.192      26.000      23.783      21.975      20.823      20.461      21.102      22.887    
  25.739      29.874      35.717      42.986      50.491      56.296      90.728      86.943      76.908      63.738    
  50.597      39.520      31.306      25.826      22.173      19.879      18.842      18.748      19.259      20.092    
  20.986      21.664      21.916      21.664      20.986      20.092      19.259      18.748      18.842      19.879    
  22.173      25.826      31.306      39.520      50.597      63.738      76.908      86.943      130.40      124.87    
  110.18      90.777      71.004      53.582      39.804      30.150      24.109      20.162      17.786      16.625    
  16.258      16.335      16.567      16.753      16.818      16.753      16.567      16.335      16.258      16.625    
  17.786      20.162      24.109      30.150      39.804      53.582      71.004      90.777      110.18      124.87    
  174.68      167.33      147.89      122.26      95.869      71.780      51.547      36.410      26.799      21.107    
  17.466      15.380      14.336      13.904      13.742      13.653      13.615      13.653      13.742      13.904    
  14.336      15.380      17.466      21.107      26.799      36.410      51.547      71.780      95.869      122.26    
  147.89      167.33      221.48      212.19      187.81      155.97      123.21      92.626      65.690      44.358    
  30.271      22.415      17.616      14.735      13.178      12.416      12.023      11.770      11.667      11.770    
  12.023      12.416      13.178      14.735      17.616      22.415      30.271      44.358      65.690      92.626    
  123.21      155.97      187.81      212.19      266.49      255.22      225.86      188.01      149.38      112.97    
  79.911      52.653      34.016      23.752      17.965      14.440      12.505      11.536      11.016      10.672    
  10.531      10.672      11.016      11.536      12.505      14.440      17.965      23.752      34.016      52.653    
  79.911      112.97      149.38      188.01      225.86      255.22      300.71      287.85      254.52      211.94    
  168.86      128.20      90.710      59.090      36.995      24.793      18.278      14.322      12.146      11.061    
  10.478      10.087      9.9264      10.087      10.478      11.061      12.146      14.322      18.278      24.793    
  36.995      59.090      90.710      128.20      168.86      211.94      254.52      287.85      277.21      265.55    
  235.21      196.10      156.12      118.25      83.573      54.759      34.945      24.058      18.049      14.399    
  12.400      11.404      10.872      10.517      10.372      10.517      10.872      11.404      12.400      14.399    
  18.049      24.058      34.945      54.759      83.573      118.25      156.12      196.10      235.21      265.55    
  266.82      255.63      226.44      188.70      150.03      113.44      80.155      52.720      33.996      23.716    
  17.937      14.427      12.504      11.545      11.031      10.690      10.551      10.690      11.031      11.545    
  12.504      14.427      17.937      23.716      33.996      52.720      80.155      113.44      150.03      188.70    
  226.44      255.63      239.00      229.01      202.82      168.70      133.56      100.52      71.031      47.335    
  31.522      22.808      17.651      14.534      12.831      11.981      11.527      11.229      11.108      11.229    
  11.527      11.981      12.831      14.534      17.651      22.808      31.522      47.335      71.031      100.52    
  133.56      168.70      202.82      229.01      201.18      192.75      170.50      141.25      111.03      83.053    
  58.936      40.368      28.387      21.600      17.330      14.798      13.441      12.783      12.448      12.236    
  12.150      12.236      12.448      12.783      13.441      14.798      17.330      21.600      28.387      40.368    
  58.936      83.053      111.03      141.25      170.50      192.75      160.06      153.27      135.27      111.46    
  86.977      64.908      46.810      33.650      25.427      20.396      17.183      15.373      14.485      14.133    
  14.014      13.955      13.928      13.955      14.014      14.133      14.485      15.373      17.183      20.396    
  25.427      33.650      46.810      64.908      86.977      111.46      135.27      153.27      119.65      114.53    
  100.92      82.940      64.722      48.899      36.672      28.301      23.029      19.518      17.457      16.486    
  16.217      16.336      16.583      16.779      16.848      16.779      16.583      16.336      16.217      16.486    
  17.457      19.518      23.029      28.301      36.672      48.899      64.722      82.940      100.92      114.53    
  82.947      79.482      70.304      58.293      46.396      36.503      29.296      24.505      21.235      19.240    
  18.394      18.394      18.931      19.735      20.569      21.194      21.425      21.194      20.569      19.735    
  18.931      18.394      18.394      19.240      21.235      24.505      29.296      36.503      46.396      58.293    
  70.304      79.482      53.463      51.490      46.297      39.607      33.170      28.034      24.383      21.803    
  20.245      19.753      20.179      21.299      22.968      24.972      26.936      28.387      28.923      28.387    
  26.936      24.972      22.968      21.299      20.179      19.753      20.245      21.803      24.383      28.034    
  33.170      39.607      46.297      51.490      33.764      32.881      30.576      27.652      24.885      22.642    
  20.983      20.117      20.173      21.135      22.939      25.621      29.063      32.902      36.514      39.127    
  40.085      39.127      36.514      32.902      29.063      25.621      22.939      21.135      20.173      20.117    
  20.983      22.642      24.885      27.652      30.576      32.881      22.952      22.647      21.841      20.770    
  19.715      18.980      18.836      19.477      20.991      23.438      27.019      31.738      37.328      43.234    
  48.601      52.410      53.794      52.410      48.601      43.234      37.328      31.738      27.019      23.438    
  20.991      19.477      18.836      18.980      19.715      20.770      21.841      22.647      16.869      16.784    
  16.573      16.360      16.339      16.744      17.812      19.730      22.626      26.851      32.530      39.419    
  47.023      54.647      61.355      66.037      67.729      66.037      61.355      54.647      47.023      39.419    
  32.530      26.851      22.626      19.730      17.812      16.744      16.339      16.360      16.573      16.784    
  13.126      13.172      13.332      13.677      14.355      15.584      17.616      20.651      25.105      31.377    
  39.262      48.119      57.214      65.860      73.254      78.368      80.212      78.368      73.254      65.860    
  57.214      48.119      39.262      31.377      25.105      20.651      17.616      15.584      14.355      13.677    
  13.332      13.172      11.028      11.144      11.505      12.174      13.298      15.126      17.948      22.100    