unknown system                          
   1.00000000000000     
     3.752338    0.000000    0.000000
     0.000000    3.752338    0.000000
     0.000000    0.000000    3.752338
   Pd   Ir   Pt   Cu
     1     1     1     1
Direct
  0.000000  0.000000  0.000000
  0.500000  0.500000  0.000000
  0.500000  0.000000  0.500000
  0.000000  0.500000  0.500000
 
   32   32   32
 0.32760178537E+03 0.31339333216E+03 0.27671731342E+03 0.23022369103E+03 0.18359225074E+03
 0.13971454298E+03 0.98952038558E+02 0.64089429526E+02 0.39362186009E+02 0.25625000574E+02
 0.18534397260E+02 0.14259761581E+02 0.11906981879E+02 0.10736770428E+02 0.10110264827E+02
 0.96872524847E+01 0.95126193411E+01 0.96872524847E+01 0.10110264827E+02 0.10736770428E+02
 0.11906981879E+02 0.14259761581E+02 0.18534397260E+02 0.25625000574E+02 0.39362186009E+02
 0.64089429526E+02 0.98952038558E+02 0.13971454298E+03 0.18359225074E+03 0.23022369103E+03
 0.27671731342E+03 0.31339333216E+03 0.31354875608E+03 0.30003167384E+03 0.26507729163E+03
 0.22061233528E+03 0.17584377251E+03 0.13367522722E+03 0.94647794196E+02 0.61492485752E+02
 0.38141360512E+02 0.25203481153E+02 0.18408220059E+02 0.14291807577E+02 0.12025133423E+02
 0.10894230806E+02 0.10287131354E+02 0.98786309059E+01 0.97105996496E+01 0.98786309059E+01
 0.10287131354E+02 0.10894230806E+02 0.12025133423E+02 0.14291807577E+02 0.18408220059E+02
 0.25203481153E+02 0.38141360512E+02 0.61492485752E+02 0.94647794196E+02 0.13367522722E+03
 0.17584377251E+03 0.22061233528E+03 0.26507729163E+03 0.30003167384E+03 0.27672135626E+03
 0.26496067379E+03 0.23438615058E+03 0.19511110001E+03 0.15518170109E+03 0.11755842596E+03
 0.83211368960E+02 0.54654408511E+02 0.34966606460E+02 0.24107090721E+02 0.18085168050E+02
 0.14414164931E+02 0.12395215511E+02 0.11384063064E+02 0.10840917707E+02 0.10479730051E+02
 0.10332507459E+02 0.10479730051E+02 0.10840917707E+02 0.11384063064E+02 0.12395215511E+02
 0.14414164931E+02 0.18085168050E+02 0.24107090721E+02 0.34966606460E+02 0.54654408511E+02
 0.83211368960E+02 0.11755842596E+03 0.15518170109E+03 0.19511110001E+03 0.23438615058E+03
 0.26496067379E+03 0.22882189066E+03 0.21921358652E+03 0.19403599000E+03 0.16126121338E+03
 0.12760458919E+03 0.96117816846E+02 0.68186697786E+02 0.45854256977E+02 0.30983643012E+02
 0.22713904806E+02 0.17725893622E+02 0.14719645711E+02 0.13090452259E+02 0.12291323922E+02
 0.11877419794E+02 0.11610070539E+02 0.11501850784E+02 0.11610070539E+02 0.11877419794E+02
 0.12291323922E+02 0.13090452259E+02 0.14719645711E+02 0.17725893622E+02 0.22713904806E+02
 0.30983643012E+02 0.45854256977E+02 0.68186697786E+02 0.96117816846E+02 0.12760458919E+03
 0.16126121338E+03 0.19403599000E+03 0.21921358652E+03 0.17978326935E+03 0.17223551589E+03
 0.15230053637E+03 0.12605751022E+03 0.99031659176E+02 0.74264243941E+02 0.53288281942E+02
 0.37439741357E+02 0.27309878811E+02 0.21367581063E+02 0.17573044120E+02 0.15388256344E+02
 0.14288149254E+02 0.13827759074E+02 0.13650544940E+02 0.13551657211E+02 0.13509504358E+02
 0.13551657211E+02 0.13650544940E+02 0.13827759074E+02 0.14288149254E+02 0.15388256344E+02
 0.17573044120E+02 0.21367581063E+02 0.27309878811E+02 0.37439741357E+02 0.53288281942E+02
 0.74264243941E+02 0.99031659176E+02 0.12605751022E+03 0.15230053637E+03 0.17223551589E+03
 0.13407465330E+03 0.12840725504E+03 0.11337051558E+03 0.93503012368E+02 0.73224123910E+02
 0.55268766779E+02 0.40952459994E+02 0.30834342420E+02 0.24500838897E+02 0.20397769484E+02
 0.17909450446E+02 0.16679886124E+02 0.16277630999E+02 0.16340821136E+02 0.16566795279E+02
 0.16749961993E+02 0.16813712076E+02 0.16749961993E+02 0.16566795279E+02 0.16340821136E+02
 0.16277630999E+02 0.16679886124E+02 0.17909450446E+02 0.20397769484E+02 0.24500838897E+02
 0.30834342420E+02 0.40952459994E+02 0.55268766779E+02 0.73224123910E+02 0.93503012368E+02
 0.11337051558E+03 0.12840725504E+03 0.93402821153E+02 0.89512610277E+02 0.79196636328E+02
 0.65645315228E+02 0.52091962392E+02 0.40611391911E+02 0.32041379553E+02 0.26305821168E+02
 0.22512871946E+02 0.20112238707E+02 0.19007240798E+02 0.18878861757E+02 0.19380963805E+02
 0.20227518141E+02 0.21146574341E+02 0.21846051839E+02 0.22105762973E+02 0.21846051839E+02
 0.21146574341E+02 0.20227518141E+02 0.19380963805E+02 0.18878861757E+02 0.19007240798E+02
 0.20112238707E+02 0.22512871946E+02 0.26305821168E+02 0.32041379553E+02 0.40611391911E+02
 0.52091962392E+02 0.65645315228E+02 0.79196636328E+02 0.89512610277E+02 0.60268256998E+02
 0.57988227305E+02 0.51975696649E+02 0.44192026138E+02 0.36636267551E+02 0.30543423007E+02
 0.26228614214E+02 0.23277328897E+02 0.21412980158E+02 0.20718260120E+02 0.21056542322E+02
 0.22222911189E+02 0.24085453466E+02 0.26382817915E+02 0.28660969376E+02 0.30353561140E+02
 0.30980603659E+02 0.30353561140E+02 0.28660969376E+02 0.26382817915E+02 0.24085453466E+02
 0.22222911189E+02 0.21056542322E+02 0.20718260120E+02 0.21412980158E+02 0.23277328897E+02
 0.26228614214E+02 0.30543423007E+02 0.36636267551E+02 0.44192026138E+02 0.51975696649E+02
 0.57988227305E+02 0.37398336212E+02 0.36345352843E+02 0.33595105512E+02 0.30108019477E+02
 0.26830444724E+02 0.24260515586E+02 0.22401014221E+02 0.21366552880E+02 0.21326759778E+02
 0.22281946432E+02 0.24240092070E+02 0.27258821295E+02 0.31200314668E+02 0.35646061626E+02
 0.39862309784E+02 0.42929257910E+02 0.44056286211E+02 0.42929257910E+02 0.39862309784E+02
 0.35646061626E+02 0.31200314668E+02 0.27258821295E+02 0.24240092070E+02 0.22281946432E+02
 0.21326759778E+02 0.21366552880E+02 0.22401014221E+02 0.24260515586E+02 0.26830444724E+02
 0.30108019477E+02 0.33595105512E+02 0.36345352843E+02 0.24564143940E+02 0.24208493840E+02
 0.23280032701E+02 0.22092994503E+02 0.20940708837E+02 0.20122241048E+02 0.19935478240E+02
 0.20599418697E+02 0.22207979247E+02 0.24902825738E+02 0.28915529759E+02 0.34239646181E+02
 0.40601187164E+02 0.47397277072E+02 0.53645031502E+02 0.58118740089E+02 0.59752451418E+02
 0.58118740089E+02 0.53645031502E+02 0.47397277072E+02 0.40601187164E+02 0.34239646181E+02
 0.28915529759E+02 0.24902825738E+02 0.22207979247E+02 0.20599418697E+02 0.19935478240E+02
 0.20122241048E+02 0.20940708837E+02 0.22092994503E+02 0.23280032701E+02 0.24208493840E+02
 0.17658048782E+02 0.17565938941E+02 0.17335268080E+02 0.17101945666E+02 0.17079771599E+02
 0.17528374608E+02 0.18706849657E+02 0.20804983714E+02 0.24014855730E+02 0.28734912627E+02
 0.35045301683E+02 0.42690091880E+02 0.51203702891E+02 0.59890460325E+02 0.67690496944E+02
 0.73226846689E+02 0.75244417388E+02 0.73226846689E+02 0.67690496944E+02 0.59890460325E+02
 0.51203702891E+02 0.42690091880E+02 0.35045301683E+02 0.28734912627E+02 0.24014855730E+02
 0.20804983714E+02 0.18706849657E+02 0.17528374608E+02 0.17079771599E+02 0.17101945666E+02
 0.17335268080E+02 0.17565938941E+02 0.13374612447E+02 0.13427305989E+02 0.13607644180E+02
 0.13997383842E+02 0.14760459012E+02 0.16138042972E+02 0.18396446542E+02 0.21759239192E+02
 0.26747675785E+02 0.33685867808E+02 0.42271816200E+02 0.51864964310E+02 0.61848130283E+02
 0.71634015033E+02 0.80317259341E+02 0.86503324805E+02 0.88770216414E+02 0.86503324805E+02
 0.80317259341E+02 0.71634015033E+02 0.61848130283E+02 0.51864964310E+02 0.42271816200E+02
 0.33685867808E+02 0.26747675785E+02 0.21759239192E+02 0.18396446542E+02 0.16138042972E+02
 0.14760459012E+02 0.13997383842E+02 0.13607644180E+02 0.13427305989E+02 0.10930410019E+02
 0.11062271111E+02 0.11472131452E+02 0.12228010424E+02 0.13495603770E+02 0.15544534091E+02
 0.18672396516E+02 0.23318337027E+02 0.30244767458E+02 0.39469071824E+02 0.50155837121E+02
 0.61244136914E+02 0.72104327914E+02 0.82489247749E+02 0.91798441040E+02 0.98584281271E+02
 0.10111057606E+03 0.98584281271E+02 0.91798441040E+02 0.82489247749E+02 0.72104327914E+02
 0.61244136914E+02 0.50155837121E+02 0.39469071824E+02 0.30244767458E+02 0.23318337027E+02
 0.18672396516E+02 0.15544534091E+02 0.13495603770E+02 0.12228010424E+02 0.11472131452E+02
 0.11062271111E+02 0.96448606110E+01 0.98122861099E+01 0.10331484965E+02 0.11283811414E+02
 0.12869135880E+02 0.15410909113E+02 0.19270746448E+02 0.25243150381E+02 0.34137424609E+02
 0.45577400274E+02 0.58159418979E+02 0.70481166468E+02 0.82079514212E+02 0.93203032204E+02
 0.10353874294E+03 0.11136217818E+03 0.11433711334E+03 0.11136217818E+03 0.10353874294E+03
 0.93203032204E+02 0.82079514212E+02 0.70481166468E+02 0.58159418979E+02 0.45577400274E+02
 0.34137424609E+02 0.25243150381E+02 0.19270746448E+02 0.15410909113E+02 0.12869135880E+02
 0.11283811414E+02 0.10331484965E+02 0.98122861099E+01 0.89198639479E+01 0.91041471747E+01
 0.96797835251E+01 0.10748697779E+02 0.12550930007E+02 0.15463775653E+02 0.19954812091E+02
 0.27148443183E+02 0.37809314620E+02 0.51187792640E+02 0.65403234811E+02 0.78854331727E+02
 0.91364481291E+02 0.10368741395E+03 0.11565802591E+03 0.12503577810E+03 0.12866167297E+03
 0.12503577810E+03 0.11565802591E+03 0.10368741395E+03 0.91364481291E+02 0.78854331727E+02
 0.65403234811E+02 0.51187792640E+02 0.37809314620E+02 0.27148443183E+02 0.19954812091E+02
 0.15463775653E+02 0.12550930007E+02 0.10748697779E+02 0.96797835251E+01 0.91041471747E+01
 0.84381452989E+01 0.86349542260E+01 0.92519692765E+01 0.10404540858E+02 0.12359153445E+02
 0.15528184370E+02 0.20482772259E+02 0.28562620772E+02 0.40478739076E+02 0.55221227142E+02
 0.70605966345E+02 0.84956534932E+02 0.98364896210E+02 0.11195245059E+03 0.12557320441E+03
 0.13645781574E+03 0.14070264700E+03 0.13645781574E+03 0.12557320441E+03 0.11195245059E+03
 0.98364896210E+02 0.84956534932E+02 0.70605966345E+02 0.55221227142E+02 0.40478739076E+02
 0.28562620772E+02 0.20482772259E+02 0.15528184370E+02 0.12359153445E+02 0.10404540858E+02
 0.92519692765E+01 0.86349542260E+01 0.82454284425E+01 0.84480079163E+01 0.90833609193E+01
 0.10270750014E+02 0.12284961210E+02 0.15549756763E+02 0.20679356138E+02 0.29086392755E+02
 0.41460398457E+02 0.56699274488E+02 0.72516835253E+02 0.87222714394E+02 0.10101820522E+03
 0.11515798050E+03 0.12948395979E+03 0.14100135808E+03 0.14550391762E+03 0.14100135808E+03
 0.12948395979E+03 0.11515798050E+03 0.10101820522E+03 0.87222714394E+02 0.72516835253E+02
 0.56699274488E+02 0.41460398457E+02 0.29086392755E+02 0.20679356138E+02 0.15549756763E+02
 0.12284961210E+02 0.10270750014E+02 0.90833609193E+01 0.84480079163E+01 0.84381452989E+01
 0.86349542260E+01 0.92519692765E+01 0.10404540858E+02 0.12359153445E+02 0.15528184370E+02
 0.20482772259E+02 0.28562620772E+02 0.40478739076E+02 0.55221227142E+02 0.70605966345E+02
 0.84956534932E+02 0.98364896210E+02 0.11195245059E+03 0.12557320441E+03 0.13645781574E+03
 0.14070264700E+03 0.13645781574E+03 0.12557320441E+03 0.11195245059E+03 0.98364896210E+02
 0.84956534932E+02 0.70605966345E+02 0.55221227142E+02 0.40478739076E+02 0.28562620772E+02
 0.20482772259E+02 0.15528184370E+02 0.12359153445E+02 0.10404540858E+02 0.92519692765E+01
 0.86349542260E+01 0.89198639479E+01 0.91041471747E+01 0.96797835251E+01 0.10748697779E+02
 0.12550930007E+02 0.15463775653E+02 0.19954812091E+02 0.27148443183E+02 0.37809314620E+02
 0.51187792640E+02 0.65403234811E+02 0.78854331727E+02 0.91364481291E+02 0.10368741395E+03
 0.11565802591E+03 0.12503577810E+03 0.12866167297E+03 0.12503577810E+03 0.11565802591E+03
 0.10368741395E+03 0.91364481291E+02 0.78854331727E+02 0.65403234811E+02 0.51187792640E+02
 0.37809314620E+02 0.27148443183E+02 0.19954812091E+02 0.15463775653E+02 0.12550930007E+02
 0.10748697779E+02 0.96797835251E+01 0.91041471747E+01 0.96448606110E+01 0.98122861099E+01
 0.10331484965E+02 0.11283811414E+02 0.12869135880E+02 0.15410909113E+02 0.19270746448E+02
 0.25243150381E+02 0.34137424609E+02 0.45577400274E+02 0.58159418979E+02 0.70481166468E+02
 0.82079514212E+02 0.93203032204E+02 0.10353874294E+03 0.11136217818E+03 0.11433711334E+03
 0.11136217818E+03 0.10353874294E+03 0.93203032204E+02 0.82079514212E+02 0.70481166468E+02
 0.58159418979E+02 0.45577400274E+02 0.34137424609E+02 0.25243150381E+02 0.19270746448E+02
 0.15410909113E+02 0.12869135880E+02 0.11283811414E+02 0.10331484965E+02 0.98122861099E+01
 0.10930410019E+02 0.11062271111E+02 0.11472131452E+02 0.12228010424E+02 0.13495603770E+02
 0.15544534091E+02 0.18672396516E+02 0.23318337027E+02 0.30244767458E+02 0.39469071824E+02
 0.50155837121E+02 0.61244136914E+02 0.72104327914E+02 0.82489247749E+02 0.91798441040E+02
 0.98584281271E+02 0.10111057606E+03 0.98584281271E+02 0.91798441040E+02 0.82489247749E+02
 0.72104327914E+02 0.61244136914E+02 0.50155837121E+02 0.39469071824E+02 0.30244767458E+02
 0.23318337027E+02 0.18672396516E+02 0.15544534091E+02 0.13495603770E+02 0.12228010424E+02
 0.11472131452E+02 0.11062271111E+02 0.13374612447E+02 0.13427305989E+02 0.13607644180E+02
 0.13997383842E+02 0.14760459012E+02 0.16138042972E+02 0.18396446542E+02 0.21759239192E+02
 0.26747675785E+02 0.33685867808E+02 0.42271816200E+02 0.51864964310E+02 0.61848130283E+02
 0.71634015033E+02 0.80317259341E+02 0.86503324805E+02 0.88770216414E+02 0.86503324805E+02
 0.80317259341E+02 0.71634015033E+02 0.61848130283E+02 0.51864964310E+02 0.42271816200E+02
 0.33685867808E+02 0.26747675785E+02 0.21759239192E+02 0.18396446542E+02 0.16138042972E+02
 0.14760459012E+02 0.13997383842E+02 0.13607644180E+02 0.13427305989E+02 0.17658048782E+02
 0.17565938941E+02 0.17335268080E+02 0.17101945666E+02 0.17079771599E+02 0.17528374608E+02
 0.18706849657E+02 0.20804983714E+02 0.24014855730E+02 0.28734912627E+02 0.35045301683E+02
 0.42690091880E+02 0.51203702891E+02 0.59890460325E+02 0.67690496944E+02 0.73226846689E+02
 0.75244417388E+02 0.73226846689E+02 0.67690496944E+02 0.59890460325E+02 0.51203702891E+02
 0.42690091880E+02 0.35045301683E+02 0.28734912627E+02 0.24014855730E+02 0.20804983714E+02
 0.18706849657E+02 0.17528374608E+02 0.17079771599E+02 0.17101945666E+02 0.17335268080E+02
 0.17565938941E+02 0.24564143940E+02 0.24208493840E+02 0.23280032701E+02 0.22092994503E+02
 0.20940708837E+02 0.20122241048E+02 0.19935478240E+02 0.20599418697E+02 0.22207979247E+02
 0.24902825738E+02 0.28915529759E+02 0.34239646181E+02 0.40601187164E+02 0.47397277072E+02
 0.53645031502E+02 0.58118740089E+02 0.59752451418E+02 0.58118740089E+02 0.53645031502E+02
 0.47397277072E+02 0.40601187164E+02 0.34239646181E+02 0.28915529759E+02 0.24902825738E+02
 0.22207979247E+02 0.20599418697E+02 0.19935478240E+02 0.20122241048E+02 0.20940708837E+02
 0.22092994503E+02 0.23280032701E+02 0.24208493840E+02 0.37398336212E+02 0.36345352843E+02
 0.33595105512E+02 0.30108019477E+02 0.26830444724E+02 0.24260515586E+02 0.22401014221E+02
 0.21366552880E+02 0.21326759778E+02 0.22281946432E+02 0.24240092070E+02 0.27258821295E+02
 0.31200314668E+02 0.35646061626E+02 0.39862309784E+02 0.42929257910E+02 0.44056286211E+02
 0.42929257910E+02 0.39862309784E+02 0.35646061626E+02 0.31200314668E+02 0.27258821295E+02
 0.24240092070E+02 0.22281946432E+02 0.21326759778E+02 0.21366552880E+02 0.22401014221E+02
 0.24260515586E+02 0.26830444724E+02 0.30108019477E+02 0.33595105512E+02 0.36345352843E+02
 0.60268256998E+02 0.57988227305E+02 0.51975696649E+02 0.44192026138E+02 0.36636267551E+02
 0.30543423007E+02 0.26228614214E+02 0.23277328897E+02 0.21412980158E+02 0.20718260120E+02
 0.21056542322E+02 0.22222911189E+02 0.24085453466E+02 0.26382817915E+02 0.28660969376E+02
 0.30353561140E+02 0.30980603659E+02 0.30353561140E+02 0.28660969376E+02 0.26382817915E+02
 0.24085453466E+02 0.22222911189E+02 0.21056542322E+02 0.20718260120E+02 0.21412980158E+02
 0.23277328897E+02 0.26228614214E+02 0.30543423007E+02 0.36636267551E+02 0.44192026138E+02
 0.51975696649E+02 0.57988227305E+02 0.93402821153E+02 0.89512610277E+02 0.79196636328E+02
 0.65645315228E+02 0.52091962392E+02 0.40611391911E+02 0.32041379553E+02 0.26305821168E+02
 0.22512871946E+02 0.20112238707E+02 0.19007240798E+02 0.18878861757E+02 0.19380963805E+02
 0.20227518141E+02 0.21146574341E+02 0.21846051839E+02 0.22105762973E+02 0.21846051839E+02
 0.21146574341E+02 0.20227518141E+02 0.19380963805E+02 0.18878861757E+02 0.19007240798E+02
 0.20112238707E+02 0.22512871946E+02 0.26305821168E+02 0.32041379553E+02 0.40611391911E+02
 0.52091962392E+02 0.65645315228E+02 0.79196636328E+02 0.89512610277E+02 0.13407465330E+03
 0.12840725504E+03 0.11337051558E+03 0.93503012368E+02 0.73224123910E+02 0.55268766779E+02
 0.40952459994E+02 0.30834342420E+02 0.24500838897E+02 0.20397769484E+02 0.17909450446E+02
 0.16679886124E+02 0.16277630999E+02 0.16340821136E+02 0.16566795279E+02 0.16749961993E+02
 0.16813712076E+02 0.16749961993E+02 0.16566795279E+02 0.16340821136E+02 0.16277630999E+02
 0.16679886124E+02 0.17909450446E+02 0.20397769484E+02 0.24500838897E+02 0.30834342420E+02
 0.40952459994E+02 0.55268766779E+02 0.73224123910E+02 0.93503012368E+02 0.11337051558E+03
 0.12840725504E+03 0.17978326935E+03 0.17223551589E+03 0.15230053637E+03 0.12605751022E+03
 0.99031659176E+02 0.74264243941E+02 0.53288281942E+02 0.37439741357E+02 0.27309878811E+02
 0.21367581063E+02 0.17573044120E+02 0.15388256344E+02 0.14288149254E+02 0.13827759074E+02
 0.13650544940E+02 0.13551657211E+02 0.13509504358E+02 0.13551657211E+02 0.13650544940E+02
 0.13827759074E+02 0.14288149254E+02 0.15388256344E+02 0.17573044120E+02 0.21367581063E+02
 0.27309878811E+02 0.37439741357E+02 0.53288281942E+02 0.74264243941E+02 0.99031659176E+02
 0.12605751022E+03 0.15230053637E+03 0.17223551589E+03 0.22882189066E+03 0.21921358652E+03
 0.19403599000E+03 0.16126121338E+03 0.12760458919E+03 0.96117816846E+02 0.68186697786E+02
 0.45854256977E+02 0.30983643012E+02 0.22713904806E+02 0.17725893622E+02 0.14719645711E+02
 0.13090452259E+02 0.12291323922E+02 0.11877419794E+02 0.11610070539E+02 0.11501850784E+02
 0.11610070539E+02 0.11877419794E+02 0.12291323922E+02 0.13090452259E+02 0.14719645711E+02
 0.17725893622E+02 0.22713904806E+02 0.30983643012E+02 0.45854256977E+02 0.68186697786E+02
 0.96117816846E+02 0.12760458919E+03 0.16126121338E+03 0.19403599000E+03 0.21921358652E+03
 0.27672135626E+03 0.26496067379E+03 0.23438615058E+03 0.19511110001E+03 0.15518170109E+03
 0.11755842596E+03 0.83211368960E+02 0.54654408511E+02 0.34966606460E+02 0.24107090721E+02
 0.18085168050E+02 0.14414164931E+02 0.12395215511E+02 0.11384063064E+02 0.10840917707E+02
 0.10479730051E+02 0.10332507459E+02 0.10479730051E+02 0.10840917707E+02 0.11384063064E+02
 0.12395215511E+02 0.14414164931E+02 0.18085168050E+02 0.24107090721E+02 0.34966606460E+02
 0.54654408511E+02 0.83211368960E+02 0.11755842596E+03 0.15518170109E+03 0.19511110001E+03
 0.23438615058E+03 0.26496067379E+03 0.31354875608E+03 0.30003167384E+03 0.26507729163E+03
 0.22061233528E+03 0.17584377251E+03 0.13367522722E+03 0.94647794196E+02 0.61492485752E+02
 0.38141360512E+02 0.25203481153E+02 0.18408220059E+02 0.14291807577E+02 0.12025133423E+02
 0.10894230806E+02 0.10287131354E+02 0.98786309059E+01 0.97105996496E+01 0.98786309059E+01
 0.10287131354E+02 0.10894230806E+02 0.12025133423E+02 0.14291807577E+02 0.18408220059E+02
 0.25203481153E+02 0.38141360512E+02 0.61492485752E+02 0.94647794196E+02 0.13367522722E+03
 0.17584377251E+03 0.22061233528E+03 0.26507729163E+03 0.30003167384E+03 0.31370864742E+03
 0.30022391992E+03 0.26533980847E+03 0.22092472862E+03 0.17614208050E+03 0.13389699197E+03
 0.94769306758E+02 0.61533000882E+02 0.38139758161E+02 0.25191602848E+02 0.18399953681E+02
 0.14290651690E+02 0.12031579446E+02 0.10907351741E+02 0.10305450455E+02 0.99003443983E+01
 0.97335131574E+01 0.99003443983E+01 0.10305450455E+02 0.10907351741E+02 0.12031579446E+02
 0.14290651690E+02 0.18399953681E+02 0.25191602848E+02 0.38139758161E+02 0.61533000882E+02
 0.94769306758E+02 0.13389699197E+03 0.17614208050E+03 0.22092472862E+03 0.26533980847E+03
 0.30022391992E+03 0.30071403612E+03 0.28785356067E+03 0.25452375157E+03 0.21194341451E+03
 0.16886021616E+03 0.12820218506E+03 0.90710045116E+02 0.59089991938E+02 0.36994990388E+02
 0.24793111024E+02 0.18277788644E+02 0.14321840883E+02 0.12146351570E+02 0.11060531282E+02
 0.10477719146E+02 0.10086791057E+02 0.99263695264E+01 0.10086791057E+02 0.10477719146E+02
 0.11060531282E+02 0.12146351570E+02 0.14321840883E+02 0.18277788644E+02 0.24793111024E+02
 0.36994990388E+02 0.59089991938E+02 0.90710045116E+02 0.12820218506E+03 0.16886021616E+03
 0.21194341451E+03 0.25452375157E+03 0.28785356067E+03 0.26648610682E+03 0.25521914034E+03
 0.22586498162E+03 0.18801008754E+03 0.14937748195E+03 0.11297140123E+03 0.79910983245E+02
 0.52652939442E+02 0.34015768995E+02 0.23752236798E+02 0.17964852897E+02 0.14440451639E+02
 0.12505348607E+02 0.11536449479E+02 0.11016434894E+02 0.10671706338E+02 0.10531494062E+02
 0.10671706338E+02 0.11016434894E+02 0.11536449479E+02 0.12505348607E+02 0.14440451639E+02
 0.17964852897E+02 0.23752236798E+02 0.34015768995E+02 0.52652939442E+02 0.79910983245E+02
 0.11297140123E+03 0.14937748195E+03 0.18801008754E+03 0.22586498162E+03 0.25521914034E+03
 0.22148255006E+03 0.21219283091E+03 0.18780565209E+03 0.15596649286E+03 0.12320704716E+03
 0.92625604605E+02 0.65690127080E+02 0.44357747005E+02 0.30270507052E+02 0.22414935456E+02
 0.17616118260E+02 0.14735429966E+02 0.13178382179E+02 0.12416276336E+02 0.12022844596E+02
 0.11769691844E+02 0.11667390234E+02 0.11769691844E+02 0.12022844596E+02 0.12416276336E+02
 0.13178382179E+02 0.14735429966E+02 0.17616118260E+02 0.22414935456E+02 0.30270507052E+02
 0.44357747005E+02 0.65690127080E+02 0.92625604605E+02 0.12320704716E+03 0.15596649286E+03
 0.18780565209E+03 0.21219283091E+03 0.17468018882E+03 0.16732827068E+03 0.14788827113E+03
 0.12225914544E+03 0.95868574686E+02 0.71780243663E+02 0.51546566143E+02 0.36409739484E+02
 0.26798684883E+02 0.21106783096E+02 0.17465516704E+02 0.15379912951E+02 0.14335959559E+02
 0.13903856877E+02 0.13741685596E+02 0.13652829937E+02 0.13614804624E+02 0.13652829937E+02
 0.13741685596E+02 0.13903856877E+02 0.14335959559E+02 0.15379912951E+02 0.17465516704E+02
 0.21106783096E+02 0.26798684883E+02 0.36409739484E+02 0.51546566143E+02 0.71780243663E+02
 0.95868574686E+02 0.12225914544E+03 0.14788827113E+03 0.16732827068E+03 0.13039822084E+03
 0.12486561673E+03 0.11018091549E+03 0.90777105658E+02 0.71004089716E+02 0.53582078008E+02
 0.39804046015E+02 0.30150225444E+02 0.24109466043E+02 0.20161785573E+02 0.17786059878E+02
 0.16624932324E+02 0.16257895481E+02 0.16335499696E+02 0.16566652240E+02 0.16752767957E+02
 0.16817854530E+02 0.16752767957E+02 0.16566652240E+02 0.16335499696E+02 0.16257895481E+02
 0.16624932324E+02 0.17786059878E+02 0.20161785573E+02 0.24109466043E+02 0.30150225444E+02
 0.39804046015E+02 0.53582078008E+02 0.71004089716E+02 0.90777105658E+02 0.11018091549E+03
 0.12486561673E+03 0.90727866096E+02 0.86943000648E+02 0.76908333229E+02 0.63737891740E+02
 0.50597380644E+02 0.39520175918E+02 0.31305918252E+02 0.25826434604E+02 0.22173081269E+02
 0.19878689738E+02 0.18842119120E+02 0.18747738409E+02 0.19258698015E+02 0.20091750565E+02
 0.20986253929E+02 0.21664493557E+02 0.21916044228E+02 0.21664493557E+02 0.20986253929E+02
 0.20091750565E+02 0.19258698015E+02 0.18747738409E+02 0.18842119120E+02 0.19878689738E+02
 0.22173081269E+02 0.25826434604E+02 0.31305918252E+02 0.39520175918E+02 0.50597380644E+02
 0.63737891740E+02 0.76908333229E+02 0.86943000648E+02 0.58498145774E+02 0.56295781365E+02
 0.50490978277E+02 0.42985613217E+02 0.35717058423E+02 0.29874338823E+02 0.25738932592E+02
 0.22886571453E+02 0.21101949155E+02 0.20460955704E+02 0.20822877081E+02 0.21974697737E+02
 0.23783358323E+02 0.26000214959E+02 0.28192200402E+02 0.29818619239E+02 0.30420840263E+02
 0.29818619239E+02 0.28192200402E+02 0.26000214959E+02 0.23783358323E+02 0.21974697737E+02
 0.20822877081E+02 0.20460955704E+02 0.21101949155E+02 0.22886571453E+02 0.25738932592E+02
 0.29874338823E+02 0.35717058423E+02 0.42985613217E+02 0.50490978277E+02 0.56295781365E+02
 0.36433286816E+02 0.35424727376E+02 0.32791218525E+02 0.29453045313E+02 0.26312544960E+02
 0.23834080887E+02 0.22025382023E+02 0.21034313966E+02 0.21020301638E+02 0.21977554430E+02
 0.23893590458E+02 0.26821509228E+02 0.30628212887E+02 0.34909726037E+02 0.38961862742E+02
 0.41905427758E+02 0.42986386530E+02 0.41905427758E+02 0.38961862742E+02 0.34909726037E+02
 0.30628212887E+02 0.26821509228E+02 0.23893590458E+02 0.21977554430E+02 0.21020301638E+02
 0.21034313966E+02 0.22025382023E+02 0.23834080887E+02 0.26312544960E+02 0.29453045313E+02
 0.32791218525E+02 0.35424727376E+02 0.24133328125E+02 0.23791955003E+02 0.22897937979E+02
 0.21744852113E+02 0.20616178829E+02 0.19818557535E+02 0.19642525916E+02 0.20301154756E+02
 0.21885637985E+02 0.24514647742E+02 0.28414096236E+02 0.33578230043E+02 0.39733726713E+02
 0.46289516765E+02 0.52298033347E+02 0.56590376401E+02 0.58155905957E+02 0.56590376401E+02
 0.52298033347E+02 0.46289516765E+02 0.39733726713E+02 0.33578230043E+02 0.28414096236E+02
 0.24514647742E+02 0.21885637985E+02 0.20301154756E+02 0.19642525916E+02 0.19818557535E+02
 0.20616178829E+02 0.21744852113E+02 0.22897937979E+02 0.23791955003E+02 0.17450490801E+02
 0.17359941535E+02 0.17133279124E+02 0.16903954988E+02 0.16881030250E+02 0.17317829621E+02
 0.18467919355E+02 0.20520198489E+02 0.23647641665E+02 0.28239904691E+02 0.34387981694E+02
 0.41836163573E+02 0.50107972185E+02 0.58506191271E+02 0.66006050506E+02 0.71306332412E+02
 0.73233412483E+02 0.71306332412E+02 0.66006050506E+02 0.58506191271E+02 0.50107972185E+02
 0.41836163573E+02 0.34387981694E+02 0.28239904691E+02 0.23647641665E+02 0.20520198489E+02
 0.18467919355E+02 0.17317829621E+02 0.16881030250E+02 0.16903954988E+02 0.17133279124E+02
 0.17359941535E+02 0.13313390437E+02 0.13363719297E+02 0.13536647409E+02 0.13912370543E+02
 0.14651128196E+02 0.15988831136E+02 0.18188298228E+02 0.21465575280E+02 0.26316379129E+02
 0.33086821753E+02 0.41497718031E+02 0.50902979750E+02 0.60649109454E+02 0.70119663483E+02
 0.78440746441E+02 0.84323672438E+02 0.86470973864E+02 0.84323672438E+02 0.78440746441E+02
 0.70119663483E+02 0.60649109454E+02 0.50902979750E+02 0.41497718031E+02 0.33086821753E+02
 0.26316379129E+02 0.21465575280E+02 0.18188298228E+02 0.15988831136E+02 0.14651128196E+02
 0.13912370543E+02 0.13536647409E+02 0.13363719297E+02 0.10969970809E+02 0.11096368262E+02
 0.11489944863E+02 0.12218157171E+02 0.13443990354E+02 0.15432661254E+02 0.18480195181E+02
 0.22996694580E+02 0.29744124897E+02 0.38785552899E+02 0.49319194047E+02 0.60262131347E+02
 0.70905764413E+02 0.80933906994E+02 0.89778683781E+02 0.96151373146E+02 0.98510626273E+02
 0.96151373146E+02 0.89778683781E+02 0.80933906994E+02 0.70905764413E+02 0.60262131347E+02
 0.49319194047E+02 0.38785552899E+02 0.29744124897E+02 0.22996694580E+02 0.18480195181E+02
 0.15432661254E+02 0.13443990354E+02 0.12218157171E+02 0.11489944863E+02 0.11096368262E+02
 0.97495726724E+01 0.99094514596E+01 0.10406409008E+02 0.11321892629E+02 0.12853636010E+02
 0.15321345199E+02 0.19080562461E+02 0.24884810122E+02 0.33571663346E+02 0.44831728702E+02
 0.57300301703E+02 0.69524415515E+02 0.80905694151E+02 0.91579077776E+02 0.10127771320E+03
 0.10851642375E+03 0.11125235731E+03 0.10851642375E+03 0.10127771320E+03 0.91579077776E+02
 0.80905694151E+02 0.69524415515E+02 0.57300301703E+02 0.44831728702E+02 0.33571663346E+02
 0.24884810122E+02 0.19080562461E+02 0.15321345199E+02 0.12853636010E+02 0.11321892629E+02
 0.10406409008E+02 0.99094514596E+01 0.90709064508E+01 0.92460882501E+01 0.97950511247E+01
 0.10820338644E+02 0.12560342025E+02 0.15389338862E+02 0.19759485419E+02 0.26754643345E+02
 0.37189360440E+02 0.50397738304E+02 0.64536842543E+02 0.77919627336E+02 0.90175786337E+02
 0.10190585615E+03 0.11301602364E+03 0.12159950184E+03 0.12490037246E+03 0.12159950184E+03
 0.11301602364E+03 0.10190585615E+03 0.90175786337E+02 0.77919627336E+02 0.64536842543E+02
 0.50397738304E+02 0.37189360440E+02 0.26754643345E+02 0.19759485419E+02 0.15389338862E+02
 0.12560342025E+02 0.10820338644E+02 0.97950511247E+01 0.92460882501E+01 0.86238016126E+01
 0.88102640300E+01 0.93970823051E+01 0.10500732485E+02 0.12386596902E+02 0.15464806857E+02
 0.20282372726E+02 0.28143462372E+02 0.39822094678E+02 0.54402487838E+02 0.69733816545E+02
 0.84024434273E+02 0.97128021998E+02 0.10998620669E+03 0.12254962515E+03 0.13246114832E+03
 0.13630847422E+03 0.13246114832E+03 0.12254962515E+03 0.10998620669E+03 0.97128021998E+02
 0.84024434273E+02 0.69733816545E+02 0.54402487838E+02 0.39822094678E+02 0.28143462372E+02
 0.20282372726E+02 0.15464806857E+02 0.12386596902E+02 0.10500732485E+02 0.93970823051E+01
 0.88102640300E+01 0.84451306980E+01 0.86368380652E+01 0.92405134281E+01 0.10376780845E+02
 0.12319594684E+02 0.15490830154E+02 0.20477087899E+02 0.28658069786E+02 0.40790653820E+02
 0.55870260654E+02 0.71641684094E+02 0.86287763304E+02 0.99754800018E+02 0.11310842409E+03
 0.12629788761E+03 0.13677131350E+03 0.14084780012E+03 0.13677131350E+03 0.12629788761E+03
 0.11310842409E+03 0.99754800018E+02 0.86287763304E+02 0.71641684094E+02 0.55870260654E+02
 0.40790653820E+02 0.28658069786E+02 0.20477087899E+02 0.15490830154E+02 0.12319594684E+02
 0.10376780845E+02 0.92405134281E+01 0.86368380652E+01 0.86238016126E+01 0.88102640300E+01
 0.93970823051E+01 0.10500732485E+02 0.12386596902E+02 0.15464806857E+02 0.20282372726E+02
 0.28143462372E+02 0.39822094678E+02 0.54402487838E+02 0.69733816545E+02 0.84024434273E+02
 0.97128021998E+02 0.10998620669E+03 0.12254962515E+03 0.13246114832E+03 0.13630847422E+03
 0.13246114832E+03 0.12254962515E+03 0.10998620669E+03 0.97128021998E+02 0.84024434273E+02
 0.69733816545E+02 0.54402487838E+02 0.39822094678E+02 0.28143462372E+02 0.20282372726E+02
 0.15464806857E+02 0.12386596902E+02 0.10500732485E+02 0.93970823051E+01 0.88102640300E+01
 0.90709064508E+01 0.92460882501E+01 0.97950511247E+01 0.10820338644E+02 0.12560342025E+02
 0.15389338862E+02 0.19759485419E+02 0.26754643345E+02 0.37189360440E+02 0.50397738304E+02
 0.64536842543E+02 0.77919627336E+02 0.90175786337E+02 0.10190585615E+03 0.11301602364E+03
 0.12159950184E+03 0.12490037246E+03 0.12159950184E+03 0.11301602364E+03 0.10190585615E+03
 0.90175786337E+02 0.77919627336E+02 0.64536842543E+02 0.50397738304E+02 0.37189360440E+02