   4   4   0   0
  0.1320827E+02  0.3752338E-09  0.3752338E-09  0.3752338E-09  0.5000000E-15
  1.000000000000000E-004
  CAR 
 unknown system                          
     29.29010517     -1.24815342  301     10.70548558      1.00000000
     -1.248  0.0000E+00  0.0000E+00
     -1.146  0.0000E+00  0.0000E+00
     -1.045  0.0000E+00  0.0000E+00
     -0.943 -0.2334E-32 -0.2376E-33
     -0.841 -0.9432E-29 -0.9604E-30
     -0.739 -0.2262E-25 -0.2303E-26
     -0.637 -0.3216E-22 -0.3276E-23
     -0.536 -0.2710E-19 -0.2761E-20
     -0.434 -0.1352E-16 -0.1379E-17
     -0.332 -0.3864E-14 -0.3947E-15
     -0.230 -0.6706E-12 -0.6866E-13
     -0.128 -0.6873E-10 -0.7065E-11
     -0.027 -0.4158E-08 -0.4303E-09
      0.075 -0.1486E-06 -0.1555E-07
      0.177 -0.3143E-05 -0.3355E-06
      0.279 -0.3951E-04 -0.4357E-05
      0.381 -0.2952E-03 -0.3441E-04
      0.482 -0.1280E-02 -0.1647E-03
      0.584 -0.2755E-02 -0.4452E-03
      0.686  0.7501E-03 -0.3689E-03
      0.788  0.2254E-01  0.1926E-02
      0.890  0.6794E-01  0.8842E-02
      0.991  0.1101E+00  0.2005E-01
      1.093  0.1197E+00  0.3224E-01
      1.195  0.1342E+00  0.4590E-01
      1.297  0.2045E+00  0.6672E-01
      1.398  0.2588E+00  0.9307E-01
      1.500  0.2116E+00  0.1146E+00
      1.602  0.1694E+00  0.1319E+00
      1.704  0.2443E+00  0.1567E+00
      1.806  0.3357E+00  0.1909E+00
      1.907  0.3388E+00  0.2254E+00
      2.009  0.3070E+00  0.2566E+00
      2.111  0.3448E+00  0.2917E+00
      2.213  0.4236E+00  0.3348E+00
      2.315  0.3992E+00  0.3755E+00
      2.416  0.3250E+00  0.4086E+00
      2.518  0.3739E+00  0.4466E+00
      2.620  0.5351E+00  0.5011E+00
      2.722  0.6683E+00  0.5691E+00
      2.824  0.6915E+00  0.6395E+00
      2.925  0.5846E+00  0.6990E+00
      3.027  0.4687E+00  0.7467E+00
      3.129  0.6181E+00  0.8097E+00
      3.231  0.9470E+00  0.9061E+00
      3.333  0.1055E+01  0.1013E+01
      3.434  0.1011E+01  0.1116E+01
      3.536  0.1312E+01  0.1250E+01
      3.638  0.1853E+01  0.1438E+01
      3.740  0.2182E+01  0.1661E+01
      3.842  0.2333E+01  0.1898E+01
      3.943  0.2354E+01  0.2138E+01
      4.045  0.2347E+01  0.2377E+01
      4.147  0.2578E+01  0.2639E+01
      4.249  0.3101E+01  0.2955E+01
      4.351  0.3806E+01  0.3342E+01
      4.452  0.4462E+01  0.3796E+01
      4.554  0.4920E+01  0.4297E+01
      4.656  0.5253E+01  0.4832E+01
      4.758  0.5537E+01  0.5395E+01
      4.859  0.5906E+01  0.5997E+01
      4.961  0.6209E+01  0.6629E+01
      5.063  0.6055E+01  0.7245E+01
      5.165  0.5613E+01  0.7816E+01
      5.267  0.5385E+01  0.8364E+01
      5.368  0.5429E+01  0.8917E+01
      5.470  0.5323E+01  0.9459E+01
      5.572  0.4822E+01  0.9950E+01
      5.674  0.4229E+01  0.1038E+02
      5.776  0.3960E+01  0.1078E+02
      5.877  0.4006E+01  0.1119E+02
      5.979  0.4053E+01  0.1160E+02
      6.081  0.3961E+01  0.1201E+02
      6.183  0.3932E+01  0.1241E+02
      6.285  0.4216E+01  0.1284E+02
      6.386  0.4816E+01  0.1333E+02
      6.488  0.5539E+01  0.1389E+02
      6.590  0.6244E+01  0.1453E+02
      6.692  0.6638E+01  0.1520E+02
      6.794  0.6358E+01  0.1585E+02
      6.895  0.5643E+01  0.1642E+02
      6.997  0.5208E+01  0.1695E+02
      7.099  0.5222E+01  0.1749E+02
      7.201  0.5479E+01  0.1804E+02
      7.303  0.6373E+01  0.1869E+02
      7.404  0.8140E+01  0.1952E+02
      7.506  0.1008E+02  0.2055E+02
      7.608  0.1104E+02  0.2167E+02
      7.710  0.1027E+02  0.2271E+02
      7.812  0.8458E+01  0.2358E+02
      7.913  0.7171E+01  0.2431E+02
      8.015  0.6960E+01  0.2501E+02
      8.117  0.7267E+01  0.2575E+02
      8.219  0.7578E+01  0.2653E+02
      8.321  0.7882E+01  0.2733E+02
      8.422  0.7950E+01  0.2814E+02
      8.524  0.7098E+01  0.2886E+02
      8.626  0.5804E+01  0.2945E+02
      8.728  0.5282E+01  0.2999E+02
      8.829  0.5245E+01  0.3052E+02
      8.931  0.4679E+01  0.3100E+02
      9.033  0.3772E+01  0.3138E+02
      9.135  0.3182E+01  0.3171E+02
      9.237  0.3081E+01  0.3202E+02
      9.338  0.3581E+01  0.3238E+02
      9.440  0.4706E+01  0.3286E+02
      9.542  0.5986E+01  0.3347E+02
      9.644  0.6789E+01  0.3416E+02
      9.746  0.6839E+01  0.3486E+02
      9.847  0.6283E+01  0.3550E+02
      9.949  0.5654E+01  0.3607E+02
     10.051  0.5304E+01  0.3661E+02
     10.153  0.5027E+01  0.3713E+02
     10.255  0.4975E+01  0.3763E+02
     10.356  0.5540E+01  0.3820E+02
     10.458  0.6015E+01  0.3881E+02
     10.560  0.5511E+01  0.3937E+02
     10.662  0.4487E+01  0.3983E+02
     10.764  0.3867E+01  0.4022E+02
     10.865  0.3752E+01  0.4060E+02
     10.967  0.3700E+01  0.4098E+02
     11.069  0.3388E+01  0.4132E+02
     11.171  0.3059E+01  0.4164E+02
     11.273  0.3023E+01  0.4194E+02
     11.374  0.2985E+01  0.4225E+02
     11.476  0.2684E+01  0.4252E+02
     11.578  0.2268E+01  0.4275E+02
     11.680  0.1811E+01  0.4294E+02
     11.782  0.1358E+01  0.4307E+02
     11.883  0.1166E+01  0.4319E+02
     11.985  0.1248E+01  0.4332E+02
     12.087  0.1224E+01  0.4344E+02
     12.189  0.1034E+01  0.4355E+02
     12.290  0.9539E+00  0.4365E+02
     12.392  0.9346E+00  0.4374E+02
     12.494  0.8223E+00  0.4383E+02
     12.596  0.6907E+00  0.4390E+02
     12.698  0.5791E+00  0.4395E+02
     12.799  0.5408E+00  0.4401E+02
     12.901  0.6552E+00  0.4408E+02
     13.003  0.7740E+00  0.4416E+02
     13.105  0.7671E+00  0.4423E+02
     13.207  0.7542E+00  0.4431E+02
     13.308  0.7471E+00  0.4439E+02
     13.410  0.7064E+00  0.4446E+02
     13.512  0.7500E+00  0.4453E+02
     13.614  0.8372E+00  0.4462E+02
     13.716  0.8226E+00  0.4470E+02
     13.817  0.7716E+00  0.4478E+02
     13.919  0.8064E+00  0.4486E+02
     14.021  0.9359E+00  0.4496E+02
     14.123  0.1127E+01  0.4507E+02
     14.225  0.1329E+01  0.4521E+02
     14.326  0.1417E+01  0.4535E+02
     14.428  0.1342E+01  0.4549E+02
     14.530  0.1266E+01  0.4562E+02
     14.632  0.1282E+01  0.4575E+02
     14.734  0.1288E+01  0.4588E+02
     14.835  0.1141E+01  0.4600E+02
     14.937  0.8265E+00  0.4608E+02
     15.039  0.6113E+00  0.4614E+02
     15.141  0.6425E+00  0.4621E+02
     15.243  0.6859E+00  0.4628E+02
     15.344  0.6903E+00  0.4635E+02
     15.446  0.8383E+00  0.4643E+02
     15.548  0.1069E+01  0.4654E+02
     15.650  0.1203E+01  0.4667E+02
     15.751  0.1167E+01  0.4678E+02
     15.853  0.9923E+00  0.4688E+02
     15.955  0.7195E+00  0.4696E+02
     16.057  0.4366E+00  0.4700E+02
     16.159  0.3872E+00  0.4704E+02
     16.260  0.6454E+00  0.4711E+02
     16.362  0.9179E+00  0.4720E+02
     16.464  0.9678E+00  0.4730E+02
     16.566  0.7987E+00  0.4738E+02
     16.668  0.4797E+00  0.4743E+02
     16.769  0.1957E+00  0.4745E+02
     16.871  0.2035E+00  0.4747E+02
     16.973  0.5571E+00  0.4753E+02
     17.075  0.9894E+00  0.4763E+02
     17.177  0.1326E+01  0.4776E+02
     17.278  0.1650E+01  0.4793E+02
     17.380  0.1725E+01  0.4811E+02
     17.482  0.1383E+01  0.4825E+02
     17.584  0.1065E+01  0.4836E+02
     17.686  0.1026E+01  0.4846E+02
     17.787  0.1078E+01  0.4857E+02
     17.889  0.1157E+01  0.4869E+02
     17.991  0.1273E+01  0.4882E+02
     18.093  0.1360E+01  0.4896E+02
     18.195  0.1381E+01  0.4910E+02
     18.296  0.1273E+01  0.4923E+02
     18.398  0.1086E+01  0.4934E+02
     18.500  0.1036E+01  0.4944E+02
     18.602  0.1190E+01  0.4956E+02
     18.704  0.1337E+01  0.4970E+02
     18.805  0.1297E+01  0.4983E+02
     18.907  0.1162E+01  0.4995E+02
     19.009  0.1073E+01  0.5006E+02
     19.111  0.1091E+01  0.5017E+02
     19.212  0.1175E+01  0.5029E+02
     19.314  0.1147E+01  0.5041E+02
     19.416  0.9893E+00  0.5051E+02
     19.518  0.9091E+00  0.5060E+02
     19.620  0.9834E+00  0.5070E+02
     19.721  0.1133E+01  0.5081E+02
     19.823  0.1349E+01  0.5095E+02
     19.925  0.1443E+01  0.5110E+02
     20.027  0.1240E+01  0.5122E+02
     20.129  0.1080E+01  0.5133E+02
     20.230  0.1176E+01  0.5145E+02
     20.332  0.1267E+01  0.5158E+02
     20.434  0.1253E+01  0.5171E+02
     20.536  0.1307E+01  0.5184E+02
     20.638  0.1435E+01  0.5199E+02
     20.739  0.1390E+01  0.5213E+02
     20.841  0.1168E+01  0.5225E+02
     20.943  0.1075E+01  0.5236E+02
     21.045  0.1255E+01  0.5249E+02
     21.147  0.1488E+01  0.5264E+02
     21.248  0.1559E+01  0.5280E+02
     21.350  0.1495E+01  0.5295E+02
     21.452  0.1286E+01  0.5308E+02
     21.554  0.9693E+00  0.5318E+02
     21.656  0.8621E+00  0.5327E+02
     21.757  0.1153E+01  0.5338E+02
     21.859  0.1641E+01  0.5355E+02
     21.961  0.2024E+01  0.5376E+02
     22.063  0.2144E+01  0.5398E+02
     22.165  0.2056E+01  0.5419E+02
     22.266  0.1867E+01  0.5438E+02
     22.368  0.1698E+01  0.5455E+02
     22.470  0.1700E+01  0.5472E+02
     22.572  0.1803E+01  0.5491E+02
     22.673  0.1811E+01  0.5509E+02
     22.775  0.1653E+01  0.5526E+02
     22.877  0.1419E+01  0.5540E+02
     22.979  0.1243E+01  0.5553E+02
     23.081  0.1219E+01  0.5565E+02
     23.182  0.1376E+01  0.5579E+02
     23.284  0.1672E+01  0.5596E+02
     23.386  0.1922E+01  0.5616E+02
     23.488  0.2006E+01  0.5636E+02
     23.590  0.2077E+01  0.5657E+02
     23.691  0.2161E+01  0.5679E+02
     23.793  0.2075E+01  0.5701E+02
     23.895  0.1840E+01  0.5719E+02
     23.997  0.1601E+01  0.5736E+02
     24.099  0.1462E+01  0.5750E+02
     24.200  0.1447E+01  0.5765E+02
     24.302  0.1444E+01  0.5780E+02
     24.404  0.1344E+01  0.5794E+02
     24.506  0.1292E+01  0.5807E+02
     24.608  0.1429E+01  0.5821E+02
     24.709  0.1484E+01  0.5836E+02
     24.811  0.1281E+01  0.5849E+02
     24.913  0.1077E+01  0.5860E+02
     25.015  0.1032E+01  0.5871E+02
     25.117  0.1122E+01  0.5882E+02
     25.218  0.1202E+01  0.5895E+02
     25.320  0.1035E+01  0.5905E+02
     25.422  0.6813E+00  0.5912E+02
     25.524  0.4865E+00  0.5917E+02
     25.626  0.5618E+00  0.5923E+02
     25.727  0.5782E+00  0.5929E+02
     25.829  0.4147E+00  0.5933E+02
     25.931  0.3424E+00  0.5936E+02
     26.033  0.4155E+00  0.5940E+02
     26.134  0.4840E+00  0.5945E+02
     26.236  0.4945E+00  0.5950E+02
     26.338  0.4702E+00  0.5955E+02
     26.440  0.4399E+00  0.5960E+02
     26.542  0.3591E+00  0.5963E+02
     26.643  0.2399E+00  0.5966E+02
     26.745  0.2061E+00  0.5968E+02
     26.847  0.3460E+00  0.5971E+02
     26.949  0.6020E+00  0.5978E+02
     27.051  0.7700E+00  0.5985E+02
     27.152  0.7205E+00  0.5993E+02
     27.254  0.4919E+00  0.5998E+02
     27.356  0.2171E+00  0.6000E+02
     27.458  0.3740E-01  0.6000E+02
     27.560 -0.1632E-01  0.6000E+02
     27.661 -0.1170E-01  0.6000E+02
     27.763 -0.3094E-02  0.6000E+02
     27.865 -0.4321E-03  0.6000E+02
     27.967 -0.3420E-04  0.6000E+02
     28.069 -0.1571E-05  0.6000E+02
     28.170 -0.4235E-07  0.6000E+02
     28.272 -0.6737E-09  0.6000E+02
     28.374 -0.6343E-11  0.6000E+02
     28.476 -0.3540E-13  0.6000E+02
     28.578 -0.1049E-15  0.6000E+02
     28.679  0.0000E+00  0.6000E+02
     28.781  0.0000E+00  0.6000E+02
     28.883  0.0000E+00  0.6000E+02
     28.985  0.0000E+00  0.6000E+02
     29.087  0.0000E+00  0.6000E+02
     29.188  0.0000E+00  0.6000E+02
     29.290  0.0000E+00  0.6000E+02
