    4    4    1    1
  0.1320827E+02  0.3752338E-09  0.3752338E-09  0.3752338E-09  0.5000000E-15
  1.000000000000000E-004
  CAR 
 unknown system                          
     40    216     30
 
  0.0000000E+00  0.0000000E+00  0.0000000E+00  0.7513148E-03
    1        0.751847   1.000000
    2        3.142494   1.000000
    3        4.206708   1.000000
    4        4.252068   1.000000
    5        4.313373   1.000000
    6        4.437879   1.000000
    7        4.454390   1.000000
    8        7.257408   1.000000
    9        7.269397   1.000000
   10        7.417437   1.000000
   11        8.692304   1.000000
   12        8.843934   1.000000
   13        9.609791   1.000000
   14        9.799872   1.000000
   15        9.958030   1.000001
   16       10.775662   0.222352
   17       10.971729  -0.033953
   18       11.086659  -0.010707
   19       11.414345  -0.000003
   20       11.976640  -0.000000
   21       12.637578  -0.000000
   22       12.800898  -0.000000
   23       12.808925  -0.000000
   24       12.830536  -0.000000
   25       20.380052   0.000000
   26       20.593236   0.000000
   27       22.068572   0.000000
   28       22.284292   0.000000
   29       22.289258   0.000000
   30       22.547665   0.000000
 
  0.9090909E-01  0.0000000E+00  0.0000000E+00  0.1502630E-02
    1        0.859627   1.000000
    2        3.217059   1.000000
    3        4.258743   1.000000
    4        4.290823   1.000000
    5        4.380774   1.000000
    6        4.502770   1.000000
    7        4.528657   1.000000
    8        7.211142   1.000000
    9        7.297054   1.000000
   10        7.459912   1.000000
   11        8.699622   1.000000
   12        8.795076   1.000000
   13        9.606823   1.000000
   14        9.698902   1.000000
   15        9.700504   1.000000
   16       10.279206   1.005111
   17       10.913573  -0.028831
   18       10.925318  -0.032593
   19       11.328306  -0.000049
   20       11.499063  -0.000000
   21       12.336538  -0.000000
   22       12.637148  -0.000000
   23       13.457054  -0.000000
   24       13.498055  -0.000000
   25       20.377580   0.000000
   26       20.807589   0.000000
   27       21.607883   0.000000
   28       22.377168   0.000000
   29       22.599803   0.000000
   30       23.096870   0.000000
 
  0.0000000E+00  0.9090909E-01  0.0000000E+00  0.1502630E-02
    1        0.870507   1.000000
    2        3.222658   1.000000
    3        4.246742   1.000000
    4        4.324663   1.000000
    5        4.350847   1.000000
    6        4.502819   1.000000
    7        4.535264   1.000000
    8        7.301771   1.000000
    9        7.311229   1.000000
   10        7.366484   1.000000
   11        8.650984   1.000000
   12        8.856391   1.000000
   13        9.445116   1.000000
   14        9.743995   1.000000
   15        9.776571   1.000000
   16       10.764664   0.261336
   17       10.807785   0.123653
   18       11.081297  -0.011583
   19       11.289616  -0.000145
   20       11.373650  -0.000012
   21       11.770907  -0.000000
   22       12.358934  -0.000000
   23       13.568860  -0.000000
   24       13.782089  -0.000000
   25       20.262777   0.000000
   26       20.773515   0.000000
   27       22.192458   0.000000
   28       22.376965   0.000000
   29       22.390433   0.000000
   30       22.816187   0.000000
 
  0.0000000E+00  0.0000000E+00  0.9090909E-01  0.1502630E-02
    1        0.871140   1.000000
    2        3.225275   1.000000
    3        4.291316   1.000000
    4        4.326117   1.000000
    5        4.382371   1.000000
    6        4.481680   1.000000
    7        4.484172   1.000000
    8        7.196256   1.000000
    9        7.306643   1.000000
   10        7.459904   1.000000
   11        8.667119   1.000000
   12        8.833863   1.000000
   13        9.432174   1.000000
   14        9.730370   1.000000
   15        9.951749   1.000001
   16       10.413071   1.029305
   17       10.723941   0.422276
   18       10.895451  -0.019106
   19       11.276913  -0.000203
   20       11.803715  -0.000000
   21       11.972471  -0.000000
   22       12.369039  -0.000000
   23       13.485347  -0.000000
   24       13.745376  -0.000000
   25       20.071892   0.000000
   26       20.870818   0.000000
   27       22.202338   0.000000
   28       22.384218   0.000000
   29       22.615203   0.000000
   30       22.725296   0.000000
 
  0.1818182E+00  0.0000000E+00  0.0000000E+00  0.1502630E-02
    1        1.173103   1.000000
    2        3.430299   1.000000
    3        4.381457   1.000000
    4        4.402710   1.000000
    5        4.577840   1.000000
    6        4.691734   1.000000
    7        4.758613   1.000000
    8        7.046472   1.000000
    9        7.401555   1.000000
   10        7.571194   1.000000
   11        8.615055   1.000000
   12        8.749158   1.000000
   13        9.072366   1.000000
   14        9.339031   1.000000
   15        9.413361   1.000000
   16        9.598727   1.000000
   17       10.586860   0.916907
   18       10.696073   0.539778
   19       10.897618  -0.020548
   20       11.074835  -0.012700
   21       11.378598  -0.000010
   22       12.636097  -0.000000
   23       14.621595  -0.000000
   24       14.621896  -0.000000
   25       20.214621   0.000000
   26       20.375605   0.000000
   27       22.409078   0.000000
   28       22.489635   0.000000
   29       22.627304   0.000000
   30       23.346337   0.000000
 
  0.0000000E+00  0.1818182E+00  0.0000000E+00  0.1502630E-02
    1        1.219118   1.000000
    2        3.450164   1.000000
    3        4.337120   1.000000
    4        4.458102   1.000000
    5        4.537591   1.000000
    6        4.690458   1.000000
    7        4.783986   1.000000
    8        7.221312   1.000000
    9        7.427297   1.000000
   10        7.433556   1.000000
   11        8.528720   1.000000
   12        8.890700   1.000000
   13        8.986791   1.000000
   14        9.170970   1.000000
   15        9.698808   1.000000
   16       10.304190   1.007829
   17       10.650752   0.722260
   18       10.734439   0.378899
   19       10.901655  -0.023024
   20       10.936927  -0.034688
   21       11.069294  -0.013710
   22       11.373940  -0.000012
   23       14.745322  -0.000000
   24       14.899994  -0.000000
   25       19.733276   0.000000
   26       21.100201   0.000000
   27       22.332582   0.000000
   28       22.349361   0.000000
   29       22.693504   0.000000
   30       23.527602   0.000000
 
  0.0000000E+00  0.0000000E+00  0.1818182E+00  0.1502630E-02
    1        1.221915   1.000000
    2        3.461067   1.000000
    3        4.513848   1.000000
    4        4.544638   1.000000
    5        4.579142   1.000000
    6        4.584080   1.000000
    7        4.609697   1.000000
    8        7.020495   1.000000
    9        7.409571   1.000000
   10        7.572128   1.000000
   11        8.550552   1.000000
   12        8.841956   1.000000
   13        8.950563   1.000000
   14        9.434630   1.000000
   15        9.501803   1.000000
   16        9.935361   1.000000
   17       10.392744   1.024746
   18       10.705287   0.500840
   19       10.789060   0.178281
   20       10.985420  -0.031784
   21       11.411497  -0.000004
   22       11.961838  -0.000000
   23       14.699668  -0.000000
   24       14.854133  -0.000000
   25       19.399547   0.000000
   26       21.284412   0.000000
   27       22.386239   0.000000
   28       22.486498   0.000000
   29       22.836298   0.000000
   30       23.408118   0.000000
 
  0.2727273E+00  0.0000000E+00  0.0000000E+00  0.1502630E-02
    1        1.657298   1.000000
    2        3.748569   1.000000
    3        4.514585   1.000000
    4        4.572541   1.000000
    5        4.904701   1.000000
    6        5.002727   1.000000
    7        5.127342   1.000000
    8        6.808073   1.000000
    9        7.532478   1.000000
   10        7.758751   1.000000
   11        8.366290   1.000000
   12        8.382574   1.000000
   13        8.386480   1.000000
   14        8.785425   1.000000
   15        9.003438   1.000000
   16        9.590135   1.000000
   17        9.790696   1.000000
   18       10.158676   1.000382
   19       10.325250   1.010857
   20       10.598393   0.888951
   21       11.024631  -0.023263
   22       12.634886  -0.000000
   23       15.860061  -0.000000
   24       15.914565  -0.000000
   25       19.590849   0.000000
   26       20.372865   0.000000
   27       21.928701   0.000000
   28       21.994829   0.000000
   29       22.301401   0.000000
   30       23.664684   0.000000
 
  0.0000000E+00  0.2727273E+00  0.0000000E+00  0.1502630E-02
    1        1.772810   1.000000
    2        3.777736   1.000000
    3        4.421920   1.000000
    4        4.618545   1.000000
    5        4.880273   1.000000
    6        4.995553   1.000000
    7        5.185068   1.000000
    8        7.010393   1.000000
    9        7.639008   1.000000
   10        7.641328   1.000000
   11        8.346824   1.000000
   12        8.358652   1.000000
   13        8.438289   1.000000
   14        8.931561   1.000000
   15        9.364284   1.000000
   16        9.657032   1.000000
   17       10.007655   1.000005
   18       10.121976   1.000147
   19       10.389623   1.024023
   20       10.484253   1.032926
   21       10.695490   0.542236
   22       11.057717  -0.015968
   23       16.021804  -0.000000
   24       16.081974  -0.000000
   25       19.226251   0.000000
   26       21.057752   0.000000
   27       21.815642   0.000000
   28       21.978049   0.000000
   29       22.884427   0.000000
   30       23.098910   0.000000
 
  0.0000000E+00  0.0000000E+00  0.2727273E+00  0.1502630E-02
    1        1.780332   1.000000
    2        3.799763   1.000000
    3        4.629994   1.000000
    4        4.811330   1.000000
    5        4.901480   1.000000
    6        4.909456   1.000000
    7        4.919899   1.000000
    8        6.756017   1.000000
    9        7.539906   1.000000
   10        7.759729   1.000000
   11        8.342644   1.000000
   12        8.345563   1.000000
   13        8.456670   1.000000
   14        8.885222   1.000000
   15        9.107656   1.000000
   16        9.762744   1.000000
   17        9.916436   1.000000
   18        9.963913   1.000001
   19       10.252801   1.003119
   20       10.446623   1.034781
   21       10.752929   0.305375
   22       11.949213  -0.000000
   23       16.034590  -0.000000
   24       16.036337  -0.000000
   25       18.802954   0.000000
   26       21.391504   0.000000
   27       21.852632   0.000000
   28       22.085459   0.000000
   29       22.840032   0.000000
   30       23.204860   0.000000
 
  0.3636364E+00  0.0000000E+00  0.0000000E+00  0.1502630E-02
    1        2.227989   1.000000
    2        4.101029   1.000000
    3        4.583441   1.000000
    4        4.766696   1.000000
    5        5.350057   1.000000
    6        5.420523   1.000000
    7        5.548410   1.000000
    8        6.551078   1.000000
    9        7.322602   1.000000
   10        7.509381   1.000000
   11        7.996158   1.000000
   12        8.067524   1.000000
   13        8.103129   1.000000
   14        8.563659   1.000000
   15        8.759799   1.000000
   16        8.857565   1.000000
   17        9.583752   1.000000
   18        9.718176   1.000000
   19        9.800415   1.000000
   20       10.136666   1.000217
   21       10.928072  -0.033226
   22       12.633979  -0.000000
   23       17.133884   0.000000
   24       17.227367   0.000000
   25       19.155155   0.000000
   26       20.423108   0.000000
   27       21.033400   0.000000
   28       21.172899   0.000000
   29       21.490063   0.000000
   30       24.138309   0.000000
 
  0.0000000E+00  0.3636364E+00  0.0000000E+00  0.1502630E-02
    1        2.477301   1.000000
    2        4.066556   1.000000
    3        4.452976   1.000000
    4        4.795923   1.000000
    5        5.322430   1.000000
    6        5.389714   1.000000
    7        5.662630   1.000000
    8        6.784565   1.000000
    9        7.677423   1.000000
   10        7.685140   1.000000
   11        7.933784   1.000000
   12        7.960624   1.000000
   13        8.117649   1.000000
   14        8.485342   1.000000
   15        8.897026   1.000000
   16        9.418425   1.000000
   17        9.441859   1.000000
   18        9.491987   1.000000
   19        9.720015   1.000000
   20        9.994955   1.000003
   21       10.661565   0.680965
   22       11.050159  -0.017541
   23       17.304432   0.000000
   24       17.345148   0.000000
   25       18.864936   0.000000
   26       20.897868   0.000000
   27       20.908075   0.000000
   28       21.103792   0.000000
   29       22.779640   0.000000
   30       22.982866   0.000000
 
  0.0000000E+00  0.0000000E+00  0.3636364E+00  0.1502630E-02
    1        2.495792   1.000000
    2        4.072339   1.000000
    3        4.698636   1.000000
    4        5.060756   1.000000
    5        5.311305   1.000000
    6        5.381569   1.000000
    7        5.382827   1.000000
    8        6.447695   1.000000
    9        7.328423   1.000000
   10        7.525476   1.000000
   11        8.040596   1.000000
   12        8.076713   1.000000
   13        8.086035   1.000000
   14        8.576314   1.000000
   15        8.788353   1.000000
   16        8.975450   1.000000
   17        9.509457   1.000000
   18        9.618951   1.000000
   19        9.901451   1.000000
   20        9.997736   1.000003
   21       10.491515   1.030940
   22       11.939003  -0.000000
   23       17.265676   0.000000
   24       17.409502   0.000000
   25       18.391807   0.000000
   26       20.887866   0.000000
   27       21.230128   0.000000
   28       21.399096   0.000000
   29       22.336533   0.000000
   30       23.396495   0.000000
 
  0.4545455E+00  0.0000000E+00  0.0000000E+00  0.1502630E-02
    1        2.683259   1.000000
    2        4.372923   1.000000
    3        4.530575   1.000000
    4        4.912359   1.000000
    5        5.858763   1.000000
    6        5.866438   1.000000
    7        5.888105   1.000000
    8        6.367978   1.000000
    9        6.756048   1.000000
   10        6.774429   1.000000
   11        7.892205   1.000000
   12        8.042374   1.000000
   13        8.205630   1.000000
   14        8.214690   1.000000
   15        8.412915   1.000000
   16        8.870152   1.000000
   17        9.392883   1.000000
   18        9.426845   1.000000
   19        9.580629   1.000000
   20        9.805550   1.000000
   21       10.885107  -0.011068
   22       12.633421  -0.000000
   23       18.305635   0.000000
   24       18.407318   0.000000
   25       18.936436   0.000000
   26       20.031469   0.000000
   27       20.211594   0.000000
   28       20.552195   0.000000
   29       20.967556   0.000000
   30       24.317641   0.000000
 
  0.0000000E+00  0.4545455E+00  0.0000000E+00  0.1502630E-02
    1        3.203683   1.000000
    2        3.936677   1.000000
    3        4.545904   1.000000
    4        4.923296   1.000000
    5        5.753869   1.000000
    6        5.770157   1.000000
    7        6.039351   1.000000
    8        6.628235   1.000000
    9        7.111146   1.000000
   10        7.140100   1.000000
   11        7.755599   1.000000
   12        8.120877   1.000000
   13        8.293032   1.000000
   14        8.295571   1.000000
   15        8.725527   1.000000
   16        8.886872   1.000000
   17        8.918261   1.000000
   18        9.276701   1.000000
   19        9.503200   1.000000
   20        9.720933   1.000000
   21       10.641698   0.755291
   22       11.046622  -0.018301
   23       18.523819   0.000000
   24       18.670877   0.000000
   25       18.681815   0.000000
   26       19.799458   0.000000
   27       19.957979   0.000000
   28       20.805245   0.000000
   29       22.638535   0.000000
   30       23.006995   0.000000
 
  0.0000000E+00  0.0000000E+00  0.4545455E+00  0.1502630E-02
    1        3.265191   1.000000
    2        3.889129   1.000000
    3        4.838790   1.000000
    4        5.282071   1.000000
    5        5.600147   1.000000
    6        5.941907   1.000000
    7        5.953675   1.000000
    8        6.191307   1.000000
    9        6.694220   1.000000
   10        6.748783   1.000000
   11        7.829193   1.000000
   12        8.033108   1.000000
   13        8.285414   1.000000
   14        8.286429   1.000000
   15        8.468522   1.000000
   16        9.021901   1.000000
   17        9.143272   1.000000
   18        9.152650   1.000000
   19        9.611442   1.000000
   20        9.893166   1.000000
   21       10.406995   1.027987
   22       11.933167  -0.000000
   23       18.186854   0.000000
   24       18.503884   0.000000
   25       18.775849   0.000000
   26       19.757678   0.000000
   27       20.076896   0.000000
   28       21.398178   0.000000
   29       22.065598   0.000000
   30       23.473670   0.000000
 
  0.9090909E-01  0.9090909E-01  0.0000000E+00  0.3005259E-02
    1        0.977065   1.000000
    2        3.296325   1.000000
    3        4.305161   1.000000
    4        4.355387   1.000000
    5        4.424650   1.000000
    6        4.538155   1.000000
    7        4.627342   1.000000
    8        7.220849   1.000000
    9        7.332176   1.000000
   10        7.438719   1.000000
   11        8.655586   1.000000
   12        8.807991   1.000000
   13        9.400302   1.000000
   14        9.489000   1.000000
   15        9.690818   1.000000
   16       10.324250   1.010697
   17       10.779738   0.208531
   18       10.863710   0.012258
   19       10.894502  -0.018449
   20       11.219463  -0.000843
   21       12.028998  -0.000000
   22       12.786672  -0.000000
   23       13.343634  -0.000000
   24       14.149766  -0.000000
   25       20.315143   0.000000
   26       21.083879   0.000000
   27       21.619087   0.000000
   28       22.500563   0.000000
   29       22.509606   0.000000
   30       23.438345   0.000000
 
  0.0000000E+00  0.9090909E-01  0.9090909E-01  0.3005259E-02
    1        0.987098   1.000000
    2        3.304670   1.000000
    3        4.313405   1.000000
    4        4.405510   1.000000
    5        4.412320   1.000000
    6        4.551026   1.000000
    7        4.572551   1.000000
    8        7.209393   1.000000
    9        7.341626   1.000000
   10        7.438328   1.000000
   11        8.634772   1.000000
   12        8.837840   1.000000
   13        9.263223   1.000000
   14        9.662989   1.000000
   15        9.726796   1.000000
   16       10.470730   1.035029
   17       10.707392   0.491935
   18       10.741401   0.350712
   19       11.043080  -0.019075
   20       11.166966  -0.002621
   21       11.618852  -0.000000
   22       12.774837  -0.000000
   23       13.704338  -0.000000
   24       14.022234  -0.000000
   25       20.312372   0.000000
   26       20.664539   0.000000
   27       22.230640   0.000000
   28       22.349270   0.000000
   29       22.688147   0.000000
   30       23.252174   0.000000
 
  0.9090909E-01  0.0000000E+00  0.9090909E-01  0.3005259E-02
    1        0.977579   1.000000
    2        3.299097   1.000000
    3        4.328972   1.000000
    4        4.359775   1.000000
    5        4.455176   1.000000
    6        4.550296   1.000000
    7        4.563418   1.000000
    8        7.155186   1.000000
    9        7.327354   1.000000
   10        7.490176   1.000000
   11        8.678066   1.000000
   12        8.779320   1.000000
   13        9.351149   1.000000
   14        9.635608   1.000000
   15        9.789854   1.000000
   16       10.108229   1.000101
   17       10.253150   1.003140
   18       10.865313   0.010173
   19       11.266290  -0.000268
   20       11.408298  -0.000004
   21       12.161159  -0.000000
   22       12.908979  -0.000000
   23       13.108437  -0.000000
   24       14.144526  -0.000000
   25       20.161679   0.000000
   26       21.156990   0.000000
   27       21.632107   0.000000
   28       22.475892   0.000000
   29       22.717930   0.000000
   30       23.374431   0.000000
 
  0.1818182E+00  0.9090909E-01  0.0000000E+00  0.3005259E-02
    1        1.287240   1.000000
    2        3.507403   1.000000
    3        4.443785   1.000000
    4        4.462147   1.000000
    5        4.624156   1.000000
    6        4.699734   1.000000
    7        4.863377   1.000000
    8        7.042297   1.000000
    9        7.422077   1.000000
   10        7.566017   1.000000
   11        8.601426   1.000000
   12        8.717900   1.000000
   13        8.914796   1.000000
   14        9.083289   1.000000
   15        9.417826   1.000000
   16        9.734176   1.000000
   17       10.100581   1.000081
   18       10.575033   0.942090
   19       10.684629   0.587722
   20       10.995453  -0.029818
   21       12.104804  -0.000000
   22       12.221625  -0.000000
   23       14.157940  -0.000000
   24       15.079499  -0.000000
   25       20.042133   0.000000
   26       20.818695   0.000000
   27       21.946786   0.000000
   28       22.621225   0.000000
   29       22.646556   0.000000
   30       23.590164   0.000000
 
  0.0000000E+00  0.1818182E+00  0.9090909E-01  0.3005259E-02
    1        1.327986   1.000000
    2        3.530533   1.000000
    3        4.398939   1.000000
    4        4.510350   1.000000
    5        4.598697   1.000000
    6        4.744058   1.000000
    7        4.841577   1.000000
    8        7.153240   1.000000
    9        7.449688   1.000000
   10        7.473736   1.000000
   11        8.525522   1.000000
   12        8.770080   1.000000
   13        8.945910   1.000000
   14        9.062625   1.000000
   15        9.661187   1.000000
   16        9.992633   1.000003
   17       10.367990   1.019096
   18       10.388739   1.023819
   19       10.666058   0.663292
   20       10.841883   0.046573
   21       11.168326  -0.002550
   22       12.100389  -0.000000
   23       14.513219  -0.000000
   24       15.065041  -0.000000
   25       19.841023   0.000000
   26       20.919247   0.000000
   27       21.949543   0.000000
   28       22.548111   0.000000
   29       23.214794   0.000000
   30       23.422001   0.000000
 
  0.9090909E-01  0.0000000E+00  0.1818182E+00  0.3005259E-02
    1        1.324444   1.000000
    2        3.533196   1.000000
    3        4.520601   1.000000
    4        4.553053   1.000000
    5        4.631295   1.000000
    6        4.699585   1.000000
    7        4.711576   1.000000
    8        6.983935   1.000000
    9        7.428138   1.000000
   10        7.592942   1.000000
   11        8.559864   1.000000
   12        8.781665   1.000000
   13        8.869680   1.000000
   14        9.236165   1.000000
   15        9.446963   1.000000
   16        9.688606   1.000000
   17        9.823599   1.000000
   18       10.678438   0.613297
   19       10.948168  -0.035438
   20       11.006257  -0.027479
   21       11.821161  -0.000000
   22       11.940215  -0.000000
   23       14.204281  -0.000000
   24       15.178751  -0.000000
   25       19.506168   0.000000
   26       21.549801   0.000000
   27       21.983190   0.000000
   28       22.636057   0.000000
   29       22.694376   0.000000
   30       23.394083   0.000000
 
 -0.9090909E-01  0.1818182E+00  0.0000000E+00  0.3005259E-02
    1        1.322181   1.000000
    2        3.521659   1.000000
    3        4.406450   1.000000
    4        4.500076   1.000000
    5        4.596638   1.000000
    6        4.706905   1.000000
    7        4.877968   1.000000
    8        7.159389   1.000000
    9        7.444268   1.000000
   10        7.477500   1.000000
   11        8.534086   1.000000
   12        8.790070   1.000000
   13        8.914881   1.000000
   14        9.044322   1.000000
   15        9.599937   1.000000
   16        9.926938   1.000000
   17       10.323831   1.010630
   18       10.476555   1.034358
   19       10.818268   0.096838
   20       10.899944  -0.022008
   21       11.293366  -0.000131
   22       11.962204  -0.000000
   23       14.300122  -0.000000
   24       15.203548  -0.000000
   25       19.777375   0.000000
   26       21.367701   0.000000
   27       21.967252   0.000000
   28       22.553473   0.000000
   29       22.585329   0.000000
   30       23.376988   0.000000
 
 -0.1818182E+00  0.0000000E+00  0.9090909E-01  0.3005259E-02
    1        1.287382   1.000000
    2        3.510588   1.000000
    3        4.442888   1.000000
    4        4.462927   1.000000
    5        4.636557   1.000000
    6        4.744595   1.000000
    7        4.814839   1.000000
    8        7.002575   1.000000
    9        7.423030   1.000000
   10        7.591775   1.000000
   11        8.621138   1.000000
   12        8.705506   1.000000
   13        8.936032   1.000000
   14        9.138500   1.000000
   15        9.384600   1.000000
   16        9.615703   1.000000
   17        9.812872   1.000000
   18       10.723887   0.422499
   19       10.866324   0.008887
   20       11.125615  -0.005698
   21       12.036301  -0.000000
   22       12.255355  -0.000000
   23       14.100541  -0.000000
   24       15.070583  -0.000000
   25       19.974781   0.000000
   26       20.862845   0.000000
   27       21.953401   0.000000
   28       22.621320   0.000000
   29       22.710806   0.000000
   30       23.586208   0.000000
 
  0.0000000E+00  0.9090909E-01  0.1818182E+00  0.3005259E-02
    1        1.330122   1.000000
    2        3.538718   1.000000
    3        4.516020   1.000000
    4        4.583020   1.000000
    5        4.583586   1.000000
    6        4.705880   1.000000
    7        4.724676   1.000000
    8        7.017753   1.000000
    9        7.429393   1.000000
   10        7.566475   1.000000
   11        8.541031   1.000000
   12        8.760049   1.000000
   13        8.880386   1.000000
   14        9.191713   1.000000
   15        9.524770   1.000000
   16        9.992819   1.000003
   17       10.075624   1.000040
   18       10.411545   1.028979
   19       10.591865   0.905188
   20       10.804559   0.132458
   21       11.722804  -0.000000
   22       12.141723  -0.000000
   23       14.472452  -0.000000
   24       15.049833  -0.000000
   25       19.567999   0.000000
   26       21.122580   0.000000
   27       21.958381   0.000000
   28       22.599164   0.000000
   29       23.215826   0.000000
   30       23.594897   0.000000
 
  0.2727273E+00  0.9090909E-01  0.0000000E+00  0.3005259E-02
    1        1.767025   1.000000
    2        3.823096   1.000000
    3        4.587857   1.000000
    4        4.630411   1.000000
    5        4.947675   1.000000
    6        4.993633   1.000000
    7        5.218935   1.000000
    8        6.799521   1.000000
    9        7.505751   1.000000
   10        7.757374   1.000000
   11        8.217586   1.000000
   12        8.308178   1.000000
   13        8.387244   1.000000
   14        8.739676   1.000000
   15        9.028162   1.000000
   16        9.319320   1.000000
   17        9.569163   1.000000
   18       10.167953   1.000481
   19       10.317169   1.009611
   20       10.777110   0.217404
   21       11.290044  -0.000143
   22       12.295481  -0.000000
   23       15.256435  -0.000000
   24       16.267880   0.000000
   25       19.441645   0.000000
   26       20.735959   0.000000
   27       21.090901   0.000000
   28       22.234966   0.000000
   29       23.328821   0.000000
   30       23.953901   0.000000
 
  0.0000000E+00  0.2727273E+00  0.9090909E-01  0.3005259E-02
    1        1.870024   1.000000
    2        3.857671   1.000000
    3        4.485795   1.000000
    4        4.666212   1.000000
    5        4.910463   1.000000
    6        5.045586   1.000000
    7        5.254968   1.000000
    8        6.970750   1.000000
    9        7.619226   1.000000
   10        7.655381   1.000000
   11        8.213827   1.000000
   12        8.362556   1.000000
   13        8.376388   1.000000
   14        8.905955   1.000000
   15        9.007485   1.000000
   16        9.595359   1.000000
   17        9.837312   1.000000
   18        9.932083   1.000000
   19       10.351432   1.015600
   20       10.635831   0.775853
   21       10.988920  -0.031127
   22       11.159102  -0.003063
   23       15.559474  -0.000000
   24       16.273260   0.000000
   25       19.237544   0.000000
   26       20.722048   0.000000
   27       21.693240   0.000000
   28       22.198611   0.000000
   29       23.197115   0.000000
   30       23.841937   0.000000
 
  0.9090909E-01  0.0000000E+00  0.2727273E+00  0.3005259E-02
    1        1.876537   1.000000
    2        3.871918   1.000000
    3        4.691130   1.000000
    4        4.811037   1.000000
    5        4.874488   1.000000
    6        4.994703   1.000000
    7        5.066255   1.000000
    8        6.721172   1.000000
    9        7.561003   1.000000
   10        7.742384   1.000000
   11        8.214548   1.000000
   12        8.298351   1.000000
   13        8.381094   1.000000
   14        8.825882   1.000000
   15        9.023456   1.000000
   16        9.182641   1.000000
   17        9.817764   1.000000
   18       10.274414   1.004688
   19       10.344384   1.014221
   20       10.691382   0.559513
   21       10.875925  -0.002222
   22       11.746127  -0.000000
   23       15.424132  -0.000000
   24       16.318801   0.000000
   25       18.897128   0.000000
   26       21.122783   0.000000
   27       21.888339   0.000000
   28       22.085077   0.000000
   29       23.227754   0.000000
   30       23.555311   0.000000
 
 -0.9090909E-01  0.2727273E+00  0.0000000E+00  0.3005259E-02
    1        1.870403   1.000000
    2        3.847834   1.000000
    3        4.497883   1.000000
    4        4.667636   1.000000
    5        4.926935   1.000000
    6        5.000540   1.000000
    7        5.265772   1.000000