unknown system                          
   1.00000000000000     
     3.573378    0.000000    0.000000
     0.000000    3.573378    0.000000
     0.000000    0.000000    3.573378
   Cu
     4
Direct
  0.000000  0.000000  0.000000
  0.500000  0.500000  0.000000
  0.500000  0.000000  0.500000
  0.000000  0.500000  0.500000
 
   32   32   32
  801.74      757.12      636.99      475.57      312.04      176.88      85.571      38.005      21.131      15.555    
  11.932      9.6810      8.3846      7.7128      7.3013      6.9564      6.7994      6.9564      7.3013      7.7128    
  8.3846      9.6810      11.932      15.555      21.131      38.005      85.571      176.88      312.04      475.57    
  636.99      757.12      757.12      714.81      600.89      447.87      293.05      165.53      80.000      36.030    
  20.700      15.365      11.860      9.6965      8.4556      7.8152      7.4264      7.1033      6.9564      7.1033    
  7.4264      7.8152      8.4556      9.6965      11.860      15.365      20.700      36.030      80.000      165.53    
  293.05      447.87      600.89      714.81      636.99      600.89      503.74      373.44      242.28      135.51    
  65.568      31.111      19.622      14.837      11.668      9.7353      8.6305      8.0550      7.7067      7.4264    
  7.3013      7.4264      7.7067      8.0550      8.6305      9.7353      11.668      14.837      19.622      31.111    
  65.568      135.51      242.28      373.44      503.74      600.89      475.57      447.87      373.44      274.12    
  175.34      96.912      47.877      25.566      18.227      14.095      11.422      9.8097      8.8779      8.3702    
  8.0550      7.8152      7.7128      7.8152      8.0550      8.3702      8.8779      9.8097      11.422      14.095    
  18.227      25.566      47.877      96.912      175.34      274.12      373.44      447.87      312.04      293.05    
  242.28      175.34      110.40      61.186      32.852      21.359      16.617      13.306      11.229      9.9944    
  9.2784      8.8779      8.6305      8.4556      8.3846      8.4556      8.6305      8.8779      9.2784      9.9944    
  11.229      13.306      16.617      21.359      32.852      61.186      110.40      175.34      242.28      293.05    
  176.88      165.53      135.51      96.912      61.186      36.272      23.689      18.548      15.038      12.645    
  11.211      10.410      9.9944      9.8097      9.7353      9.6965      9.6810      9.6965      9.7353      9.8097    
  9.9944      10.410      11.211      12.645      15.038      18.548      23.689      36.272      61.186      96.912    
  135.51      165.53      85.571      80.000      65.568      47.877      32.852      23.689      19.262      16.095    
  13.739      12.266      11.499      11.211      11.229      11.422      11.668      11.860      11.932      11.860    
  11.668      11.422      11.229      11.211      11.499      12.266      13.739      16.095      19.262      23.689    
  32.852      47.877      65.568      80.000      38.005      36.030      31.111      25.566      21.359      18.548    
  16.095      14.157      12.899      12.306      12.266      12.645      13.306      14.095      14.837      15.365    
  15.555      15.365      14.837      14.095      13.306      12.645      12.266      12.306      12.899      14.157    
  16.095      18.548      21.359      25.566      31.111      36.030      21.131      20.700      19.622      18.227    
  16.617      15.038      13.739      12.899      12.611      12.899      13.739      15.038      16.617      18.227    
  19.622      20.700      21.131      20.700      19.622      18.227      16.617      15.038      13.739      12.899    
  12.611      12.899      13.739      15.038      16.617      18.227      19.622      20.700      15.555      15.365    
  14.837      14.095      13.306      12.645      12.266      12.306      12.899      14.157      16.095      18.548    
  21.359      25.566      31.111      36.030      38.005      36.030      31.111      25.566      21.359      18.548    
  16.095      14.157      12.899      12.306      12.266      12.645      13.306      14.095      14.837      15.365    
  11.932      11.860      11.668      11.422      11.229      11.211      11.499      12.266      13.739      16.095    
  19.262      23.689      32.852      47.877      65.568      80.000      85.571      80.000      65.568      47.877    
  32.852      23.689      19.262      16.095      13.739      12.266      11.499      11.211      11.229      11.422    
  11.668      11.860      9.6810      9.6965      9.7353      9.8097      9.9944      10.410      11.211      12.645    
  15.038      18.548      23.689      36.272      61.186      96.912      135.51      165.53      176.88      165.53    
  135.51      96.912      61.186      36.272      23.689      18.548      15.038      12.645      11.211      10.410    
  9.9944      9.8097      9.7353      9.6965      8.3846      8.4556      8.6305      8.8779      9.2784      9.9944    
  11.229      13.306      16.617      21.359      32.852      61.186      110.40      175.34      242.28      293.05    
  312.04      293.05      242.28      175.34      110.40      61.186      32.852      21.359      16.617      13.306    
  11.229      9.9944      9.2784      8.8779      8.6305      8.4556      7.7128      7.8152      8.0550      8.3702    
  8.8779      9.8097      11.422      14.095      18.227      25.566      47.877      96.912      175.34      274.12    
  373.44      447.87      475.57      447.87      373.44      274.12      175.34      96.912      47.877      25.566    
  18.227      14.095      11.422      9.8097      8.8779      8.3702      8.0550      7.8152      7.3013      7.4264    
  7.7067      8.0550      8.6305      9.7353      11.668      14.837      19.622      31.111      65.568      135.51    
  242.28      373.44      503.74      600.89      636.99      600.89      503.74      373.44      242.28      135.51    
  65.568      31.111      19.622      14.837      11.668      9.7353      8.6305      8.0550      7.7067      7.4264    
  6.9564      7.1033      7.4264      7.8152      8.4556      9.6965      11.860      15.365      20.700      36.030    
  80.000      165.53      293.05      447.87      600.89      714.81      757.12      714.81      600.89      447.87    
  293.05      165.53      80.000      36.030      20.700      15.365      11.860      9.6965      8.4556      7.8152    
  7.4264      7.1033      6.7994      6.9564      7.3013      7.7128      8.3846      9.6810      11.932      15.555    
  21.131      38.005      85.571      176.88      312.04      475.57      636.99      757.12      801.74      757.12    
  636.99      475.57      312.04      176.88      85.571      38.005      21.131      15.555      11.932      9.6810    
  8.3846      7.7128      7.3013      6.9564      6.9564      7.1033      7.4264      7.8152      8.4556      9.6965    
  11.860      15.365      20.700      36.030      80.000      165.53      293.05      447.87      600.89      714.81    
  757.12      714.81      600.89      447.87      293.05      165.53      80.000      36.030      20.700      15.365    
  11.860      9.6965      8.4556      7.8152      7.4264      7.1033      7.3013      7.4264      7.7067      8.0550    
  8.6305      9.7353      11.668      14.837      19.622      31.111      65.568      135.51      242.28      373.44    
  503.74      600.89      636.99      600.89      503.74      373.44      242.28      135.51      65.568      31.111    
  19.622      14.837      11.668      9.7353      8.6305      8.0550      7.7067      7.4264      7.7128      7.8152    
  8.0550      8.3702      8.8779      9.8097      11.422      14.095      18.227      25.566      47.877      96.912    
  175.34      274.12      373.44      447.87      475.57      447.87      373.44      274.12      175.34      96.912    
  47.877      25.566      18.227      14.095      11.422      9.8097      8.8779      8.3702      8.0550      7.8152    
  8.3846      8.4556      8.6305      8.8779      9.2784      9.9944      11.229      13.306      16.617      21.359    
  32.852      61.186      110.40      175.34      242.28      293.05      312.04      293.05      242.28      175.34    
  110.40      61.186      32.852      21.359      16.617      13.306      11.229      9.9944      9.2784      8.8779    
  8.6305      8.4556      9.6810      9.6965      9.7353      9.8097      9.9944      10.410      11.211      12.645    
  15.038      18.548      23.689      36.272      61.186      96.912      135.51      165.53      176.88      165.53    
  135.51      96.912      61.186      36.272      23.689      18.548      15.038      12.645      11.211      10.410    
  9.9944      9.8097      9.7353      9.6965      11.932      11.860      11.668      11.422      11.229      11.211    
  11.499      12.266      13.739      16.095      19.262      23.689      32.852      47.877      65.568      80.000    
  85.571      80.000      65.568      47.877      32.852      23.689      19.262      16.095      13.739      12.266    
  11.499      11.211      11.229      11.422      11.668      11.860      15.555      15.365      14.837      14.095    
  13.306      12.645      12.266      12.306      12.899      14.157      16.095      18.548      21.359      25.566    
  31.111      36.030      38.005      36.030      31.111      25.566      21.359      18.548      16.095      14.157    
  12.899      12.306      12.266      12.645      13.306      14.095      14.837      15.365      21.131      20.700    
  19.622      18.227      16.617      15.038      13.739      12.899      12.611      12.899      13.739      15.038    
  16.617      18.227      19.622      20.700      21.131      20.700      19.622      18.227      16.617      15.038    
  13.739      12.899      12.611      12.899      13.739      15.038      16.617      18.227      19.622      20.700    
  38.005      36.030      31.111      25.566      21.359      18.548      16.095      14.157      12.899      12.306    
  12.266      12.645      13.306      14.095      14.837      15.365      15.555      15.365      14.837      14.095    
  13.306      12.645      12.266      12.306      12.899      14.157      16.095      18.548      21.359      25.566    
  31.111      36.030      85.571      80.000      65.568      47.877      32.852      23.689      19.262      16.095    
  13.739      12.266      11.499      11.211      11.229      11.422      11.668      11.860      11.932      11.860    
  11.668      11.422      11.229      11.211      11.499      12.266      13.739      16.095      19.262      23.689    
  32.852      47.877      65.568      80.000      176.88      165.53      135.51      96.912      61.186      36.272    
  23.689      18.548      15.038      12.645      11.211      10.410      9.9944      9.8097      9.7353      9.6965    
  9.6810      9.6965      9.7353      9.8097      9.9944      10.410      11.211      12.645      15.038      18.548    
  23.689      36.272      61.186      96.912      135.51      165.53      312.04      293.05      242.28      175.34    
  110.40      61.186      32.852      21.359      16.617      13.306      11.229      9.9944      9.2784      8.8779    
  8.6305      8.4556      8.3846      8.4556      8.6305      8.8779      9.2784      9.9944      11.229      13.306    
  16.617      21.359      32.852      61.186      110.40      175.34      242.28      293.05      475.57      447.87    
  373.44      274.12      175.34      96.912      47.877      25.566      18.227      14.095      11.422      9.8097    
  8.8779      8.3702      8.0550      7.8152      7.7128      7.8152      8.0550      8.3702      8.8779      9.8097    
  11.422      14.095      18.227      25.566      47.877      96.912      175.34      274.12      373.44      447.87    
  636.99      600.89      503.74      373.44      242.28      135.51      65.568      31.111      19.622      14.837    
  11.668      9.7353      8.6305      8.0550      7.7067      7.4264      7.3013      7.4264      7.7067      8.0550    
  8.6305      9.7353      11.668      14.837      19.622      31.111      65.568      135.51      242.28      373.44    
  503.74      600.89      757.12      714.81      600.89      447.87      293.05      165.53      80.000      36.030    
  20.700      15.365      11.860      9.6965      8.4556      7.8152      7.4264      7.1033      6.9564      7.1033    
  7.4264      7.8152      8.4556      9.6965      11.860      15.365      20.700      36.030      80.000      165.53    
  293.05      447.87      600.89      714.81      757.12      714.81      600.89      447.87      293.05      165.53    
  80.000      36.030      20.700      15.365      11.860      9.6965      8.4556      7.8152      7.4264      7.1033    
  6.9564      7.1033      7.4264      7.8152      8.4556      9.6965      11.860      15.365      20.700      36.030    
  80.000      165.53      293.05      447.87      600.89      714.81      714.81      674.69      566.67      421.64    
  275.11      154.87      74.820      34.227      20.305      15.178      11.790      9.7096      8.5216      7.9107    
  7.5432      7.2404      7.1033      7.2404      7.5432      7.9107      8.5216      9.7096      11.790      15.178    
  20.305      34.227      74.820      154.87      275.11      421.64      566.67      674.69      600.89      566.67    
  474.59      351.18      227.19      126.71      61.433      29.754      19.303      14.663      11.602      9.7433    
  8.6850      8.1355      7.8059      7.5432      7.4264      7.5432      7.8059      8.1355      8.6850      9.7433    
  11.602      14.663      19.303      29.754      61.433      126.71      227.19      351.18      474.59      566.67    
  447.87      421.64      351.18      257.28      164.14      90.607      45.103      24.739      17.950      13.940    
  11.361      9.8117      8.9190      8.4341      8.1355      7.9107      7.8152      7.9107      8.1355      8.4341    
  8.9190      9.8117      11.361      13.940      17.950      24.739      45.103      90.607      164.14      257.28    
  351.18      421.64      293.05      275.11      227.19      164.14      103.22      57.397      31.356      20.929    
  16.378      13.174      11.174      9.9874      9.3015      8.9190      8.6850      8.5216      8.4556      8.5216    
  8.6850      8.9190      9.3015      9.9874      11.174      13.174      16.378      20.929      31.356      57.397    
  103.22      164.14      227.19      275.11      165.53      154.87      126.71      90.607      57.397      34.478    
  23.060      18.248      14.843      12.534      11.155      10.385      9.9874      9.8117      9.7433      9.7096    
  9.6965      9.7096      9.7433      9.8117      9.9874      10.385      11.155      12.534      14.843      18.248    
  23.060      34.478      57.397      90.607      126.71      154.87      80.000      74.820      61.433      45.103    
  31.356      23.060      18.942      15.862      13.586      12.168      11.431      11.155      11.174      11.361    
  11.602      11.790      11.860      11.790      11.602      11.361      11.174      11.155      11.431      12.168    
  13.586      15.862      18.942      23.060      31.356      45.103      61.433      74.820      36.030      34.227    
  29.754      24.739      20.929      18.248      15.862      13.988      12.776      12.206      12.168      12.534    
  13.174      13.940      14.663      15.178      15.365      15.178      14.663      13.940      13.174      12.534    
  12.168      12.206      12.776      13.988      15.862      18.248      20.929      24.739      29.754      34.227    
  20.700      20.305      19.303      17.950      16.378      14.843      13.586      12.776      12.499      12.776    
  13.586      14.843      16.378      17.950      19.303      20.305      20.700      20.305      19.303      17.950    
  16.378      14.843      13.586      12.776      12.499      12.776      13.586      14.843      16.378      17.950    
  19.303      20.305      15.365      15.178      14.663      13.940      13.174      12.534      12.168      12.206    
  12.776      13.988      15.862      18.248      20.929      24.739      29.754      34.227      36.030      34.227    
  29.754      24.739      20.929      18.248      15.862      13.988      12.776      12.206      12.168      12.534    
  13.174      13.940      14.663      15.178      11.860      11.790      11.602      11.361      11.174      11.155    
  11.431      12.168      13.586      15.862      18.942      23.060      31.356      45.103      61.433      74.820    
  80.000      74.820      61.433      45.103      31.356      23.060      18.942      15.862      13.586      12.168    
  11.431      11.155      11.174      11.361      11.602      11.790      9.6965      9.7096      9.7433      9.8117    
  9.9874      10.385      11.155      12.534      14.843      18.248      23.060      34.478      57.397      90.607    
  126.71      154.87      165.53      154.87      126.71      90.607      57.397      34.478      23.060      18.248    
  14.843      12.534      11.155      10.385      9.9874      9.8117      9.7433      9.7096      8.4556      8.5216    
  8.6850      8.9190      9.3015      9.9874      11.174      13.174      16.378      20.929      31.356      57.397    
  103.22      164.14      227.19      275.11      293.05      275.11      227.19      164.14      103.22      57.397    
  31.356      20.929      16.378      13.174      11.174      9.9874      9.3015      8.9190      8.6850      8.5216    
  7.8152      7.9107      8.1355      8.4341      8.9190      9.8117      11.361      13.940      17.950      24.739    
  45.103      90.607      164.14      257.28      351.18      421.64      447.87      421.64      351.18      257.28    
  164.14      90.607      45.103      24.739      17.950      13.940      11.361      9.8117      8.9190      8.4341    
  8.1355      7.9107      7.4264      7.5432      7.8059      8.1355      8.6850      9.7433      11.602      14.663    
  19.303      29.754      61.433      126.71      227.19      351.18      474.59      566.67      600.89      566.67    
  474.59      351.18      227.19      126.71      61.433      29.754      19.303      14.663      11.602      9.7433    
  8.6850      8.1355      7.8059      7.5432      7.1033      7.2404      7.5432      7.9107      8.5216      9.7096    
  11.790      15.178      20.305      34.227      74.820      154.87      275.11      421.64      566.67      674.69    
  714.81      674.69      566.67      421.64      275.11      154.87      74.820      34.227      20.305      15.178    
  11.790      9.7096      8.5216      7.9107      7.5432      7.2404      6.9564      7.1033      7.4264      7.8152    
  8.4556      9.6965      11.860      15.365      20.700      36.030      80.000      165.53      293.05      447.87    
  600.89      714.81      757.12      714.81      600.89      447.87      293.05      165.53      80.000      36.030    
  20.700      15.365      11.860      9.6965      8.4556      7.8152      7.4264      7.1033      7.1033      7.2404    
  7.5432      7.9107      8.5216      9.7096      11.790      15.178      20.305      34.227      74.820      154.87    
  275.11      421.64      566.67      674.69      714.81      674.69      566.67      421.64      275.11      154.87    
  74.820      34.227      20.305      15.178      11.790      9.7096      8.5216      7.9107      7.5432      7.2404    
  7.4264      7.5432      7.8059      8.1355      8.6850      9.7433      11.602      14.663      19.303      29.754    
  61.433      126.71      227.19      351.18      474.59      566.67      600.89      566.67      474.59      351.18    
  227.19      126.71      61.433      29.754      19.303      14.663      11.602      9.7433      8.6850      8.1355    
  7.8059      7.5432      7.8152      7.9107      8.1355      8.4341      8.9190      9.8117      11.361      13.940    
  17.950      24.739      45.103      90.607      164.14      257.28      351.18      421.64      447.87      421.64    
  351.18      257.28      164.14      90.607      45.103      24.739      17.950      13.940      11.361      9.8117    
  8.9190      8.4341      8.1355      7.9107      8.4556      8.5216      8.6850      8.9190      9.3015      9.9874    
  11.174      13.174      16.378      20.929      31.356      57.397      103.22      164.14      227.19      275.11    
  293.05      275.11      227.19      164.14      103.22      57.397      31.356      20.929      16.378      13.174    
  11.174      9.9874      9.3015      8.9190      8.6850      8.5216      9.6965      9.7096      9.7433      9.8117    
  9.9874      10.385      11.155      12.534      14.843      18.248      23.060      34.478      57.397      90.607    
  126.71      154.87      165.53      154.87      126.71      90.607      57.397      34.478      23.060      18.248    
  14.843      12.534      11.155      10.385      9.9874      9.8117      9.7433      9.7096      11.860      11.790    
  11.602      11.361      11.174      11.155      11.431      12.168      13.586      15.862      18.942      23.060    
  31.356      45.103      61.433      74.820      80.000      74.820      61.433      45.103      31.356      23.060    
  18.942      15.862      13.586      12.168      11.431      11.155      11.174      11.361      11.602      11.790    
  15.365      15.178      14.663      13.940      13.174      12.534      12.168      12.206      12.776      13.988    
  15.862      18.248      20.929      24.739      29.754      34.227      36.030      34.227      29.754      24.739    
  20.929      18.248      15.862      13.988      12.776      12.206      12.168      12.534      13.174      13.940    
  14.663      15.178      20.700      20.305      19.303      17.950      16.378      14.843      13.586      12.776    
  12.499      12.776      13.586      14.843      16.378      17.950      19.303      20.305      20.700      20.305    
  19.303      17.950      16.378      14.843      13.586      12.776      12.499      12.776      13.586      14.843    
  16.378      17.950      19.303      20.305      36.030      34.227      29.754      24.739      20.929      18.248    
  15.862      13.988      12.776      12.206      12.168      12.534      13.174      13.940      14.663      15.178    
  15.365      15.178      14.663      13.940      13.174      12.534      12.168      12.206      12.776      13.988    
  15.862      18.248      20.929      24.739      29.754      34.227      80.000      74.820      61.433      45.103    
  31.356      23.060      18.942      15.862      13.586      12.168      11.431      11.155      11.174      11.361    
  11.602      11.790      11.860      11.790      11.602      11.361      11.174      11.155      11.431      12.168    
  13.586      15.862      18.942      23.060      31.356      45.103      61.433      74.820      165.53      154.87    
  126.71      90.607      57.397      34.478      23.060      18.248      14.843      12.534      11.155      10.385    
  9.9874      9.8117      9.7433      9.7096      9.6965      9.7096      9.7433      9.8117      9.9874      10.385    
  11.155      12.534      14.843      18.248      23.060      34.478      57.397      90.607      126.71      154.87    
  293.05      275.11      227.19      164.14      103.22      57.397      31.356      20.929      16.378      13.174    
  11.174      9.9874      9.3015      8.9190      8.6850      8.5216      8.4556      8.5216      8.6850      8.9190    
  9.3015      9.9874      11.174      13.174      16.378      20.929      31.356      57.397      103.22      164.14    
  227.19      275.11      447.87      421.64      351.18      257.28      164.14      90.607      45.103      24.739    
  17.950      13.940      11.361      9.8117      8.9190      8.4341      8.1355      7.9107      7.8152      7.9107    
  8.1355      8.4341      8.9190      9.8117      11.361      13.940      17.950      24.739      45.103      90.607    
  164.14      257.28      351.18      421.64      600.89      566.67      474.59      351.18      227.19      126.71    
  61.433      29.754      19.303      14.663      11.602      9.7433      8.6850      8.1355      7.8059      7.5432    
  7.4264      7.5432      7.8059      8.1355      8.6850      9.7433      11.602      14.663      19.303      29.754    
  61.433      126.71      227.19      351.18      474.59      566.67      714.81      674.69      566.67      421.64    
  275.11      154.87      74.820      34.227      20.305      15.178      11.790      9.7096      8.5216      7.9107    
  7.5432      7.2404      7.1033      7.2404      7.5432      7.9107      8.5216      9.7096      11.790      15.178    
  20.305      34.227      74.820      154.87      275.11      421.64      566.67      674.69      636.99      600.89    
  503.74      373.44      242.28      135.51      65.568      31.111      19.622      14.837      11.668      9.7353    
  8.6305      8.0550      7.7067      7.4264      7.3013      7.4264      7.7067      8.0550      8.6305      9.7353    
  11.668      14.837      19.622      31.111      65.568      135.51      242.28      373.44      503.74      600.89    
  600.89      566.67      474.59      351.18      227.19      126.71      61.433      29.754      19.303      14.663    
  11.602      9.7433      8.6850      8.1355      7.8059      7.5432      7.4264      7.5432      7.8059      8.1355    
  8.6850      9.7433      11.602      14.663      19.303      29.754      61.433      126.71      227.19      351.18    
  474.59      566.67      503.74      474.59      396.22      291.48      186.99      103.55      50.821      26.415    
  18.438      14.184      11.424      9.7657      8.8230      8.3288      8.0335      7.8059      7.7067      7.8059    
  8.0335      8.3288      8.8230      9.7657      11.424      14.184      18.438      26.415      50.821      103.55    
  186.99      291.48      396.22      474.59      373.44      351.18      291.48      212.28      134.48      74.179    
  38.084      22.716      17.170      13.516      11.201      9.8213      9.0278      8.5940      8.3288      8.1355    
  8.0550      8.1355      8.3288      8.5940      9.0278      9.8213      11.201      13.516      17.170      22.716    
  38.084      74.179      134.48      212.28      291.48      351.18      242.28      227.19      186.99      134.48    
  84.424      47.687      27.649      19.820      15.710      12.815      11.028      9.9747      9.3672      9.0278    
  8.8230      8.6850      8.6305      8.6850      8.8230      9.0278      9.3672      9.9747      11.028      12.815    
  15.710      19.820      27.649      47.687      84.424      134.48      186.99      227.19      135.51      126.71    
  103.55      74.179      47.687      30.000      21.498      17.402      14.303      12.233      11.006      10.325    
  9.9747      9.8213      9.7657      9.7433      9.7353      9.7433      9.7657      9.8213      9.9747      10.325    
  11.006      12.233      14.303      17.402      21.498      30.000      47.687      74.179      103.55      126.71    
  65.568      61.433      50.821      38.084      27.649      21.498      18.032      15.212      13.164      11.901    
  11.248      11.006      11.028      11.201      11.424      11.602      11.668      11.602      11.424      11.201    
  11.028      11.006      11.248      11.901      13.164      15.212      18.032      21.498      27.649      38.084    
  50.821      61.433      31.111      29.754      26.415      22.716      19.820      17.402      15.212      13.520    
  12.437      11.932      11.901      12.233      12.815      13.516      14.184      14.663      14.837      14.663    
  14.184      13.516      12.815      12.233      11.901      11.932      12.437      13.520      15.212      17.402    
  19.820      22.716      26.415      29.754      19.622      19.303      18.438      17.170      15.710      14.303    
  13.164      12.437      12.189      12.437      13.164      14.303      15.710      17.170      18.438      19.303    
  19.622      19.303      18.438      17.170      15.710      14.303      13.164      12.437      12.189      12.437    
  13.164      14.303      15.710      17.170      18.438      19.303      14.837      14.663      14.184      13.516    
  12.815      12.233      11.901      11.932      12.437      13.520      15.212      17.402      19.820      22.716    
  26.415      29.754      31.111      29.754      26.415      22.716      19.820      17.402      15.212      13.520    
  12.437      11.932      11.901      12.233      12.815      13.516      14.184      14.663      11.668      11.602    
  11.424      11.201      11.028      11.006      11.248      11.901      13.164      15.212      18.032      21.498    
  27.649      38.084      50.821      61.433      65.568      61.433      50.821      38.084      27.649      21.498    
  18.032      15.212      13.164      11.901      11.248      11.006      11.028      11.201      11.424      11.602    
  9.7353      9.7433      9.7657      9.8213      9.9747      10.325      11.006      12.233      14.303      17.402    
  21.498      30.000      47.687      74.179      103.55      126.71      135.51      126.71      103.55      74.179    
  47.687      30.000      21.498      17.402      14.303      12.233      11.006      10.325      9.9747      9.8213    
  9.7657      9.7433      8.6305      8.6850      8.8230      9.0278      9.3672      9.9747      11.028      12.815    
  15.710      19.820      27.649      47.687      84.424      134.48      186.99      227.19      242.28      227.19    