unknown system                          
   1.00000000000000     
     3.573378    0.000000    0.000000
     0.000000    3.573378    0.000000
     0.000000    0.000000    3.573378
   Cu
     4
Direct
  0.000000  0.000000  0.000000
  0.500000  0.500000  0.000000
  0.500000  0.000000  0.500000
  0.000000  0.500000  0.500000
 
   32   32   32
 0.80173860577E+03 0.75711699295E+03 0.63698679886E+03 0.47556772590E+03 0.31203686851E+03
 0.17688014226E+03 0.85570744104E+02 0.38004978000E+02 0.21131229114E+02 0.15554883539E+02
 0.11931734550E+02 0.96809946076E+01 0.83846471014E+01 0.77127666578E+01 0.73012977429E+01
 0.69564415109E+01 0.67993631287E+01 0.69564415109E+01 0.73012977429E+01 0.77127666578E+01
 0.83846471014E+01 0.96809946076E+01 0.11931734550E+02 0.15554883539E+02 0.21131229114E+02
 0.38004978000E+02 0.85570744104E+02 0.17688014226E+03 0.31203686851E+03 0.47556772590E+03
 0.63698679886E+03 0.75711699295E+03 0.75711699295E+03 0.71480553322E+03 0.60089181060E+03
 0.44787000694E+03 0.29304993173E+03 0.16553290951E+03 0.79999731567E+02 0.36029501118E+02
 0.20700099398E+02 0.15364506682E+02 0.11860466771E+02 0.96964975621E+01 0.84556329827E+01
 0.78151549169E+01 0.74263872940E+01 0.71032561063E+01 0.69564415109E+01 0.71032561063E+01
 0.74263872940E+01 0.78151549169E+01 0.84556329827E+01 0.96964975621E+01 0.11860466771E+02
 0.15364506682E+02 0.20700099398E+02 0.36029501118E+02 0.79999731567E+02 0.16553290951E+03
 0.29304993173E+03 0.44787000694E+03 0.60089181060E+03 0.71480553322E+03 0.63698679886E+03
 0.60089181060E+03 0.50374114403E+03 0.37344340294E+03 0.24227596816E+03 0.13551193876E+03
 0.65568466219E+02 0.31110894971E+02 0.19622317457E+02 0.14837465625E+02 0.11668238189E+02
 0.97353310070E+01 0.86304883760E+01 0.80549640281E+01 0.77067452175E+01 0.74263872940E+01
 0.73012977429E+01 0.74263872940E+01 0.77067452175E+01 0.80549640281E+01 0.86304883760E+01
 0.97353310070E+01 0.11668238189E+02 0.14837465625E+02 0.19622317457E+02 0.31110894971E+02
 0.65568466219E+02 0.13551193876E+03 0.24227596816E+03 0.37344340294E+03 0.50374114403E+03
 0.60089181060E+03 0.47556772590E+03 0.44787000694E+03 0.37344340294E+03 0.27412437759E+03
 0.17534021505E+03 0.96911534737E+02 0.47876931489E+02 0.25565968739E+02 0.18226501839E+02
 0.14095286753E+02 0.11422416840E+02 0.98097481283E+01 0.88778508617E+01 0.83702034414E+01
 0.80549640281E+01 0.78151549169E+01 0.77127666578E+01 0.78151549169E+01 0.80549640281E+01
 0.83702034414E+01 0.88778508617E+01 0.98097481283E+01 0.11422416840E+02 0.14095286753E+02
 0.18226501839E+02 0.25565968739E+02 0.47876931489E+02 0.96911534737E+02 0.17534021505E+03
 0.27412437759E+03 0.37344340294E+03 0.44787000694E+03 0.31203686851E+03 0.29304993173E+03
 0.24227596816E+03 0.17534021505E+03 0.11039922254E+03 0.61186476705E+02 0.32851960384E+02
 0.21358781074E+02 0.16617484144E+02 0.13306163131E+02 0.11229466488E+02 0.99944364906E+01
 0.92783968349E+01 0.88778508617E+01 0.86304883760E+01 0.84556329827E+01 0.83846471014E+01
 0.84556329827E+01 0.86304883760E+01 0.88778508617E+01 0.92783968349E+01 0.99944364906E+01
 0.11229466488E+02 0.13306163131E+02 0.16617484144E+02 0.21358781074E+02 0.32851960384E+02
 0.61186476705E+02 0.11039922254E+03 0.17534021505E+03 0.24227596816E+03 0.29304993173E+03
 0.17688014226E+03 0.16553290951E+03 0.13551193876E+03 0.96911534737E+02 0.61186476705E+02
 0.36272297827E+02 0.23688934680E+02 0.18547924080E+02 0.15037600516E+02 0.12644751781E+02
 0.11211260256E+02 0.10409837618E+02 0.99944364906E+01 0.98097481283E+01 0.97353310070E+01
 0.96964975621E+01 0.96809946076E+01 0.96964975621E+01 0.97353310070E+01 0.98097481283E+01
 0.99944364906E+01 0.10409837618E+02 0.11211260256E+02 0.12644751781E+02 0.15037600516E+02
 0.18547924080E+02 0.23688934680E+02 0.36272297827E+02 0.61186476705E+02 0.96911534737E+02
 0.13551193876E+03 0.16553290951E+03 0.85570744104E+02 0.79999731567E+02 0.65568466219E+02
 0.47876931489E+02 0.32851960384E+02 0.23688934680E+02 0.19262242537E+02 0.16095060473E+02
 0.13738722899E+02 0.12265549842E+02 0.11498802666E+02 0.11211260256E+02 0.11229466488E+02
 0.11422416840E+02 0.11668238189E+02 0.11860466771E+02 0.11931734550E+02 0.11860466771E+02
 0.11668238189E+02 0.11422416840E+02 0.11229466488E+02 0.11211260256E+02 0.11498802666E+02
 0.12265549842E+02 0.13738722899E+02 0.16095060473E+02 0.19262242537E+02 0.23688934680E+02
 0.32851960384E+02 0.47876931489E+02 0.65568466219E+02 0.79999731567E+02 0.38004978000E+02
 0.36029501118E+02 0.31110894971E+02 0.25565968739E+02 0.21358781074E+02 0.18547924080E+02
 0.16095060473E+02 0.14157385254E+02 0.12899202071E+02 0.12305711080E+02 0.12265549842E+02
 0.12644751781E+02 0.13306163131E+02 0.14095286753E+02 0.14837465625E+02 0.15364506682E+02
 0.15554883539E+02 0.15364506682E+02 0.14837465625E+02 0.14095286753E+02 0.13306163131E+02
 0.12644751781E+02 0.12265549842E+02 0.12305711080E+02 0.12899202071E+02 0.14157385254E+02
 0.16095060473E+02 0.18547924080E+02 0.21358781074E+02 0.25565968739E+02 0.31110894971E+02
 0.36029501118E+02 0.21131229114E+02 0.20700099398E+02 0.19622317457E+02 0.18226501839E+02
 0.16617484144E+02 0.15037600516E+02 0.13738722899E+02 0.12899202071E+02 0.12610763925E+02
 0.12899202071E+02 0.13738722899E+02 0.15037600516E+02 0.16617484144E+02 0.18226501839E+02
 0.19622317457E+02 0.20700099398E+02 0.21131229114E+02 0.20700099398E+02 0.19622317457E+02
 0.18226501839E+02 0.16617484144E+02 0.15037600516E+02 0.13738722899E+02 0.12899202071E+02
 0.12610763925E+02 0.12899202071E+02 0.13738722899E+02 0.15037600516E+02 0.16617484144E+02
 0.18226501839E+02 0.19622317457E+02 0.20700099398E+02 0.15554883539E+02 0.15364506682E+02
 0.14837465625E+02 0.14095286753E+02 0.13306163131E+02 0.12644751781E+02 0.12265549842E+02
 0.12305711080E+02 0.12899202071E+02 0.14157385254E+02 0.16095060473E+02 0.18547924080E+02
 0.21358781074E+02 0.25565968739E+02 0.31110894971E+02 0.36029501118E+02 0.38004978000E+02
 0.36029501118E+02 0.31110894971E+02 0.25565968739E+02 0.21358781074E+02 0.18547924080E+02
 0.16095060473E+02 0.14157385254E+02 0.12899202071E+02 0.12305711080E+02 0.12265549842E+02
 0.12644751781E+02 0.13306163131E+02 0.14095286753E+02 0.14837465625E+02 0.15364506682E+02
 0.11931734550E+02 0.11860466771E+02 0.11668238189E+02 0.11422416840E+02 0.11229466488E+02
 0.11211260256E+02 0.11498802666E+02 0.12265549842E+02 0.13738722899E+02 0.16095060473E+02
 0.19262242537E+02 0.23688934680E+02 0.32851960384E+02 0.47876931489E+02 0.65568466219E+02
 0.79999731567E+02 0.85570744104E+02 0.79999731567E+02 0.65568466219E+02 0.47876931489E+02
 0.32851960384E+02 0.23688934680E+02 0.19262242537E+02 0.16095060473E+02 0.13738722899E+02
 0.12265549842E+02 0.11498802666E+02 0.11211260256E+02 0.11229466488E+02 0.11422416840E+02
 0.11668238189E+02 0.11860466771E+02 0.96809946076E+01 0.96964975621E+01 0.97353310070E+01
 0.98097481283E+01 0.99944364906E+01 0.10409837618E+02 0.11211260256E+02 0.12644751781E+02
 0.15037600516E+02 0.18547924080E+02 0.23688934680E+02 0.36272297827E+02 0.61186476705E+02
 0.96911534737E+02 0.13551193876E+03 0.16553290951E+03 0.17688014226E+03 0.16553290951E+03
 0.13551193876E+03 0.96911534737E+02 0.61186476705E+02 0.36272297827E+02 0.23688934680E+02
 0.18547924080E+02 0.15037600516E+02 0.12644751781E+02 0.11211260256E+02 0.10409837618E+02
 0.99944364906E+01 0.98097481283E+01 0.97353310070E+01 0.96964975621E+01 0.83846471014E+01
 0.84556329827E+01 0.86304883760E+01 0.88778508617E+01 0.92783968349E+01 0.99944364906E+01
 0.11229466488E+02 0.13306163131E+02 0.16617484144E+02 0.21358781074E+02 0.32851960384E+02
 0.61186476705E+02 0.11039922254E+03 0.17534021505E+03 0.24227596816E+03 0.29304993173E+03
 0.31203686851E+03 0.29304993173E+03 0.24227596816E+03 0.17534021505E+03 0.11039922254E+03
 0.61186476705E+02 0.32851960384E+02 0.21358781074E+02 0.16617484144E+02 0.13306163131E+02
 0.11229466488E+02 0.99944364906E+01 0.92783968349E+01 0.88778508617E+01 0.86304883760E+01
 0.84556329827E+01 0.77127666578E+01 0.78151549169E+01 0.80549640281E+01 0.83702034414E+01
 0.88778508617E+01 0.98097481283E+01 0.11422416840E+02 0.14095286753E+02 0.18226501839E+02
 0.25565968739E+02 0.47876931489E+02 0.96911534737E+02 0.17534021505E+03 0.27412437759E+03
 0.37344340294E+03 0.44787000694E+03 0.47556772590E+03 0.44787000694E+03 0.37344340294E+03
 0.27412437759E+03 0.17534021505E+03 0.96911534737E+02 0.47876931489E+02 0.25565968739E+02
 0.18226501839E+02 0.14095286753E+02 0.11422416840E+02 0.98097481283E+01 0.88778508617E+01
 0.83702034414E+01 0.80549640281E+01 0.78151549169E+01 0.73012977429E+01 0.74263872940E+01
 0.77067452175E+01 0.80549640281E+01 0.86304883760E+01 0.97353310070E+01 0.11668238189E+02
 0.14837465625E+02 0.19622317457E+02 0.31110894971E+02 0.65568466219E+02 0.13551193876E+03
 0.24227596816E+03 0.37344340294E+03 0.50374114403E+03 0.60089181060E+03 0.63698679886E+03
 0.60089181060E+03 0.50374114403E+03 0.37344340294E+03 0.24227596816E+03 0.13551193876E+03
 0.65568466219E+02 0.31110894971E+02 0.19622317457E+02 0.14837465625E+02 0.11668238189E+02
 0.97353310070E+01 0.86304883760E+01 0.80549640281E+01 0.77067452175E+01 0.74263872940E+01
 0.69564415109E+01 0.71032561063E+01 0.74263872940E+01 0.78151549169E+01 0.84556329827E+01
 0.96964975621E+01 0.11860466771E+02 0.15364506682E+02 0.20700099398E+02 0.36029501118E+02
 0.79999731567E+02 0.16553290951E+03 0.29304993173E+03 0.44787000694E+03 0.60089181060E+03
 0.71480553322E+03 0.75711699295E+03 0.71480553322E+03 0.60089181060E+03 0.44787000694E+03
 0.29304993173E+03 0.16553290951E+03 0.79999731567E+02 0.36029501118E+02 0.20700099398E+02
 0.15364506682E+02 0.11860466771E+02 0.96964975621E+01 0.84556329827E+01 0.78151549169E+01
 0.74263872940E+01 0.71032561063E+01 0.67993631287E+01 0.69564415109E+01 0.73012977429E+01
 0.77127666578E+01 0.83846471014E+01 0.96809946076E+01 0.11931734550E+02 0.15554883539E+02
 0.21131229114E+02 0.38004978000E+02 0.85570744104E+02 0.17688014226E+03 0.31203686851E+03
 0.47556772590E+03 0.63698679886E+03 0.75711699295E+03 0.80173860577E+03 0.75711699295E+03
 0.63698679886E+03 0.47556772590E+03 0.31203686851E+03 0.17688014226E+03 0.85570744104E+02
 0.38004978000E+02 0.21131229114E+02 0.15554883539E+02 0.11931734550E+02 0.96809946076E+01
 0.83846471014E+01 0.77127666578E+01 0.73012977429E+01 0.69564415109E+01 0.69564415109E+01
 0.71032561063E+01 0.74263872940E+01 0.78151549169E+01 0.84556329827E+01 0.96964975621E+01
 0.11860466771E+02 0.15364506682E+02 0.20700099398E+02 0.36029501118E+02 0.79999731567E+02
 0.16553290951E+03 0.29304993173E+03 0.44787000694E+03 0.60089181060E+03 0.71480553322E+03
 0.75711699295E+03 0.71480553322E+03 0.60089181060E+03 0.44787000694E+03 0.29304993173E+03
 0.16553290951E+03 0.79999731567E+02 0.36029501118E+02 0.20700099398E+02 0.15364506682E+02
 0.11860466771E+02 0.96964975621E+01 0.84556329827E+01 0.78151549169E+01 0.74263872940E+01
 0.71032561063E+01 0.73012977429E+01 0.74263872940E+01 0.77067452175E+01 0.80549640281E+01
 0.86304883760E+01 0.97353310070E+01 0.11668238189E+02 0.14837465625E+02 0.19622317457E+02
 0.31110894971E+02 0.65568466219E+02 0.13551193876E+03 0.24227596816E+03 0.37344340294E+03
 0.50374114403E+03 0.60089181060E+03 0.63698679886E+03 0.60089181060E+03 0.50374114403E+03
 0.37344340294E+03 0.24227596816E+03 0.13551193876E+03 0.65568466219E+02 0.31110894971E+02
 0.19622317457E+02 0.14837465625E+02 0.11668238189E+02 0.97353310070E+01 0.86304883760E+01
 0.80549640281E+01 0.77067452175E+01 0.74263872940E+01 0.77127666578E+01 0.78151549169E+01
 0.80549640281E+01 0.83702034414E+01 0.88778508617E+01 0.98097481283E+01 0.11422416840E+02
 0.14095286753E+02 0.18226501839E+02 0.25565968739E+02 0.47876931489E+02 0.96911534737E+02
 0.17534021505E+03 0.27412437759E+03 0.37344340294E+03 0.44787000694E+03 0.47556772590E+03
 0.44787000694E+03 0.37344340294E+03 0.27412437759E+03 0.17534021505E+03 0.96911534737E+02
 0.47876931489E+02 0.25565968739E+02 0.18226501839E+02 0.14095286753E+02 0.11422416840E+02
 0.98097481283E+01 0.88778508617E+01 0.83702034414E+01 0.80549640281E+01 0.78151549169E+01
 0.83846471014E+01 0.84556329827E+01 0.86304883760E+01 0.88778508617E+01 0.92783968349E+01
 0.99944364906E+01 0.11229466488E+02 0.13306163131E+02 0.16617484144E+02 0.21358781074E+02
 0.32851960384E+02 0.61186476705E+02 0.11039922254E+03 0.17534021505E+03 0.24227596816E+03
 0.29304993173E+03 0.31203686851E+03 0.29304993173E+03 0.24227596816E+03 0.17534021505E+03
 0.11039922254E+03 0.61186476705E+02 0.32851960384E+02 0.21358781074E+02 0.16617484144E+02
 0.13306163131E+02 0.11229466488E+02 0.99944364906E+01 0.92783968349E+01 0.88778508617E+01
 0.86304883760E+01 0.84556329827E+01 0.96809946076E+01 0.96964975621E+01 0.97353310070E+01
 0.98097481283E+01 0.99944364906E+01 0.10409837618E+02 0.11211260256E+02 0.12644751781E+02
 0.15037600516E+02 0.18547924080E+02 0.23688934680E+02 0.36272297827E+02 0.61186476705E+02
 0.96911534737E+02 0.13551193876E+03 0.16553290951E+03 0.17688014226E+03 0.16553290951E+03
 0.13551193876E+03 0.96911534737E+02 0.61186476705E+02 0.36272297827E+02 0.23688934680E+02
 0.18547924080E+02 0.15037600516E+02 0.12644751781E+02 0.11211260256E+02 0.10409837618E+02
 0.99944364906E+01 0.98097481283E+01 0.97353310070E+01 0.96964975621E+01 0.11931734550E+02
 0.11860466771E+02 0.11668238189E+02 0.11422416840E+02 0.11229466488E+02 0.11211260256E+02
 0.11498802666E+02 0.12265549842E+02 0.13738722899E+02 0.16095060473E+02 0.19262242537E+02
 0.23688934680E+02 0.32851960384E+02 0.47876931489E+02 0.65568466219E+02 0.79999731567E+02
 0.85570744104E+02 0.79999731567E+02 0.65568466219E+02 0.47876931489E+02 0.32851960384E+02
 0.23688934680E+02 0.19262242537E+02 0.16095060473E+02 0.13738722899E+02 0.12265549842E+02
 0.11498802666E+02 0.11211260256E+02 0.11229466488E+02 0.11422416840E+02 0.11668238189E+02
 0.11860466771E+02 0.15554883539E+02 0.15364506682E+02 0.14837465625E+02 0.14095286753E+02
 0.13306163131E+02 0.12644751781E+02 0.12265549842E+02 0.12305711080E+02 0.12899202071E+02
 0.14157385254E+02 0.16095060473E+02 0.18547924080E+02 0.21358781074E+02 0.25565968739E+02
 0.31110894971E+02 0.36029501118E+02 0.38004978000E+02 0.36029501118E+02 0.31110894971E+02
 0.25565968739E+02 0.21358781074E+02 0.18547924080E+02 0.16095060473E+02 0.14157385254E+02
 0.12899202071E+02 0.12305711080E+02 0.12265549842E+02 0.12644751781E+02 0.13306163131E+02
 0.14095286753E+02 0.14837465625E+02 0.15364506682E+02 0.21131229114E+02 0.20700099398E+02
 0.19622317457E+02 0.18226501839E+02 0.16617484144E+02 0.15037600516E+02 0.13738722899E+02
 0.12899202071E+02 0.12610763925E+02 0.12899202071E+02 0.13738722899E+02 0.15037600516E+02
 0.16617484144E+02 0.18226501839E+02 0.19622317457E+02 0.20700099398E+02 0.21131229114E+02
 0.20700099398E+02 0.19622317457E+02 0.18226501839E+02 0.16617484144E+02 0.15037600516E+02
 0.13738722899E+02 0.12899202071E+02 0.12610763925E+02 0.12899202071E+02 0.13738722899E+02
 0.15037600516E+02 0.16617484144E+02 0.18226501839E+02 0.19622317457E+02 0.20700099398E+02
 0.38004978000E+02 0.36029501118E+02 0.31110894971E+02 0.25565968739E+02 0.21358781074E+02
 0.18547924080E+02 0.16095060473E+02 0.14157385254E+02 0.12899202071E+02 0.12305711080E+02
 0.12265549842E+02 0.12644751781E+02 0.13306163131E+02 0.14095286753E+02 0.14837465625E+02
 0.15364506682E+02 0.15554883539E+02 0.15364506682E+02 0.14837465625E+02 0.14095286753E+02
 0.13306163131E+02 0.12644751781E+02 0.12265549842E+02 0.12305711080E+02 0.12899202071E+02
 0.14157385254E+02 0.16095060473E+02 0.18547924080E+02 0.21358781074E+02 0.25565968739E+02
 0.31110894971E+02 0.36029501118E+02 0.85570744104E+02 0.79999731567E+02 0.65568466219E+02
 0.47876931489E+02 0.32851960384E+02 0.23688934680E+02 0.19262242537E+02 0.16095060473E+02
 0.13738722899E+02 0.12265549842E+02 0.11498802666E+02 0.11211260256E+02 0.11229466488E+02
 0.11422416840E+02 0.11668238189E+02 0.11860466771E+02 0.11931734550E+02 0.11860466771E+02
 0.11668238189E+02 0.11422416840E+02 0.11229466488E+02 0.11211260256E+02 0.11498802666E+02
 0.12265549842E+02 0.13738722899E+02 0.16095060473E+02 0.19262242537E+02 0.23688934680E+02
 0.32851960384E+02 0.47876931489E+02 0.65568466219E+02 0.79999731567E+02 0.17688014226E+03
 0.16553290951E+03 0.13551193876E+03 0.96911534737E+02 0.61186476705E+02 0.36272297827E+02
 0.23688934680E+02 0.18547924080E+02 0.15037600516E+02 0.12644751781E+02 0.11211260256E+02
 0.10409837618E+02 0.99944364906E+01 0.98097481283E+01 0.97353310070E+01 0.96964975621E+01
 0.96809946076E+01 0.96964975621E+01 0.97353310070E+01 0.98097481283E+01 0.99944364906E+01
 0.10409837618E+02 0.11211260256E+02 0.12644751781E+02 0.15037600516E+02 0.18547924080E+02
 0.23688934680E+02 0.36272297827E+02 0.61186476705E+02 0.96911534737E+02 0.13551193876E+03
 0.16553290951E+03 0.31203686851E+03 0.29304993173E+03 0.24227596816E+03 0.17534021505E+03
 0.11039922254E+03 0.61186476705E+02 0.32851960384E+02 0.21358781074E+02 0.16617484144E+02
 0.13306163131E+02 0.11229466488E+02 0.99944364906E+01 0.92783968349E+01 0.88778508617E+01
 0.86304883760E+01 0.84556329827E+01 0.83846471014E+01 0.84556329827E+01 0.86304883760E+01
 0.88778508617E+01 0.92783968349E+01 0.99944364906E+01 0.11229466488E+02 0.13306163131E+02
 0.16617484144E+02 0.21358781074E+02 0.32851960384E+02 0.61186476705E+02 0.11039922254E+03
 0.17534021505E+03 0.24227596816E+03 0.29304993173E+03 0.47556772590E+03 0.44787000694E+03
 0.37344340294E+03 0.27412437759E+03 0.17534021505E+03 0.96911534737E+02 0.47876931489E+02
 0.25565968739E+02 0.18226501839E+02 0.14095286753E+02 0.11422416840E+02 0.98097481283E+01
 0.88778508617E+01 0.83702034414E+01 0.80549640281E+01 0.78151549169E+01 0.77127666578E+01
 0.78151549169E+01 0.80549640281E+01 0.83702034414E+01 0.88778508617E+01 0.98097481283E+01
 0.11422416840E+02 0.14095286753E+02 0.18226501839E+02 0.25565968739E+02 0.47876931489E+02
 0.96911534737E+02 0.17534021505E+03 0.27412437759E+03 0.37344340294E+03 0.44787000694E+03
 0.63698679886E+03 0.60089181060E+03 0.50374114403E+03 0.37344340294E+03 0.24227596816E+03
 0.13551193876E+03 0.65568466219E+02 0.31110894971E+02 0.19622317457E+02 0.14837465625E+02
 0.11668238189E+02 0.97353310070E+01 0.86304883760E+01 0.80549640281E+01 0.77067452175E+01
 0.74263872940E+01 0.73012977429E+01 0.74263872940E+01 0.77067452175E+01 0.80549640281E+01
 0.86304883760E+01 0.97353310070E+01 0.11668238189E+02 0.14837465625E+02 0.19622317457E+02
 0.31110894971E+02 0.65568466219E+02 0.13551193876E+03 0.24227596816E+03 0.37344340294E+03
 0.50374114403E+03 0.60089181060E+03 0.75711699295E+03 0.71480553322E+03 0.60089181060E+03
 0.44787000694E+03 0.29304993173E+03 0.16553290951E+03 0.79999731567E+02 0.36029501118E+02
 0.20700099398E+02 0.15364506682E+02 0.11860466771E+02 0.96964975621E+01 0.84556329827E+01
 0.78151549169E+01 0.74263872940E+01 0.71032561063E+01 0.69564415109E+01 0.71032561063E+01
 0.74263872940E+01 0.78151549169E+01 0.84556329827E+01 0.96964975621E+01 0.11860466771E+02
 0.15364506682E+02 0.20700099398E+02 0.36029501118E+02 0.79999731567E+02 0.16553290951E+03
 0.29304993173E+03 0.44787000694E+03 0.60089181060E+03 0.71480553322E+03 0.75711699295E+03
 0.71480553322E+03 0.60089181060E+03 0.44787000694E+03 0.29304993173E+03 0.16553290951E+03
 0.79999731567E+02 0.36029501118E+02 0.20700099398E+02 0.15364506682E+02 0.11860466771E+02
 0.96964975621E+01 0.84556329827E+01 0.78151549169E+01 0.74263872940E+01 0.71032561063E+01
 0.69564415109E+01 0.71032561063E+01 0.74263872940E+01 0.78151549169E+01 0.84556329827E+01
 0.96964975621E+01 0.11860466771E+02 0.15364506682E+02 0.20700099398E+02 0.36029501118E+02
 0.79999731567E+02 0.16553290951E+03 0.29304993173E+03 0.44787000694E+03 0.60089181060E+03
 0.71480553322E+03 0.71480553322E+03 0.67468516615E+03 0.56667339634E+03 0.42163724283E+03
 0.27511338449E+03 0.15487190209E+03 0.74820043253E+02 0.34227218367E+02 0.20305299395E+02
 0.15178160679E+02 0.11790225534E+02 0.97096372088E+01 0.85215699572E+01 0.79107029797E+01
 0.75431998406E+01 0.72404352751E+01 0.71032561063E+01 0.72404352751E+01 0.75431998406E+01
 0.79107029797E+01 0.85215699572E+01 0.97096372088E+01 0.11790225534E+02 0.15178160679E+02
 0.20305299395E+02 0.34227218367E+02 0.74820043253E+02 0.15487190209E+03 0.27511338449E+03
 0.42163724283E+03 0.56667339634E+03 0.67468516615E+03 0.60089181060E+03 0.56667339634E+03
 0.47459084782E+03 0.35117934008E+03 0.22718877901E+03 0.12670569027E+03 0.61432598989E+02
 0.29753979402E+02 0.19302889821E+02 0.14663216999E+02 0.11601512442E+02 0.97432705252E+01
 0.86849707047E+01 0.81355048216E+01 0.78059354164E+01 0.75431998406E+01 0.74263872940E+01
 0.75431998406E+01 0.78059354164E+01 0.81355048216E+01 0.86849707047E+01 0.97432705252E+01
 0.11601512442E+02 0.14663216999E+02 0.19302889821E+02 0.29753979402E+02 0.61432598989E+02
 0.12670569027E+03 0.22718877901E+03 0.35117934008E+03 0.47459084782E+03 0.56667339634E+03
 0.44787000694E+03 0.42163724283E+03 0.35117934008E+03 0.25727529430E+03 0.16413931056E+03
 0.90606588831E+02 0.45103273776E+02 0.24738675081E+02 0.17949527107E+02 0.13940272088E+02
 0.11361446047E+02 0.98117359765E+01 0.89189996676E+01 0.84341241442E+01 0.81355048216E+01
 0.79107029797E+01 0.78151549169E+01 0.79107029797E+01 0.81355048216E+01 0.84341241442E+01
 0.89189996676E+01 0.98117359765E+01 0.11361446047E+02 0.13940272088E+02 0.17949527107E+02
 0.24738675081E+02 0.45103273776E+02 0.90606588831E+02 0.16413931056E+03 0.25727529430E+03
 0.35117934008E+03 0.42163724283E+03 0.29304993173E+03 0.27511338449E+03 0.22718877901E+03
 0.16413931056E+03 0.10321807365E+03 0.57397491583E+02 0.31356335607E+02 0.20928598727E+02
 0.16377945830E+02 0.13174200812E+02 0.11173549440E+02 0.99873770625E+01 0.93014693276E+01
 0.89189996676E+01 0.86849707047E+01 0.85215699572E+01 0.84556329827E+01 0.85215699572E+01
 0.86849707047E+01 0.89189996676E+01 0.93014693276E+01 0.99873770625E+01 0.11173549440E+02
 0.13174200812E+02 0.16377945830E+02 0.20928598727E+02 0.31356335607E+02 0.57397491583E+02
 0.10321807365E+03 0.16413931056E+03 0.22718877901E+03 0.27511338449E+03 0.16553290951E+03
 0.15487190209E+03 0.12670569027E+03 0.90606588831E+02 0.57397491583E+02 0.34478222083E+02
 0.23060452223E+02 0.18248209401E+02 0.14842716714E+02 0.12534030168E+02 0.11154764940E+02
 0.10385231009E+02 0.99873770625E+01 0.98117359765E+01 0.97432705252E+01 0.97096372088E+01
 0.96964975621E+01 0.97096372088E+01 0.97432705252E+01 0.98117359765E+01 0.99873770625E+01
 0.10385231009E+02 0.11154764940E+02 0.12534030168E+02 0.14842716714E+02 0.18248209401E+02
 0.23060452223E+02 0.34478222083E+02 0.57397491583E+02 0.90606588831E+02 0.12670569027E+03
 0.15487190209E+03 0.79999731567E+02 0.74820043253E+02 0.61432598989E+02 0.45103273776E+02
 0.31356335607E+02 0.23060452223E+02 0.18941525431E+02 0.15862307397E+02 0.13586007629E+02
 0.12167666337E+02 0.11430578636E+02 0.11154764940E+02 0.11173549440E+02 0.11361446047E+02
 0.11601512442E+02 0.11790225534E+02 0.11860466771E+02 0.11790225534E+02 0.11601512442E+02
 0.11361446047E+02 0.11173549440E+02 0.11154764940E+02 0.11430578636E+02 0.12167666337E+02
 0.13586007629E+02 0.15862307397E+02 0.18941525431E+02 0.23060452223E+02 0.31356335607E+02
 0.45103273776E+02 0.61432598989E+02 0.74820043253E+02 0.36029501118E+02 0.34227218367E+02
 0.29753979402E+02 0.24738675081E+02 0.20928598727E+02 0.18248209401E+02 0.15862307397E+02
 0.13988456611E+02 0.12776286766E+02 0.12205687580E+02 0.12167666337E+02 0.12534030168E+02
 0.13174200812E+02 0.13940272088E+02 0.14663216999E+02 0.15178160679E+02 0.15364506682E+02
 0.15178160679E+02 0.14663216999E+02 0.13940272088E+02 0.13174200812E+02 0.12534030168E+02
 0.12167666337E+02 0.12205687580E+02 0.12776286766E+02 0.13988456611E+02 0.15862307397E+02
 0.18248209401E+02 0.20928598727E+02 0.24738675081E+02 0.29753979402E+02 0.34227218367E+02
 0.20700099398E+02 0.20305299395E+02 0.19302889821E+02 0.17949527107E+02 0.16377945830E+02
 0.14842716714E+02 0.13586007629E+02 0.12776286766E+02 0.12498547744E+02 0.12776286766E+02
 0.13586007629E+02 0.14842716714E+02 0.16377945830E+02 0.17949527107E+02 0.19302889821E+02
 0.20305299395E+02 0.20700099398E+02 0.20305299395E+02 0.19302889821E+02 0.17949527107E+02
 0.16377945830E+02 0.14842716714E+02 0.13586007629E+02 0.12776286766E+02 0.12498547744E+02
 0.12776286766E+02 0.13586007629E+02 0.14842716714E+02 0.16377945830E+02 0.17949527107E+02
 0.19302889821E+02 0.20305299395E+02 0.15364506682E+02 0.15178160679E+02 0.14663216999E+02
 0.13940272088E+02 0.13174200812E+02 0.12534030168E+02 0.12167666337E+02 0.12205687580E+02
 0.12776286766E+02 0.13988456611E+02 0.15862307397E+02 0.18248209401E+02 0.20928598727E+02
 0.24738675081E+02 0.29753979402E+02 0.34227218367E+02 0.36029501118E+02 0.34227218367E+02
 0.29753979402E+02 0.24738675081E+02 0.20928598727E+02 0.18248209401E+02 0.15862307397E+02
 0.13988456611E+02 0.12776286766E+02 0.12205687580E+02 0.12167666337E+02 0.12534030168E+02
 0.13174200812E+02 0.13940272088E+02 0.14663216999E+02 0.15178160679E+02 0.11860466771E+02
 0.11790225534E+02 0.11601512442E+02 0.11361446047E+02 0.11173549440E+02 0.11154764940E+02
 0.11430578636E+02 0.12167666337E+02 0.13586007629E+02 0.15862307397E+02 0.18941525431E+02
 0.23060452223E+02 0.31356335607E+02 0.45103273776E+02 0.61432598989E+02 0.74820043253E+02
 0.79999731567E+02 0.74820043253E+02 0.61432598989E+02 0.45103273776E+02 0.31356335607E+02
 0.23060452223E+02 0.18941525431E+02 0.15862307397E+02 0.13586007629E+02 0.12167666337E+02
 0.11430578636E+02 0.11154764940E+02 0.11173549440E+02 0.11361446047E+02 0.11601512442E+02
 0.11790225534E+02 0.96964975621E+01 0.97096372088E+01 0.97432705252E+01 0.98117359765E+01
 0.99873770625E+01 0.10385231009E+02 0.11154764940E+02 0.12534030168E+02 0.14842716714E+02
 0.18248209401E+02 0.23060452223E+02 0.34478222083E+02 0.57397491583E+02 0.90606588831E+02
 0.12670569027E+03 0.15487190209E+03 0.16553290951E+03 0.15487190209E+03 0.12670569027E+03
 0.90606588831E+02 0.57397491583E+02 0.34478222083E+02 0.23060452223E+02 0.18248209401E+02
 0.14842716714E+02 0.12534030168E+02 0.11154764940E+02 0.10385231009E+02 0.99873770625E+01
 0.98117359765E+01 0.97432705252E+01 0.97096372088E+01 0.84556329827E+01 0.85215699572E+01
 0.86849707047E+01 0.89189996676E+01 0.93014693276E+01 0.99873770625E+01 0.11173549440E+02
 0.13174200812E+02 0.16377945830E+02 0.20928598727E+02 0.31356335607E+02 0.57397491583E+02
 0.10321807365E+03 0.16413931056E+03 0.22718877901E+03 0.27511338449E+03 0.29304993173E+03
 0.27511338449E+03 0.22718877901E+03 0.16413931056E+03 0.10321807365E+03 0.57397491583E+02
 0.31356335607E+02 0.20928598727E+02 0.16377945830E+02 0.13174200812E+02 0.11173549440E+02
 0.99873770625E+01 0.93014693276E+01 0.89189996676E+01 0.86849707047E+01 0.85215699572E+01
 0.78151549169E+01 0.79107029797E+01 0.81355048216E+01 0.84341241442E+01 0.89189996676E+01
 0.98117359765E+01 0.11361446047E+02 0.13940272088E+02 0.17949527107E+02 0.24738675081E+02
 0.45103273776E+02 0.90606588831E+02 0.16413931056E+03 0.25727529430E+03 0.35117934008E+03
 0.42163724283E+03 0.44787000694E+03 0.42163724283E+03 0.35117934008E+03 0.25727529430E+03
 0.16413931056E+03 0.90606588831E+02 0.45103273776E+02 0.24738675081E+02 0.17949527107E+02
 0.13940272088E+02 0.11361446047E+02 0.98117359765E+01 0.89189996676E+01 0.84341241442E+01
 0.81355048216E+01 0.79107029797E+01 0.74263872940E+01 0.75431998406E+01 0.78059354164E+01
 0.81355048216E+01 0.86849707047E+01 0.97432705252E+01 0.11601512442E+02 0.14663216999E+02
 0.19302889821E+02 0.29753979402E+02 0.61432598989E+02 0.12670569027E+03 0.22718877901E+03
 0.35117934008E+03 0.47459084782E+03 0.56667339634E+03 0.60089181060E+03 0.56667339634E+03
 0.47459084782E+03 0.35117934008E+03 0.22718877901E+03 0.12670569027E+03 0.61432598989E+02
 0.29753979402E+02 0.19302889821E+02 0.14663216999E+02 0.11601512442E+02 0.97432705252E+01
 0.86849707047E+01 0.81355048216E+01 0.78059354164E+01 0.75431998406E+01 0.71032561063E+01
 0.72404352751E+01 0.75431998406E+01 0.79107029797E+01 0.85215699572E+01 0.97096372088E+01
 0.11790225534E+02 0.15178160679E+02 0.20305299395E+02 0.34227218367E+02 0.74820043253E+02
 0.15487190209E+03 0.27511338449E+03 0.42163724283E+03 0.56667339634E+03 0.67468516615E+03
 0.71480553322E+03 0.67468516615E+03 0.56667339634E+03 0.42163724283E+03 0.27511338449E+03
 0.15487190209E+03 0.74820043253E+02 0.34227218367E+02 0.20305299395E+02 0.15178160679E+02
 0.11790225534E+02 0.97096372088E+01 0.85215699572E+01 0.79107029797E+01 0.75431998406E+01
 0.72404352751E+01 0.69564415109E+01 0.71032561063E+01 0.74263872940E+01 0.78151549169E+01
 0.84556329827E+01 0.96964975621E+01 0.11860466771E+02 0.15364506682E+02 0.20700099398E+02
 0.36029501118E+02 0.79999731567E+02 0.16553290951E+03 0.29304993173E+03 0.44787000694E+03
 0.60089181060E+03 0.71480553322E+03 0.75711699295E+03 0.71480553322E+03 0.60089181060E+03
 0.44787000694E+03 0.29304993173E+03 0.16553290951E+03 0.79999731567E+02 0.36029501118E+02
 0.20700099398E+02 0.15364506682E+02 0.11860466771E+02 0.96964975621E+01 0.84556329827E+01
 0.78151549169E+01 0.74263872940E+01 0.71032561063E+01 0.71032561063E+01 0.72404352751E+01
 0.75431998406E+01 0.79107029797E+01 0.85215699572E+01 0.97096372088E+01 0.11790225534E+02
 0.15178160679E+02 0.20305299395E+02 0.34227218367E+02 0.74820043253E+02 0.15487190209E+03
 0.27511338449E+03 0.42163724283E+03 0.56667339634E+03 0.67468516615E+03 0.71480553322E+03
 0.67468516615E+03 0.56667339634E+03 0.42163724283E+03 0.27511338449E+03 0.15487190209E+03
 0.74820043253E+02 0.34227218367E+02 0.20305299395E+02 0.15178160679E+02 0.11790225534E+02
 0.97096372088E+01 0.85215699572E+01 0.79107029797E+01 0.75431998406E+01 0.72404352751E+01
 0.74263872940E+01 0.75431998406E+01 0.78059354164E+01 0.81355048216E+01 0.86849707047E+01
 0.97432705252E+01 0.11601512442E+02 0.14663216999E+02 0.19302889821E+02 0.29753979402E+02
 0.61432598989E+02 0.12670569027E+03 0.22718877901E+03 0.35117934008E+03 0.47459084782E+03
 0.56667339634E+03 0.60089181060E+03 0.56667339634E+03 0.47459084782E+03 0.35117934008E+03
 0.22718877901E+03 0.12670569027E+03 0.61432598989E+02 0.29753979402E+02 0.19302889821E+02