 vasp.6.2.0 18Jan21 (build Mar 17 2021 09:06:54) complex                        
  
 executed on             LinuxIFC date 2021.08.03  10:15:23
 serial version


--------------------------------------------------------------------------------------------------------


 INCAR:
   ENCUT = 320.000000
   SIGMA = 0.200000
   EDIFF = 1.00e-06
   GGA = PE
   PREC = normal
   IBRION = 1
   ICHARG = 1
   ISIF = 2
   ISMEAR = 1
   KPAR = 1
   NBANDS = 30
   NSW = 0
   NCORE = 1
   LCHARG = .TRUE.

 POTCAR:    PAW_PBE Cu 22Jun2005                  
 POTCAR:    PAW_PBE Cu 22Jun2005                  
   SHA256 =  0e71e558f37a4e8407882b4609ceaae59938afaad9ced71dfe8490308a0ab630 Cu/POTCAR             
   COPYR  = (c) Copyright 22Jun2005 Georg Kresse                                                    
   COPYR  = This file is part of the software VASP. Any use, copying, and all other rights are regul
   COPYR  = If you do not have a valid VASP license, you may not use, copy or distribute this file. 
   VRHFIN =Cu: d10 p1                                                                               
   LEXCH  = PE                                                                                      
   EATOM  =  1390.9808 eV,  102.2342 Ry                                                             
                                                                                                    
   TITEL  = PAW_PBE Cu 22Jun2005                                                                    
   LULTRA =        F    use ultrasoft PP ?                                                          
   IUNSCR =        1    unscreen: 0-lin 1-nonlin 2-no                                               
   RPACOR =    2.000    partial core radius                                                         
   POMASS =   63.546; ZVAL   =   11.000    mass and valenz                                          
   RCORE  =    2.300    outmost cutoff radius                                                       
   RWIGS  =    2.200; RWIGS  =    1.164    wigner-seitz radius (au A)                               
   ENMAX  =  295.446; ENMIN  =  221.585 eV                                                          
   ICORE  =        3    local potential                                                             
   LCOR   =        T    correct aug charges                                                         
   LPAW   =        T    paw PP                                                                      
   EAUG   =  586.980                                                                                
   DEXC   =    0.000                                                                                
   RMAX   =    2.344    core radius for proj-oper                                                   
   RAUG   =    1.300    factor for augmentation sphere                                              
   RDEP   =    2.302    radius for radial grids                                                     
   RDEPT  =    1.771    core radius for aug-charge                                                  
                                                                                                    
   Atomic configuration                                                                             
    9 entries                                                                                       
     n  l   j            E        occ.                                                              
     1  0  0.50     -8850.2468   2.0000                                                             
     2  0  0.50     -1062.3498   2.0000                                                             
     2  1  1.50      -916.8226   6.0000                                                             
     3  0  0.50      -114.6929   2.0000                                                             
     3  1  1.50       -72.1325   6.0000                                                             
     3  2  2.50        -5.0394  10.0000                                                             
     4  0  0.50        -4.6097   1.0000                                                             
     4  1  0.50        -4.0817   0.0000                                                             
     4  3  2.50        -1.3606   0.0000                                                             
   Description                                                                                      
     l       E           TYP  RCUT    TYP  RCUT                                                     
     2     -5.0393973     23  2.200                                                                 
     2     10.8846608     23  2.200                                                                 
     0     -4.6097109     23  2.200                                                                 
     0      8.2520465     23  2.200                                                                 
     1     -2.7211652     23  2.200                                                                 
     1     21.7055443     23  2.200                                                                 
     3      2.7211652     23  2.300                                                                 
  local pseudopotential read in
  partial core-charges read in
  partial kinetic energy density read in
  atomic valenz-charges read in
  non local Contribution for L=           2  read in
    real space projection operators read in
  non local Contribution for L=           2  read in
    real space projection operators read in
  non local Contribution for L=           0  read in
    real space projection operators read in
  non local Contribution for L=           0  read in
    real space projection operators read in
  non local Contribution for L=           1  read in
    real space projection operators read in
  non local Contribution for L=           1  read in
    real space projection operators read in
    PAW grid and wavefunctions read in
 
   number of l-projection  operators is LMAX  =           6
   number of lm-projection operators is LMMAX =          18
 
  PAW_PBE Cu 22Jun2005                  :
 energy of atom  1       EATOM=-1390.9808
 kinetic energy error for atom=    0.0368 (will be added to EATOM!!)
 
 
 POSCAR: Cu
  positions in cartesian coordinates
  No initial velocities read in
 exchange correlation table for  LEXCH =        8
   RHO(1)=    0.500       N(1)  =     2000
   RHO(2)=  100.500       N(2)  =     4000
 


--------------------------------------------------------------------------------------------------------


 ion  position               nearest neighbor table
   1  0.000  0.000  0.000-   2 2.53   3 2.53   4 2.53   3 2.53   4 2.53   2 2.53   4 2.53   4 2.53
                             2 2.53   3 2.53   3 2.53   2 2.53
   2  0.500  0.500  0.000-   1 2.53   3 2.53   4 2.53   3 2.53   4 2.53   1 2.53   3 2.53   3 2.53
                             1 2.53   4 2.53   4 2.53   1 2.53
   3  0.500  0.000  0.500-   1 2.53   2 2.53   4 2.53   1 2.53   2 2.53   2 2.53   4 2.53   2 2.53
                             1 2.53   4 2.53   1 2.53   4 2.53
   4  0.000  0.500  0.500-   1 2.53   2 2.53   3 2.53   1 2.53   2 2.53   1 2.53   3 2.53   1 2.53
                             2 2.53   3 2.53   2 2.53   3 2.53
 
  LATTYP: Found a simple cubic cell.
 ALAT       =     3.5733779260
  
  Lattice vectors:
  
 A1 = (   3.5733779260,   0.0000000000,   0.0000000000)
 A2 = (   0.0000000000,   3.5733779260,   0.0000000000)
 A3 = (   0.0000000000,   0.0000000000,   3.5733779260)


Analysis of symmetry for initial positions (statically):
=====================================================================
 Subroutine PRICEL returns following result:
 
  LATTYP: Found a face centered cubic cell.
 ALAT       =     3.5733779260
  
  Lattice vectors:
  
 A1 = (   1.7866889630,  -1.7866889630,   0.0000000000)
 A2 = (   1.7866889630,   0.0000000000,   1.7866889630)
 A3 = (   0.0000000000,  -1.7866889630,   1.7866889630)
 
   4 primitive cells build up your supercell.
 

 Routine SETGRP: Setting up the symmetry group for a 
 simple cubic supercell.


 Subroutine GETGRP returns: Found 48 space group operations
 (whereof 48 operations were pure point group operations)
 out of a pool of 48 trial point group operations.


The static configuration has the point symmetry O_h .


Analysis of symmetry for dynamics (positions and initial velocities):
=====================================================================
 Subroutine PRICEL returns following result:
 
  LATTYP: Found a face centered cubic cell.
 ALAT       =     3.5733779260
  
  Lattice vectors:
  
 A1 = (   1.7866889630,  -1.7866889630,   0.0000000000)
 A2 = (   1.7866889630,   0.0000000000,   1.7866889630)
 A3 = (   0.0000000000,  -1.7866889630,   1.7866889630)
 
   4 primitive cells build up your supercell.
 

 Routine SETGRP: Setting up the symmetry group for a 
 simple cubic supercell.


 Subroutine GETGRP returns: Found 48 space group operations
 (whereof 48 operations were pure point group operations)
 out of a pool of 48 trial point group operations.


The dynamic configuration has the point symmetry O_h .


 Subroutine INISYM returns: Found 48 space group operations
 (whereof 48 operations are pure point group operations),
 and found     4 'primitive' translations


----------------------------------------------------------------------------------------

                                     Primitive cell                                     

  volume of cell :      11.4071

  direct lattice vectors                    reciprocal lattice vectors
     1.786688963 -1.786688963  0.000000000     0.279847254 -0.279847254 -0.279847254
     1.786688963  0.000000000  1.786688963     0.279847254  0.279847254  0.279847254
     0.000000000 -1.786688963  1.786688963    -0.279847254 -0.279847254  0.279847254

  length of vectors
     2.526759763  2.526759763  2.526759763     0.484709662  0.484709662  0.484709662

  position of ions in fractional coordinates (direct lattice)
     0.000000000  0.000000000  0.000000000

  ion indices of the primitive-cell ions
   primitive index   ion index
                 1           1

----------------------------------------------------------------------------------------

 
 
 KPOINTS: KPOINTS created by Atomic Simulation Env

Automatic generation of k-mesh.
 Grid dimensions read from file:
 generate k-points for:    9    9    9

 Generating k-lattice:

  Cartesian coordinates                     Fractional coordinates (reciprocal lattice)
     0.031094139  0.000000000  0.000000000     0.111111111  0.000000000  0.000000000
     0.000000000  0.031094139  0.000000000     0.000000000  0.111111111  0.000000000
     0.000000000  0.000000000  0.031094139     0.000000000  0.000000000  0.111111111

  Length of vectors
     0.031094139  0.031094139  0.031094139

  Shift w.r.t. Gamma in fractional coordinates (k-lattice)
     0.000000000  0.000000000  0.000000000

 
 Subroutine IBZKPT returns following result:
 ===========================================
 
 Found     35 irreducible k-points:
 
 Following reciprocal coordinates:
            Coordinates               Weight
  0.000000  0.000000  0.000000      1.000000
  0.111111  0.000000  0.000000      6.000000
  0.222222  0.000000  0.000000      6.000000
  0.333333  0.000000  0.000000      6.000000
  0.444444  0.000000  0.000000      6.000000
  0.111111  0.111111  0.000000     12.000000
  0.222222  0.111111  0.000000     24.000000
  0.333333  0.111111  0.000000     24.000000
  0.444444  0.111111  0.000000     24.000000
  0.222222  0.222222  0.000000     12.000000
  0.333333  0.222222  0.000000     24.000000
  0.444444  0.222222  0.000000     24.000000
  0.333333  0.333333  0.000000     12.000000
  0.444444  0.333333  0.000000     24.000000
  0.444444  0.444444  0.000000     12.000000
  0.111111  0.111111  0.111111      8.000000
  0.222222  0.111111  0.111111     24.000000
  0.333333  0.111111  0.111111     24.000000
  0.444444  0.111111  0.111111     24.000000
  0.222222  0.222222  0.111111     24.000000
  0.333333  0.222222  0.111111     48.000000
  0.444444  0.222222  0.111111     48.000000
  0.333333  0.333333  0.111111     24.000000
  0.444444  0.333333  0.111111     48.000000
  0.444444  0.444444  0.111111     24.000000
  0.222222  0.222222  0.222222      8.000000
  0.333333  0.222222  0.222222     24.000000
  0.444444  0.222222  0.222222     24.000000
  0.333333  0.333333  0.222222     24.000000
  0.444444  0.333333  0.222222     48.000000
  0.444444  0.444444  0.222222     24.000000
  0.333333  0.333333  0.333333      8.000000
  0.444444  0.333333  0.333333     24.000000
  0.444444  0.444444  0.333333     24.000000
  0.444444  0.444444  0.444444      8.000000
 
 Following cartesian coordinates:
            Coordinates               Weight
  0.000000  0.000000  0.000000      1.000000
  0.031094  0.000000  0.000000      6.000000
  0.062188  0.000000  0.000000      6.000000
  0.093282  0.000000  0.000000      6.000000
  0.124377  0.000000  0.000000      6.000000
  0.031094  0.031094  0.000000     12.000000
  0.062188  0.031094  0.000000     24.000000
  0.093282  0.031094  0.000000     24.000000
  0.124377  0.031094  0.000000     24.000000
  0.062188  0.062188  0.000000     12.000000
  0.093282  0.062188  0.000000     24.000000
  0.124377  0.062188  0.000000     24.000000
  0.093282  0.093282  0.000000     12.000000
  0.124377  0.093282  0.000000     24.000000
  0.124377  0.124377  0.000000     12.000000
  0.031094  0.031094  0.031094      8.000000
  0.062188  0.031094  0.031094     24.000000
  0.093282  0.031094  0.031094     24.000000
  0.124377  0.031094  0.031094     24.000000
  0.062188  0.062188  0.031094     24.000000
  0.093282  0.062188  0.031094     48.000000
  0.124377  0.062188  0.031094     48.000000
  0.093282  0.093282  0.031094     24.000000
  0.124377  0.093282  0.031094     48.000000
  0.124377  0.124377  0.031094     24.000000
  0.062188  0.062188  0.062188      8.000000
  0.093282  0.062188  0.062188     24.000000
  0.124377  0.062188  0.062188     24.000000
  0.093282  0.093282  0.062188     24.000000
  0.124377  0.093282  0.062188     48.000000
  0.124377  0.124377  0.062188     24.000000
  0.093282  0.093282  0.093282      8.000000
  0.124377  0.093282  0.093282     24.000000
  0.124377  0.124377  0.093282     24.000000
  0.124377  0.124377  0.124377      8.000000
 


--------------------------------------------------------------------------------------------------------




 Dimension of arrays:
   k-points           NKPTS =     35   k-points in BZ     NKDIM =     35   number of bands    NBANDS=     30
   number of dos      NEDOS =    301   number of ions     NIONS =      4
   non local maximal  LDIM  =      6   non local SUM 2l+1 LMDIM =     18
   total plane-waves  NPLWV =   4096
   max r-space proj   IRMAX =      1   max aug-charges    IRDMAX=   2799
   dimension x,y,z NGX =    16 NGY =   16 NGZ =   16
   dimension x,y,z NGXF=    32 NGYF=   32 NGZF=   32
   support grid    NGXF=    32 NGYF=   32 NGZF=   32
   ions per type =               4
   NGX,Y,Z   is equivalent  to a cutoff of   7.44,  7.44,  7.44 a.u.
   NGXF,Y,Z  is equivalent  to a cutoff of  14.89, 14.89, 14.89 a.u.

 SYSTEM =  unknown system                          
 POSCAR =  Cu                                      

 Startparameter for this run:
   NWRITE =      2    write-flag & timer
   PREC   = normal    normal or accurate (medium, high low for compatibility)
   ISTART =      1    job   : 0-new  1-cont  2-samecut
   ICHARG =      1    charge: 1-file 2-atom 10-const
   ISPIN  =      1    spin polarized calculation?
   LNONCOLLINEAR =      F non collinear calculations
   LSORBIT =      F    spin-orbit coupling
   INIWAV =      1    electr: 0-lowe 1-rand  2-diag
   LASPH  =      F    aspherical Exc in radial PAW
   METAGGA=      F    non-selfconsistent MetaGGA calc.

 Electronic Relaxation 1
   ENCUT  =  320.0 eV  23.52 Ry    4.85 a.u.   5.21  5.21  5.21*2*pi/ulx,y,z
   ENINI  =  320.0     initial cutoff
   ENAUG  =  587.0 eV  augmentation charge cutoff
   NELM   =     60;   NELMIN=  2; NELMDL=  0     # of ELM steps 
   EDIFF  = 0.1E-05   stopping-criterion for ELM
   LREAL  =      F    real-space projection
   NLSPLINE    = F    spline interpolate recip. space projectors
   LCOMPAT=      F    compatible to vasp.4.4
   GGA_COMPAT  = T    GGA compatible to vasp.4.4-vasp.4.6
   LMAXPAW     = -100 max onsite density
   LMAXMIX     =    2 max onsite mixed and CHGCAR
   VOSKOWN=      0    Vosko Wilk Nusair interpolation
   ROPT   =    0.00000
 Ionic relaxation
   EDIFFG = 0.1E-04   stopping-criterion for IOM
   NSW    =      0    number of steps for IOM
   NBLOCK =      1;   KBLOCK =      1    inner block; outer block 
   IBRION =     -1    ionic relax: 0-MD 1-quasi-New 2-CG
   NFREE  =      0    steps in history (QN), initial steepest desc. (CG)
   ISIF   =      2    stress and relaxation
   IWAVPR =      0    prediction:  0-non 1-charg 2-wave 3-comb
   ISYM   =      2    0-nonsym 1-usesym 2-fastsym
   LCORR  =      T    Harris-Foulkes like correction to forces

   POTIM  = 0.5000    time-step for ionic-motion
   TEIN   =    0.0    initial temperature
   TEBEG  =    0.0;   TEEND  =   0.0 temperature during run
   SMASS  =  -3.00    Nose mass-parameter (am)
   estimated Nose-frequenzy (Omega)   =  0.10E-29 period in steps = 0.13E+47 mass=  -0.292E-27a.u.
   SCALEE = 1.0000    scale energy and forces
   NPACO  =    256;   APACO  = 16.0  distance and # of slots for P.C.
   PSTRESS=    0.0 pullay stress

  Mass of Ions in am
   POMASS =  63.55
  Ionic Valenz
   ZVAL   =  11.00
  Atomic Wigner-Seitz radii
   RWIGS  =  -1.00
  virtual crystal weights 
   VCA    =   1.00
   NELECT =      44.0000    total number of electrons
   NUPDOWN=      -1.0000    fix difference up-down

 DOS related values:
   EMIN   =  10.00;   EMAX   =-10.00  energy-range for DOS
   EFERMI =   0.00
   ISMEAR =     1;   SIGMA  =   0.20  broadening in eV -4-tet -1-fermi 0-gaus

 Electronic relaxation 2 (details)
   IALGO  =     38    algorithm
   LDIAG  =      T    sub-space diagonalisation (order eigenvalues)
   LSUBROT=      F    optimize rotation matrix (better conditioning)
   TURBO    =      0    0=normal 1=particle mesh
   IRESTART =      0    0=no restart 2=restart with 2 vectors
   NREBOOT  =      0    no. of reboots
   NMIN     =      0    reboot dimension
   EREF     =   0.00    reference energy to select bands
   IMIX   =      4    mixing-type and parameters
     AMIX     =   0.40;   BMIX     =  1.00
     AMIX_MAG =   1.60;   BMIX_MAG =  1.00
     AMIN     =   0.10
     WC   =   100.;   INIMIX=   1;  MIXPRE=   1;  MAXMIX= -45

 Intra band minimization:
   WEIMIN = 0.0000     energy-eigenvalue tresh-hold
   EBREAK =  0.83E-08  absolut break condition
   DEPER  =   0.30     relativ break condition  

   TIME   =   0.40     timestep for ELM

  volume/ion in A,a.u.               =      11.41        76.98
  Fermi-wavevector in a.u.,A,eV,Ry     =   1.617385  3.056415 35.591951  2.615935
  Thomas-Fermi vector in A             =   2.711818
 
 Write flags
   LWAVE        =      T    write WAVECAR
   LDOWNSAMPLE  =      F    k-point downsampling of WAVECAR
   LCHARG       =      T    write CHGCAR
   LVTOT        =      F    write LOCPOT, total local potential
   LVHAR        =      F    write LOCPOT, Hartree potential only
   LELF         =      F    write electronic localiz. function (ELF)
   LORBIT       =      0    0 simple, 1 ext, 2 COOP (PROOUT), +10 PAW based schemes


 Dipole corrections
   LMONO  =      F    monopole corrections only (constant potential shift)
   LDIPOL =      F    correct potential (dipole corrections)
   IDIPOL =      0    1-x, 2-y, 3-z, 4-all directions 
   EPSILON=  1.0000000 bulk dielectric constant

 Exchange correlation treatment:
   GGA     =    PE    GGA type
   LEXCH   =     8    internal setting for exchange type
   VOSKOWN=      0    Vosko Wilk Nusair interpolation
   LHFCALC =     F    Hartree Fock is set to
   LHFONE  =     F    Hartree Fock one center treatment
   AEXX    =    0.0000 exact exchange contribution

 Linear response parameters
   LEPSILON=     F    determine dielectric tensor
   LRPA    =     F    only Hartree local field effects (RPA)
   LNABLA  =     F    use nabla operator in PAW spheres
   LVEL    =     F    velocity operator in full k-point grid
   LINTERFAST=   F  fast interpolation
   KINTER  =     0    interpolate to denser k-point grid
   CSHIFT  =0.1000    complex shift for real part using Kramers Kronig
   OMEGAMAX=  -1.0    maximum frequency
   DEG_THRESHOLD= 0.2000000E-02 threshold for treating states as degnerate
   RTIME   =   -0.100 relaxation time in fs
  (WPLASMAI=    0.000 imaginary part of plasma frequency in eV, 0.658/RTIME)
   DFIELD  = 0.0000000 0.0000000 0.0000000 field for delta impulse in time
 
 Orbital magnetization related:
   ORBITALMAG=     F  switch on orbital magnetization
   LCHIMAG   =     F  perturbation theory with respect to B field
   DQ        =  0.001000  dq finite difference perturbation B field
   LLRAUG    =     F  two centre corrections for induced B field



--------------------------------------------------------------------------------------------------------


 Static calculation
 charge density and potential will be updated during run
 non-spin polarized calculation
 Variant of blocked Davidson
 Davidson routine will perform the subspace rotation
 perform sub-space diagonalisation
    after iterative eigenvector-optimisation
 modified Broyden-mixing scheme, WC =      100.0
 initial mixing is a Kerker type mixing with AMIX =  0.4000 and BMIX =      1.0000
 Hartree-type preconditioning will be used
 using additional bands            8
 reciprocal scheme for non local part
 use partial core corrections
 calculate Harris-corrections to forces 
   (improved forces if not selfconsistent)
 use gradient corrections 
 use of overlap-Matrix (Vanderbilt PP)
 Methfessel and Paxton  Order N= 1 SIGMA  =   0.20


--------------------------------------------------------------------------------------------------------


  energy-cutoff  :      320.00
  volume of cell :       45.63
      direct lattice vectors                 reciprocal lattice vectors
     3.573377926  0.000000000  0.000000000     0.279847254  0.000000000  0.000000000
     0.000000000  3.573377926  0.000000000     0.000000000  0.279847254  0.000000000
     0.000000000  0.000000000  3.573377926     0.000000000  0.000000000  0.279847254

  length of vectors
     3.573377926  3.573377926  3.573377926     0.279847254  0.279847254  0.279847254


 
 old parameters found on file WAVECAR:
  energy-cutoff  :      320.00
  volume of cell :       45.63
      direct lattice vectors                 reciprocal lattice vectors
     3.573377926  0.000000000  0.000000000     0.279847254  0.000000000  0.000000000
     0.000000000  3.573377926  0.000000000     0.000000000  0.279847254  0.000000000
     0.000000000  0.000000000  3.573377926     0.000000000  0.000000000  0.279847254

  length of vectors

 
 k-points in units of 2pi/SCALE and weight: KPOINTS created by Atomic Simulation Env
   0.00000000  0.00000000  0.00000000       0.001
   0.03109414  0.00000000  0.00000000       0.008
   0.06218828  0.00000000  0.00000000       0.008
   0.09328242  0.00000000  0.00000000       0.008
   0.12437656  0.00000000  0.00000000       0.008
   0.03109414  0.03109414  0.00000000       0.016
   0.06218828  0.03109414  0.00000000       0.033
   0.09328242  0.03109414  0.00000000       0.033
   0.12437656  0.03109414  0.00000000       0.033
   0.06218828  0.06218828  0.00000000       0.016
   0.09328242  0.06218828  0.00000000       0.033
   0.12437656  0.06218828  0.00000000       0.033
   0.09328242  0.09328242  0.00000000       0.016
   0.12437656  0.09328242  0.00000000       0.033
   0.12437656  0.12437656  0.00000000       0.016
   0.03109414  0.03109414  0.03109414       0.011
   0.06218828  0.03109414  0.03109414       0.033
   0.09328242  0.03109414  0.03109414       0.033
   0.12437656  0.03109414  0.03109414       0.033
   0.06218828  0.06218828  0.03109414       0.033
   0.09328242  0.06218828  0.03109414       0.066
   0.12437656  0.06218828  0.03109414       0.066
   0.09328242  0.09328242  0.03109414       0.033
   0.12437656  0.09328242  0.03109414       0.066
   0.12437656  0.12437656  0.03109414       0.033
   0.06218828  0.06218828  0.06218828       0.011
   0.09328242  0.06218828  0.06218828       0.033
   0.12437656  0.06218828  0.06218828       0.033
   0.09328242  0.09328242  0.06218828       0.033
   0.12437656  0.09328242  0.06218828       0.066
   0.12437656  0.12437656  0.06218828       0.033
   0.09328242  0.09328242  0.09328242       0.011
   0.12437656  0.09328242  0.09328242       0.033
   0.12437656  0.12437656  0.09328242       0.033
   0.12437656  0.12437656  0.12437656       0.011
 
 k-points in reciprocal lattice and weights: KPOINTS created by Atomic Simulation Env
   0.00000000  0.00000000  0.00000000       0.001
   0.11111111  0.00000000  0.00000000       0.008
   0.22222222  0.00000000  0.00000000       0.008
   0.33333333  0.00000000  0.00000000       0.008
   0.44444444  0.00000000  0.00000000       0.008
   0.11111111  0.11111111  0.00000000       0.016
   0.22222222  0.11111111  0.00000000       0.033
   0.33333333  0.11111111  0.00000000       0.033
   0.44444444  0.11111111  0.00000000       0.033
   0.22222222  0.22222222  0.00000000       0.016
   0.33333333  0.22222222  0.00000000       0.033
   0.44444444  0.22222222  0.00000000       0.033
   0.33333333  0.33333333  0.00000000       0.016
   0.44444444  0.33333333  0.00000000       0.033
   0.44444444  0.44444444  0.00000000       0.016
   0.11111111  0.11111111  0.11111111       0.011
   0.22222222  0.11111111  0.11111111       0.033
   0.33333333  0.11111111  0.11111111       0.033
   0.44444444  0.11111111  0.11111111       0.033
   0.22222222  0.22222222  0.11111111       0.033
   0.33333333  0.22222222  0.11111111       0.066
   0.44444444  0.22222222  0.11111111       0.066
   0.33333333  0.33333333  0.11111111       0.033
   0.44444444  0.33333333  0.11111111       0.066
   0.44444444  0.44444444  0.11111111       0.033
   0.22222222  0.22222222  0.22222222       0.011
   0.33333333  0.22222222  0.22222222       0.033
   0.44444444  0.22222222  0.22222222       0.033
   0.33333333  0.33333333  0.22222222       0.033
   0.44444444  0.33333333  0.22222222       0.066
   0.44444444  0.44444444  0.22222222       0.033
   0.33333333  0.33333333  0.33333333       0.011
   0.44444444  0.33333333  0.33333333       0.033
   0.44444444  0.44444444  0.33333333       0.033
   0.44444444  0.44444444  0.44444444       0.011
 
 position of ions in fractional coordinates (direct lattice) 
   0.00000000  0.00000000  0.00000000
   0.50000000  0.50000000  0.00000000
   0.50000000  0.00000000  0.50000000
   0.00000000  0.50000000  0.50000000
 
 position of ions in cartesian coordinates  (Angst):
   0.00000000  0.00000000  0.00000000
   1.78668896  1.78668896  0.00000000
   1.78668896  0.00000000  1.78668896
   0.00000000  1.78668896  1.78668896
 


--------------------------------------------------------------------------------------------------------


 k-point   1 :   0.0000 0.0000 0.0000  plane waves:     619
 k-point   2 :   0.1111 0.0000 0.0000  plane waves:     603
 k-point   3 :   0.2222 0.0000 0.0000  plane waves:     586
 k-point   4 :   0.3333 0.0000 0.0000  plane waves:     606
 k-point   5 :   0.4444 0.0000 0.0000  plane waves:     598
 k-point   6 :   0.1111 0.1111 0.0000  plane waves:     601
 k-point   7 :   0.2222 0.1111 0.0000  plane waves:     585
 k-point   8 :   0.3333 0.1111 0.0000  plane waves:     596
 k-point   9 :   0.4444 0.1111 0.0000  plane waves:     595
 k-point  10 :   0.2222 0.2222 0.0000  plane waves:     601
 k-point  11 :   0.3333 0.2222 0.0000  plane waves:     590
 k-point  12 :   0.4444 0.2222 0.0000  plane waves:     600
 k-point  13 :   0.3333 0.3333 0.0000  plane waves:     582
 k-point  14 :   0.4444 0.3333 0.0000  plane waves:     587
 k-point  15 :   0.4444 0.4444 0.0000  plane waves:     578
 k-point  16 :   0.1111 0.1111 0.1111  plane waves:     591
 k-point  17 :   0.2222 0.1111 0.1111  plane waves:     589
 k-point  18 :   0.3333 0.1111 0.1111  plane waves:     597
 k-point  19 :   0.4444 0.1111 0.1111  plane waves:     593
 k-point  20 :   0.2222 0.2222 0.1111  plane waves:     589
 k-point  21 :   0.3333 0.2222 0.1111  plane waves:     585
 k-point  22 :   0.4444 0.2222 0.1111  plane waves:     591
 k-point  23 :   0.3333 0.3333 0.1111  plane waves:     593
 k-point  24 :   0.4444 0.3333 0.1111  plane waves:     594
 k-point  25 :   0.4444 0.4444 0.1111  plane waves:     591
 k-point  26 :   0.2222 0.2222 0.2222  plane waves:     591
 k-point  27 :   0.3333 0.2222 0.2222  plane waves:     593
 k-point  28 :   0.4444 0.2222 0.2222  plane waves:     589
 k-point  29 :   0.3333 0.3333 0.2222  plane waves:     596
 k-point  30 :   0.4444 0.3333 0.2222  plane waves:     595
 k-point  31 :   0.4444 0.4444 0.2222  plane waves:     597
 k-point  32 :   0.3333 0.3333 0.3333  plane waves:     591
 k-point  33 :   0.4444 0.3333 0.3333  plane waves:     603
 k-point  34 :   0.4444 0.4444 0.3333  plane waves:     595
 k-point  35 :   0.4444 0.4444 0.4444  plane waves:     606

 maximum number of plane-waves:       619
 maximum index in each direction: 
   IXMAX=    5   IYMAX=    5   IZMAX=    5
   IXMIN=   -5   IYMIN=   -5   IZMIN=   -5


 total amount of memory used by VASP MPI-rank0    46635. kBytes
=======================================================================

   base      :      30000. kBytes
   nonl-proj :       3159. kBytes
   grid      :       1806. kBytes
   one-center:         62. kBytes
   wavefun   :      11608. kBytes
 
     INWAV:  cpu time    0.0152: real time    0.0173
 Broyden mixing: mesh for mixing (old mesh)
   NGX = 11   NGY = 11   NGZ = 11
  (NGX  = 32   NGY  = 32   NGZ  = 32)
  gives a total of   1331 points

 initial charge density was supplied:
 number of electron      44.0000057 magnetization 
 keeping initial charge density in first step


--------------------------------------------------------------------------------------------------------


 Maximum index for augmentation-charges         2517 (set IRDMAX)


--------------------------------------------------------------------------------------------------------


 First call to EWALD:  gamma=   0.496
 Maximum number of real-space cells 3x 3x 3
 Maximum number of reciprocal cells 3x 3x 3

    FEWALD:  cpu time    0.0009: real time    0.0009


--------------------------------------- Iteration      1(   1)  ---------------------------------------


    POTLOK:  cpu time    0.0074: real time    0.0074
    SETDIJ:  cpu time    0.0037: real time    0.0037
     EDDAV:  cpu time    0.4536: real time    0.4729
       DOS:  cpu time    0.0026: real time    0.0026
    CHARGE:  cpu time    0.0312: real time    0.0312
    MIXING:  cpu time    0.0003: real time    0.0003
    --------------------------------------------
      LOOP:  cpu time    0.4988: real time    0.5180

 eigenvalue-minimisations  :  2318
 total energy-change (2. order) :-0.1489200E+02  (-0.1370505E-04)
 number of electron      44.0000058 magnetization 
 augmentation part       28.0024009 magnetization 

 Broyden mixing:
  rms(total) = 0.73062E-03    rms(broyden)= 0.66134E-03
  rms(prec ) = 0.13571E-02
  weight for this iteration     100.00

 Free energy of the ion-electron system (eV)
  ---------------------------------------------------
  alpha Z        PSCENC =       256.44566089
  Ewald energy   TEWEN  =     -4471.14514895
  -Hartree energ DENC   =     -1325.56727813
  -exchange      EXHF   =         0.00000000
  -V(xc)+E(xc)   XCENC  =       179.01597022
  PAW double counting   =      5317.23407159    -5749.67038630
  entropy T*S    EENTRO =         0.00096588
  eigenvalues    EBANDS =       215.01803770
  atomic energy  EATOM  =      5563.77610493
  Solvation  Ediel_sol  =         0.00000000
  ---------------------------------------------------
  free energy    TOTEN  =       -14.89200217 eV

  energy without entropy =      -14.89296805  energy(sigma->0) =      -14.89232413


--------------------------------------------------------------------------------------------------------




--------------------------------------- Iteration      1(   2)  ---------------------------------------


    POTLOK:  cpu time    0.0073: real time    0.0073
    SETDIJ:  cpu time    0.0039: real time    0.0039
     EDDAV:  cpu time    0.4142: real time    0.4142
       DOS:  cpu time    0.0024: real time    0.0024
    CHARGE:  cpu time    0.0310: real time    0.0310
    MIXING:  cpu time    0.0004: real time    0.0004
    --------------------------------------------
      LOOP:  cpu time    0.4591: real time    0.4591

 eigenvalue-minimisations  :  2282
 total energy-change (2. order) : 0.1916011E-02  (-0.1420628E-04)
 number of electron      44.0000057 magnetization 
 augmentation part       28.0044052 magnetization 

 Broyden mixing:
  rms(total) = 0.82478E-03    rms(broyden)= 0.78175E-03
  rms(prec ) = 0.17287E-02
  weight for this iteration     100.00

 eigenvalues of (default mixing * dielectric matrix)
  average eigenvalue GAMMA=   0.4576
  0.4576

 Free energy of the ion-electron system (eV)
  ---------------------------------------------------
  alpha Z        PSCENC =       256.44566089
  Ewald energy   TEWEN  =     -4471.14514895
  -Hartree energ DENC   =     -1325.53682631
  -exchange      EXHF   =         0.00000000
  -V(xc)+E(xc)   XCENC  =       179.01440113
  PAW double counting   =      5317.21050887    -5749.64193412
  entropy T*S    EENTRO =         0.00097336
  eigenvalues    EBANDS =       214.98617403
  atomic energy  EATOM  =      5563.77610493
  Solvation  Ediel_sol  =         0.00000000
  ---------------------------------------------------
  free energy    TOTEN  =       -14.89008616 eV

  energy without entropy =      -14.89105952  energy(sigma->0) =      -14.89041061


--------------------------------------------------------------------------------------------------------




--------------------------------------- Iteration      1(   3)  ---------------------------------------


    POTLOK:  cpu time    0.0071: real time    0.0071
    SETDIJ:  cpu time    0.0038: real time    0.0038
     EDDAV:  cpu time    0.3651: real time    0.3651
       DOS:  cpu time    0.0026: real time    0.0026
    CHARGE:  cpu time    0.0310: real time    0.0310
    MIXING:  cpu time    0.0004: real time    0.0004
    --------------------------------------------
      LOOP:  cpu time    0.4100: real time    0.4100

 eigenvalue-minimisations  :  1842
 total energy-change (2. order) : 0.1676929E-05  (-0.3834160E-06)
 number of electron      44.0000057 magnetization 
 augmentation part       28.0037505 magnetization 

 Broyden mixing:
  rms(total) = 0.34665E-03    rms(broyden)= 0.34433E-03
  rms(prec ) = 0.72884E-03
  weight for this iteration     100.00

 eigenvalues of (default mixing * dielectric matrix)
  average eigenvalue GAMMA=   0.6078
  0.6078  0.6078

 Free energy of the ion-electron system (eV)
  ---------------------------------------------------
  alpha Z        PSCENC =       256.44566089
  Ewald energy   TEWEN  =     -4471.14514895
  -Hartree energ DENC   =     -1325.55832776
  -exchange      EXHF   =         0.00000000
  -V(xc)+E(xc)   XCENC  =       179.01550210
  PAW double counting   =      5317.23272467    -5749.67103678
  entropy T*S    EENTRO =         0.00097412
  eigenvalues    EBANDS =       215.01346229
  atomic energy  EATOM  =      5563.77610493
  Solvation  Ediel_sol  =         0.00000000
  ---------------------------------------------------
  free energy    TOTEN  =       -14.89008448 eV

  energy without entropy =      -14.89105861  energy(sigma->0) =      -14.89040919


--------------------------------------------------------------------------------------------------------




--------------------------------------- Iteration      1(   4)  ---------------------------------------


    POTLOK:  cpu time    0.0069: real time    0.0069
    SETDIJ:  cpu time    0.0038: real time    0.0038
     EDDAV:  cpu time    0.2613: real time    0.2613
       DOS:  cpu time    0.0026: real time    0.0026
    --------------------------------------------
      LOOP:  cpu time    0.2746: real time    0.2746

 eigenvalue-minimisations  :  1086
 total energy-change (2. order) : 0.1069220E-06  (-0.3517434E-07)
 number of electron      44.0000057 magnetization 
 augmentation part       28.0037505 magnetization 

 Free energy of the ion-electron system (eV)
  ---------------------------------------------------
  alpha Z        PSCENC =       256.44566089
  Ewald energy   TEWEN  =     -4471.14514895
  -Hartree energ DENC   =     -1325.56403033
  -exchange      EXHF   =         0.00000000
  -V(xc)+E(xc)   XCENC  =       179.01579369
  PAW double counting   =      5317.23595941    -5749.67539076
  entropy T*S    EENTRO =         0.00097434
  eigenvalues    EBANDS =       215.01999241
  atomic energy  EATOM  =      5563.77610493
  Solvation  Ediel_sol  =         0.00000000
  ---------------------------------------------------
  free energy    TOTEN  =       -14.89008438 eV

  energy without entropy =      -14.89105871  energy(sigma->0) =      -14.89040916


--------------------------------------------------------------------------------------------------------




 average (electrostatic) potential at core
  the test charge radii are     0.9430
  (the norm of the test charge is              1.0000)
       1 -63.3373       2 -63.3373       3 -63.3373       4 -63.3373
 
 
 
 E-fermi :   8.0148     XC(G=0): -12.9298     alpha+bet :-13.8986

 Fermi energy:         8.0148127125

 k-point     1 :       0.0000    0.0000    0.0000
  band No.  band energies     occupation 
      1      -1.5977      2.00000
      2       2.9415      2.00000
      3       2.9415      2.00000
      4       2.9415      2.00000
      5       3.4219      2.00000
      6       3.4219      2.00000
      7       3.4219      2.00000
      8       4.8934      2.00000
      9       4.8934      2.00000
     10       4.8934      2.00000
     11       5.7658      2.00000
     12       5.7658      2.00000
     13       6.3451      2.00000
     14       6.3451      2.00000
     15       6.3451      2.00000
     16       6.5099      2.00000
     17       6.5099      2.00000
     18       6.5099      2.00000
     19       6.5099      2.00000
     20       6.5099      2.00000
     21       6.5099      2.00000
     22       9.4942     -0.00000
     23       9.4942     -0.00000
     24       9.4942     -0.00000
     25      15.3860      0.00000
     26      15.3860      0.00000
     27      15.3860      0.00000
     28      21.3746      0.00000
     29      21.3746      0.00000
     30      21.3746      0.00000

 k-point     2 :       0.1111    0.0000    0.0000
  band No.  band energies     occupation 
      1      -1.4439      2.00000
      2       2.9393      2.00000
      3       3.0140      2.00000
      4       3.0140      2.00000
      5       3.4638      2.00000
      6       3.4664      2.00000
      7       3.4664      2.00000
      8       4.8465      2.00000
      9       4.9309      2.00000
     10       4.9309      2.00000
     11       5.7234      2.00000
     12       5.7834      2.00000
     13       6.2392      2.00000
     14       6.2392      2.00000
     15       6.2900      2.00000
     16       6.2900      2.00000
     17       6.3272      2.00000
     18       6.4451      2.00000
     19       6.4451      2.00000
     20       6.5100      2.00000
     21       6.5100      2.00000
     22       8.6438     -0.00008
     23       9.9014     -0.00000
     24       9.9014     -0.00000
     25      15.4391      0.00000
     26      15.4391      0.00000
     27      16.5355      0.00000
     28      20.4422      0.00000
     29      20.4422      0.00000
     30      20.7712      0.00000

 k-point     3 :       0.2222    0.0000    0.0000
  band No.  band energies     occupation 
      1      -0.9888      2.00000
      2       2.8750      2.00000
      3       3.2130      2.00000
      4       3.2130      2.00000
      5       3.5851      2.00000
      6       3.6010      2.00000
      7       3.6010      2.00000
      8       4.7118      2.00000
      9       5.0411      2.00000
     10       5.0411      2.00000
     11       5.6044      2.00000
     12       5.6803      2.00000
     13       5.6803      2.00000
     14       5.8324      2.00000
     15       6.1348      2.00000
     16       6.1348      2.00000
     17       6.2663      2.00000
     18       6.2663      2.00000
     19       6.2759      2.00000
     20       6.5103      2.00000
     21       6.5103      2.00000
     22       7.1096      2.00000
     23      10.8688     -0.00000
     24      10.8688     -0.00000
     25      15.6076      0.00000
     26      15.6076      0.00000
     27      18.7102      0.00000
     28      18.7102      0.00000
     29      19.0107      0.00000
     30      19.5359      0.00000

 k-point     4 :       0.3333    0.0000    0.0000
  band No.  band energies     occupation 
      1      -0.2551      2.00000
      2       2.5422      2.00000
      3       3.4761      2.00000
      4       3.4761      2.00000
      5       3.7731      2.00000
      6       3.8286      2.00000
      7       3.8286      2.00000
      8       4.5083      2.00000
      9       5.0957      2.00000
     10       5.0957      2.00000
     11       5.2191      2.00000
     12       5.2191      2.00000
     13       5.4402      2.00000
     14       5.8758      2.00000
     15       5.9081      2.00000
     16       5.9203      2.00000
     17       5.9203      2.00000
     18       6.0121      2.00000
     19       6.0121      2.00000
     20       6.1975      2.00000
     21       6.5106      2.00000
     22       6.5106      2.00000
     23      12.1273     -0.00000
     24      12.1273     -0.00000
     25      15.9145      0.00000
     26      15.9145      0.00000
     27      16.9041      0.00000
     28      16.9041      0.00000
     29      18.3068      0.00000
     30      18.3068      0.00000

 k-point     5 :       0.4444    0.0000    0.0000
  band No.  band energies     occupation 
      1       0.7018      2.00000
      2       1.7400      2.00000
      3       3.6816      2.00000
      4       3.6816      2.00000
      5       4.0081      2.00000
      6       4.1538      2.00000
      7       4.1538      2.00000
      8       4.2634      2.00000
      9       4.5780      2.00000
     10       4.5780      2.00000
     11       5.2993      2.00000
     12       5.3375      2.00000
     13       5.4545      2.00000
     14       5.4545      2.00000
     15       5.7284      2.00000
     16       5.7284      2.00000
     17       5.7462      2.00000
     18       5.7462      2.00000
     19       6.0017      2.00000
     20       6.1022      2.00000
     21       6.5109      2.00000
     22       6.5109      2.00000
     23      13.5769      0.00000
     24      13.5769      0.00000
     25      15.1780      0.00000
     26      15.1780      0.00000
     27      16.3576      0.00000
     28      16.3576      0.00000
     29      17.3568      0.00000
     30      17.3568      0.00000

 k-point     6 :       0.1111    0.1111    0.0000
  band No.  band energies     occupation 
      1      -1.2913      2.00000
      2       3.0149      2.00000
      3       3.0149      2.00000
      4       3.0836      2.00000
      5       3.5068      2.00000
      6       3.5068      2.00000
      7       3.5081      2.00000
      8       4.8208      2.00000
      9       4.9483      2.00000
     10       4.9612      2.00000
     11       5.7123      2.00000
     12       5.7753      2.00000
     13       6.0589      2.00000
     14       6.1207      2.00000
     15       6.1207      2.00000
     16       6.2391      2.00000
     17       6.3036      2.00000
     18       6.3036      2.00000
     19       6.4449      2.00000
     20       6.4449      2.00000
     21       6.4683      2.00000
     22       9.0449     -0.00000
     23       9.0449     -0.00000
     24      10.2606     -0.00000
     25      15.4913      0.00000
     26      16.6174      0.00000
     27      16.6174      0.00000
     28      18.7399      0.00000
     29      20.6478      0.00000
     30      20.6478      0.00000

 k-point     7 :       0.2222    0.1111    0.0000
  band No.  band energies     occupation 
      1      -0.8400      2.00000
      2       2.9603      2.00000
      3       3.2229      2.00000
      4       3.2749      2.00000
      5       3.6237      2.00000
      6       3.6332      2.00000
      7       3.6367      2.00000
      8       4.7022      2.00000
      9       5.0476      2.00000
     10       5.0479      2.00000
     11       5.5601      2.00000
     12       5.5915      2.00000
     13       5.6152      2.00000
     14       5.8267      2.00000
     15       5.8424      2.00000
     16       6.0947      2.00000
     17       6.1448      2.00000
     18       6.2561      2.00000
     19       6.2656      2.00000
     20       6.4445      2.00000
     21       6.4462      2.00000
     22       7.5838      2.00938
     23       9.9301     -0.00000
     24      11.1599     -0.00000
     25      15.6362      0.00000
     26      16.8729      0.00000
     27      16.9128      0.00000
     28      18.9018      0.00000
     29      19.1126      0.00000
     30      19.7175      0.00000

 k-point     8 :       0.3333    0.1111    0.0000
  band No.  band energies     occupation 
      1      -0.1132      2.00000
      2       2.6422      2.00000
      3       3.5015      2.00000
      4       3.5327      2.00000
      5       3.8050      2.00000
      6       3.8372      2.00000
      7       3.8563      2.00000
      8       4.5100      2.00000
      9       4.9924      2.00000
     10       5.0594      2.00000
     11       5.1561      2.00000
     12       5.2220      2.00000
     13       5.4182      2.00000
     14       5.5026      2.00000
     15       5.8945      2.00000
     16       5.9212      2.00000
     17       5.9319      2.00000
     18       6.0112      2.00000
     19       6.1202      2.00000
     20       6.4415      2.00000
     21       6.4435      2.00000
     22       6.5683      2.00000
     23      11.0221     -0.00000
     24      12.3728     -0.00000
     25      15.0650      0.00000
     26      16.1134      0.00000
     27      17.0956      0.00000
     28      17.3138      0.00000
     29      18.4775      0.00000
     30      20.2579      0.00000

 k-point     9 :       0.4444    0.1111    0.0000
  band No.  band energies     occupation 
      1       0.8330      2.00000
      2       1.8562      2.00000
      3       3.7282      2.00000
      4       3.7418      2.00000
      5       4.0310      2.00000
      6       4.1164      2.00000
      7       4.1686      2.00000
      8       4.2759      2.00000
      9       4.5013      2.00000
     10       4.5731      2.00000
     11       5.1449      2.00000
     12       5.1502      2.00000
     13       5.4552      2.00000
     14       5.5750      2.00000
     15       5.7279      2.00000
     16       5.7364      2.00000
     17       5.7517      2.00000
     18       5.8377      2.00000
     19       6.0439      2.00000
     20       6.2023      2.00000
     21       6.4413      2.00000
     22       6.4423      2.00000
     23      12.2461     -0.00000
     24      13.5964      0.00000
     25      13.7942      0.00000
     26      15.3783      0.00000
     27      16.5885      0.00000
     28      17.3088      0.00000
     29      18.1541      0.00000
     30      19.0799      0.00000

 k-point    10 :       0.2222    0.2222    0.0000
  band No.  band energies     occupation 
      1      -0.4007      2.00000
      2       3.1966      2.00000
      3       3.1966      2.00000
      4       3.4433      2.00000
      5       3.7301      2.00000
      6       3.7401      2.00000
      7       3.7401      2.00000
      8       4.6402      2.00000
      9       5.0694      2.00000
     10       5.1044      2.00000
     11       5.2695      2.00000
     12       5.2695      2.00000
     13       5.3240      2.00000
     14       5.5824      2.00000
     15       5.8792      2.00000
     16       5.9787      2.00000
     17       6.1169      2.00000
     18       6.1169      2.00000
     19       6.2636      2.00000
     20       6.2636      2.00000
     21       6.3457      2.00000
     22       8.3976     -0.02092
     23       8.3976     -0.02092
     24      11.9404     -0.00000
     25      14.7725      0.00000
     26      16.0015      0.00000
     27      19.3966      0.00000
     28      19.3966      0.00000
     29      19.4568      0.00000
     30      19.4568      0.00000

 k-point    11 :       0.3333    0.2222    0.0000
  band No.  band energies     occupation 
      1       0.3040      2.00000
      2       2.9218      2.00000
      3       3.5230      2.00000
      4       3.6777      2.00000
      5       3.8744      2.00000
      6       3.8998      2.00000
      7       3.9356      2.00000
      8       4.4996      2.00000
      9       4.7570      2.00000
     10       4.9448      2.00000
     11       4.9665      2.00000
     12       5.0759      2.00000
     13       5.2486      2.00000
     14       5.5178      2.00000
     15       5.8143      2.00000
     16       5.9164      2.00000
     17       5.9953      2.00000
     18       6.0095      2.00000
     19       6.0297      2.00000
     20       6.2615      2.00000
     21       6.2897      2.00000
     22       7.2225      2.00000
     23       9.3306     -0.00000
     24      13.0578     -0.00000
     25      13.0857     -0.00000
     26      16.3325      0.00000
     27      17.6500      0.00000
     28      18.8325      0.00000
     29      20.0693      0.00000
     30      20.3260      0.00000

 k-point    12 :       0.4444    0.2222    0.0000
  band No.  band energies     occupation 
      1       1.2142      2.00000
      2       2.1869      2.00000
      3       3.8206      2.00000
      4       3.9093      2.00000
      5       4.0133      2.00000
      6       4.0970      2.00000
      7       4.2092      2.00000
      8       4.3068      2.00000
      9       4.3305      2.00000
     10       4.5536      2.00000
     11       4.8853      2.00000
     12       4.9880      2.00000
     13       5.4656      2.00000
     14       5.5829      2.00000
     15       5.6912      2.00000
     16       5.7299      2.00000
     17       5.7332      2.00000
     18       5.7834      2.00000
     19       6.2476      2.00000
     20       6.2612      2.00000
     21       6.2675      2.00000
     22       6.5791      2.00000
     23      10.3900     -0.00000
     24      11.6243     -0.00000
     25      14.4134      0.00000
     26      15.9552      0.00000
     27      16.9114      0.00000
     28      17.7451      0.00000
     29      20.8464      0.00000
     30      21.4528      0.00000

 k-point    13 :       0.3333    0.3333    0.0000
  band No.  band energies     occupation 
      1       0.9659      2.00000
      2       3.3133      2.00000
      3       3.3133      2.00000
      4       3.8148      2.00000
      5       3.9852      2.00000
      6       4.0554      2.00000
      7       4.0554      2.00000
      8       4.4453      2.00000
      9       4.6000      2.00000
     10       4.6000      2.00000
     11       4.7509      2.00000
     12       5.0076      2.00000
     13       5.3387      2.00000
     14       5.4512      2.00000
     15       5.6881      2.00000
     16       5.8113      2.00000
     17       5.8113      2.00000
     18       6.0114      2.00000
     19       6.0114      2.00000
     20       6.1501      2.00000
     21       6.2638      2.00000
     22       7.9656      1.40305
     23       7.9656      1.40305
     24      11.3606     -0.00000
     25      14.0822      0.00000
     26      16.7727      0.00000
     27      18.5195      0.00000
     28      18.5195      0.00000
     29      19.5794      0.00000
     30      19.5794      0.00000

 k-point    14 :       0.4444    0.3333    0.0000
  band No.  band energies     occupation 
      1       1.8032      2.00000
      2       2.6711      2.00000
      3       3.6817      2.00000
      4       3.8495      2.00000
      5       4.1457      2.00000
      6       4.1977      2.00000
      7       4.2646      2.00000
      8       4.3290      2.00000
      9       4.3375      2.00000
     10       4.5083      2.00000
     11       4.6874      2.00000
     12       4.8749      2.00000
     13       5.4701      2.00000
     14       5.5096      2.00000
     15       5.5896      2.00000
     16       5.6267      2.00000
     17       5.6383      2.00000
     18       5.7456      2.00000
     19       6.0250      2.00000
     20       6.0647      2.00000
     21       6.5943      2.00000
     22       7.0965      2.00000
     23       8.8485     -0.00000
     24       9.9554     -0.00000
     25      15.3645      0.00000
     26      16.8544      0.00000
     27      17.4436      0.00000
     28      18.3759      0.00000
     29      19.6519      0.00000
     30      20.5705      0.00000

 k-point    15 :       0.4444    0.4444    0.0000
  band No.  band energies     occupation 
      1       2.5104      2.00000
      2       3.1887      2.00000
      3       3.1887      2.00000
      4       3.5950      2.00000
      5       4.3163      2.00000
      6       4.3163      2.00000
      7       4.3441      2.00000
      8       4.3791      2.00000
      9       4.4273      2.00000
     10       4.5452      2.00000
     11       4.5452      2.00000
     12       4.7526      2.00000
     13       5.3986      2.00000
     14       5.4764      2.00000
     15       5.4841      2.00000
     16       5.4841      2.00000
     17       5.6157      2.00000
     18       5.7942      2.00000
     19       5.7942      2.00000
     20       5.8978      2.00000
     21       7.0631      2.00000
     22       7.7587      2.07002
     23       7.7587      2.07002
     24       8.6740     -0.00003
     25      16.5820      0.00000
     26      18.0205      0.00000
     27      18.0205      0.00000
     28      18.2187      0.00000
     29      19.2592      0.00000
     30      19.2592      0.00000

 k-point    16 :       0.1111    0.1111    0.1111
  band No.  band energies     occupation 
      1      -1.1400      2.00000
      2       3.0867      2.00000
      3       3.0867      2.00000
      4       3.0867      2.00000
      5       3.5472      2.00000
      6       3.5472      2.00000
      7       3.5472      2.00000
      8       4.7985      2.00000
      9       4.9746      2.00000
     10       4.9746      2.00000
     11       5.7380      2.00000
     12       5.7380      2.00000
     13       5.9592      2.00000
     14       5.9592      2.00000
     15       5.9592      2.00000
     16       6.1791      2.00000
     17       6.1791      2.00000
     18       6.1791      2.00000
     19       6.4535      2.00000
     20       6.4535      2.00000
     21       6.4535      2.00000
     22       9.3793     -0.00000
     23       9.3793     -0.00000
     24       9.3793     -0.00000
     25      16.6983      0.00000
     26      16.6983      0.00000
     27      16.6983      0.00000
     28      18.9340      0.00000
     29      18.9340      0.00000
     30      18.9340      0.00000

 k-point    17 :       0.2222    0.1111    0.1111
  band No.  band energies     occupation 
      1      -0.6931      2.00000
      2       3.0387      2.00000
      3       3.2838      2.00000
      4       3.2838      2.00000
      5       3.6611      2.00000
      6       3.6685      2.00000
      7       3.6685      2.00000
      8       4.6948      2.00000
      9       5.0482      2.00000
     10       5.0533      2.00000
     11       5.4851      2.00000
     12       5.4851      2.00000
     13       5.6430      2.00000
     14       5.6645      2.00000
     15       5.8111      2.00000
     16       6.0223      2.00000
     17       6.0522      2.00000
     18       6.0522      2.00000
     19       6.4008      2.00000
     20       6.4292      2.00000
     21       6.4292      2.00000
     22       7.8954      1.83752
     23      10.1797     -0.00000
     24      10.1797     -0.00000
     25      16.8272      0.00000
     26      16.8272      0.00000
     27      17.2073      0.00000
     28      17.2073      0.00000
     29      19.1618      0.00000
     30      19.5514      0.00000

 k-point    18 :       0.3333    0.1111    0.1111
  band No.  band energies     occupation 
      1       0.0258      2.00000
      2       2.7324      2.00000
      3       3.5526      2.00000
      4       3.5526      2.00000
      5       3.8380      2.00000
      6       3.8623      2.00000
      7       3.8623      2.00000
      8       4.5155      2.00000
      9       4.9735      2.00000
     10       4.9735      2.00000
     11       5.1332      2.00000
     12       5.1846      2.00000
     13       5.2620      2.00000
     14       5.5771      2.00000
     15       5.8096      2.00000
     16       5.8758      2.00000
     17       5.8758      2.00000
     18       5.9208      2.00000
     19       6.3082      2.00000
     20       6.4074      2.00000
     21       6.4074      2.00000
     22       6.7645      2.00000
     23      11.2109     -0.00000
     24      11.2109     -0.00000
     25      15.3398      0.00000
     26      15.3398      0.00000
     27      17.4808      0.00000
     28      17.4808      0.00000
     29      20.3349      0.00000
     30      20.4225      0.00000

 k-point    19 :       0.4444    0.1111    0.1111
  band No.  band energies     occupation 
      1       0.9591      2.00000
      2       1.9642      2.00000
      3       3.7878      2.00000
      4       3.7878      2.00000
      5       4.0574      2.00000
      6       4.0900      2.00000
      7       4.0900      2.00000
      8       4.2930      2.00000
      9       4.5475      2.00000
     10       4.5475      2.00000
     11       5.0544      2.00000
     12       5.0918      2.00000
     13       5.3642      2.00000
     14       5.5796      2.00000
     15       5.7206      2.00000
     16       5.7206      2.00000
     17       5.7306      2.00000
     18       6.0518      2.00000
     19       6.1109      2.00000
     20       6.1866      2.00000
     21       6.3980      2.00000
     22       6.3980      2.00000
     23      12.3444     -0.00000
     24      12.3444     -0.00000
     25      13.8975      0.00000
     26      13.8975      0.00000
     27      18.1841      0.00000
     28      18.1841      0.00000
     29      19.2369      0.00000
     30      19.2369      0.00000

 k-point    20 :       0.2222    0.2222    0.1111
  band No.  band energies     occupation 
      1      -0.2598      2.00000
      2       3.2532      2.00000
      3       3.2532      2.00000
      4       3.4470      2.00000
      5       3.7650      2.00000
      6       3.7738      2.00000
      7       3.7738      2.00000
      8       4.6435      2.00000
      9       5.0669      2.00000
     10       5.0860      2.00000
     11       5.2160      2.00000
     12       5.2160      2.00000
     13       5.2445      2.00000
     14       5.6455      2.00000
     15       5.8517      2.00000
     16       5.8889      2.00000
     17       5.9130      2.00000
     18       5.9130      2.00000
     19       6.3790      2.00000
     20       6.3790      2.00000
     21       6.3803      2.00000
     22       8.5915     -0.00035
     23       8.5915     -0.00035
     24      10.8275     -0.00000
     25      15.0673      0.00000
     26      17.3011      0.00000
     27      17.5804      0.00000
     28      17.5804      0.00000
     29      19.5727      0.00000
     30      19.5727      0.00000

 k-point    21 :       0.3333    0.2222    0.1111
  band No.  band energies     occupation 
      1       0.4332      2.00000
      2       2.9778      2.00000
      3       3.5427      2.00000
      4       3.6658      2.00000
      5       3.9066      2.00000
      6       3.9398      2.00000
      7       3.9512      2.00000
      8       4.5192      2.00000
      9       4.7803      2.00000
     10       4.9072      2.00000
     11       4.9386      2.00000
     12       5.0698      2.00000
     13       5.1734      2.00000
     14       5.6334      2.00000
     15       5.7061      2.00000
     16       5.7373      2.00000
     17       5.7856      2.00000
     18       6.0042      2.00000
     19       6.2755      2.00000
     20       6.3215      2.00000
     21       6.3224      2.00000
     22       7.3201      2.00001
     23       9.4632     -0.00000
     24      11.6511     -0.00000
     25      13.4625     -0.00000
     26      15.8836      0.00000
     27      17.8123      0.00000
     28      18.4247      0.00000
     29      20.1026      0.00000
     30      20.9377      0.00000

 k-point    22 :       0.4444    0.2222    0.1111
  band No.  band energies     occupation 
      1       1.3234      2.00000
      2       2.2668      2.00000
      3       3.8196      2.00000
      4       3.8984      2.00000
      5       3.9805      2.00000
      6       4.0755      2.00000
      7       4.1389      2.00000
      8       4.3409      2.00000
      9       4.5143      2.00000
     10       4.6149      2.00000
     11       4.8725      2.00000
     12       4.9780      2.00000
     13       5.3064      2.00000
     14       5.4897      2.00000
     15       5.6256      2.00000
     16       5.6502      2.00000
     17       5.7957      2.00000
     18       6.0762      2.00000
     19       6.2147      2.00000
     20       6.2872      2.00000
     21       6.2877      2.00000
     22       6.5654      2.00000
     23      10.4694     -0.00000
     24      11.5564     -0.00000
     25      13.2316     -0.00000
     26      14.4075      0.00000
     27      18.5814      0.00000
     28      19.5238      0.00000
     29      19.6039      0.00000
     30      20.8508      0.00000

 k-point    23 :       0.3333    0.3333    0.1111
  band No.  band energies     occupation 
      1       1.0754      2.00000
      2       3.2986      2.00000
      3       3.2986      2.00000
      4       3.7309      2.00000
      5       4.0449      2.00000
      6       4.1108      2.00000
      7       4.1108      2.00000
      8       4.4895      2.00000
      9       4.6492      2.00000
     10       4.6492      2.00000
     11       4.7883      2.00000
     12       5.0090      2.00000
     13       5.1919      2.00000
     14       5.5849      2.00000
     15       5.6122      2.00000
     16       5.6122      2.00000
     17       5.6298      2.00000
     18       6.1867      2.00000
     19       6.1867      2.00000
     20       6.2226      2.00000
     21       6.2297      2.00000
     22       8.0248      0.91595
     23       8.0248      0.91595
     24      11.2281     -0.00000
     25      13.0115     -0.00000
     26      16.7051      0.00000
     27      16.7051      0.00000
     28      18.3842      0.00000
     29      20.6300      0.00000
     30      21.6235      0.00000

 k-point    24 :       0.4444    0.3333    0.1111
  band No.  band energies     occupation 
      1       1.8778      2.00000
      2       2.6933      2.00000
      3       3.5724      2.00000
      4       3.7120      2.00000
      5       4.1973      2.00000
      6       4.2640      2.00000
      7       4.2791      2.00000
      8       4.4080      2.00000
      9       4.5191      2.00000
     10       4.6446      2.00000
     11       4.7130      2.00000
     12       4.8839      2.00000
     13       5.2627      2.00000
     14       5.4150      2.00000
     15       5.4846      2.00000
     16       5.5085      2.00000
     17       5.7476      2.00000
     18       5.9784      2.00000
     19       6.1318      2.00000
     20       6.1463      2.00000
     21       6.5558      2.00000
     22       7.0819      2.00000
     23       8.8836     -0.00000
     24       9.9595     -0.00000
     25      13.9524      0.00000
     26      15.2118      0.00000
     27      17.7818      0.00000
     28      19.0929      0.00000
     29      19.2176      0.00000
     30      20.3144      0.00000

 k-point    25 :       0.4444    0.4444    0.1111
  band No.  band energies     occupation 
      1       2.5246      2.00000
      2       3.1246      2.00000
      3       3.1246      2.00000
      4       3.4632      2.00000
      5       4.4204      2.00000
      6       4.4542      2.00000
      7       4.4542      2.00000
      8       4.4641      2.00000
      9       4.5959      2.00000
     10       4.5959      2.00000
     11       4.6101      2.00000
     12       4.7749      2.00000
     13       5.2466      2.00000
     14       5.3427      2.00000
     15       5.3427      2.00000
     16       5.3591      2.00000
     17       5.7826      2.00000
     18       5.9409      2.00000
     19       5.9409      2.00000
     20       6.0090      2.00000
     21       7.0244      2.00000
     22       7.7434      2.06643
     23       7.7434      2.06643
     24       8.6694     -0.00004
     25      14.9921      0.00000
     26      16.2709      0.00000
     27      16.2709      0.00000
     28      17.5659      0.00000
     29      20.1190      0.00000
     30      21.2824      0.00000

 k-point    26 :       0.2222    0.2222    0.2222
  band No.  band energies     occupation 
      1       0.1537      2.00000
      2       3.3935      2.00000
      3       3.3935      2.00000
      4       3.3935      2.00000
      5       3.8811      2.00000
      6       3.8811      2.00000
      7       3.8811      2.00000
      8       4.6332      2.00000
      9       5.0446      2.00000
     10       5.0446      2.00000
     11       5.0446      2.00000
     12       5.0663      2.00000
     13       5.0663      2.00000
     14       5.7006      2.00000
     15       5.7006      2.00000
     16       5.7006      2.00000
     17       5.7946      2.00000
     18       5.7946      2.00000
     19       6.4121      2.00000
     20       6.4121      2.00000
     21       6.4121      2.00000
     22       9.1031     -0.00000
     23       9.1031     -0.00000
     24       9.1031     -0.00000
     25      15.6250      0.00000
     26      15.6250      0.00000
     27      15.6250      0.00000
     28      19.9129      0.00000
     29      19.9129      0.00000
     30      19.9129      0.00000

 k-point    27 :       0.3333    0.2222    0.2222
  band No.  band energies     occupation 
      1       0.8080      2.00000
      2       3.1116      2.00000
      3       3.5507      2.00000
      4       3.5507      2.00000
      5       4.0449      2.00000
      6       4.0449      2.00000
      7       4.0703      2.00000
      8       4.5722      2.00000
      9       4.8295      2.00000
     10       4.8295      2.00000
     11       4.8573      2.00000
     12       5.0467      2.00000
     13       5.0887      2.00000
     14       5.4938      2.00000
     15       5.5657      2.00000
     16       5.5657      2.00000
     17       5.8116      2.00000
     18       5.9750      2.00000
     19       6.3630      2.00000
     20       6.3630      2.00000
     21       6.3854      2.00000
     22       7.6543      2.02866
     23       9.8025     -0.00000
     24       9.8025     -0.00000
     25      13.9731      0.00000
     26      13.9731      0.00000
     27      16.4523      0.00000
     28      20.3880      0.00000
     29      20.4927      0.00000
     30      20.4927      0.00000

 k-point    28 :       0.4444    0.2222    0.2222
  band No.  band energies     occupation 
      1       1.6315      2.00000
      2       2.4772      2.00000
      3       3.6640      2.00000
      4       3.6640      2.00000
      5       4.1484      2.00000
      6       4.1484      2.00000
      7       4.2778      2.00000
      8       4.4510      2.00000
      9       4.7264      2.00000
     10       4.7264      2.00000
     11       4.8343      2.00000
     12       4.9458      2.00000
     13       5.1697      2.00000
     14       5.3089      2.00000
     15       5.4718      2.00000
     16       5.4718      2.00000
     17       6.0674      2.00000
     18       6.1505      2.00000
     19       6.2942      2.00000
     20       6.3091      2.00000
     21       6.3091      2.00000
     22       6.6537      2.00000
     23      10.4972     -0.00000
     24      10.4972     -0.00000
     25      12.8014     -0.00000
     26      12.8014     -0.00000
     27      17.5331      0.00000
     28      18.8475      0.00000
     29      21.3006      0.00000
     30      21.3006      0.00000

 k-point    29 :       0.3333    0.3333    0.2222
  band No.  band energies     occupation 
      1       1.3852      2.00000
      2       3.2514      2.00000
      3       3.2514      2.00000
      4       3.5073      2.00000
      5       4.2175      2.00000
      6       4.2742      2.00000
      7       4.2742      2.00000
      8       4.6333      2.00000
      9       4.7786      2.00000
     10       4.7786      2.00000
     11       4.8735      2.00000
     12       5.0060      2.00000
     13       5.0528      2.00000
     14       5.3726      2.00000
     15       5.3726      2.00000
     16       5.3894      2.00000
     17       5.8616      2.00000
     18       6.1422      2.00000
     19       6.3295      2.00000
     20       6.3454      2.00000
     21       6.3454      2.00000
     22       8.2092     -0.04394
     23       8.2092     -0.04394
     24      10.0961     -0.00000
     25      12.6395     -0.00000
     26      14.7611      0.00000
     27      14.7611      0.00000
     28      18.6195      0.00000
     29      21.1043      0.00000
     30      23.4736      0.00000

 k-point    30 :       0.4444    0.3333    0.2222
  band No.  band energies     occupation 
      1       2.0761      2.00000
      2       2.7426      2.00000
      3       3.3585      2.00000
      4       3.4401      2.00000
      5       4.3562      2.00000
      6       4.3936      2.00000
      7       4.5172      2.00000
      8       4.6433      2.00000
      9       4.7932      2.00000
     10       4.8259      2.00000
     11       4.8966      2.00000
     12       4.9004      2.00000
     13       5.0894      2.00000
     14       5.2035      2.00000
     15       5.2913      2.00000
     16       5.2969      2.00000
     17       6.0123      2.00000
     18       6.2330      2.00000
     19       6.2709      2.00000
     20       6.2739      2.00000
     21       6.4445      2.00000
     22       7.0643      2.00000
     23       8.9347     -0.00000
     24       9.7348     -0.00000
     25      12.5189     -0.00000
     26      13.4053     -0.00000
     27      15.8057      0.00000
     28      17.0926      0.00000
     29      21.9661      0.00000
     30      23.0382      0.00000

 k-point    31 :       0.4444    0.4444    0.2222
  band No.  band energies     occupation 
      1       2.5586      2.00000
      2       2.9936      2.00000
      3       2.9936      2.00000
      4       3.2190      2.00000
      5       4.5501      2.00000
      6       4.6476      2.00000
      7       4.6476      2.00000
      8       4.8251      2.00000
      9       4.8427      2.00000
     10       4.8858      2.00000
     11       4.8858      2.00000
     12       4.9852      2.00000
     13       5.0612      2.00000
     14       5.1464      2.00000
     15       5.1464      2.00000
     16       5.1652      2.00000
     17       6.0103      2.00000
     18       6.1518      2.00000
     19       6.1518      2.00000
     20       6.1834      2.00000
     21       6.9021      2.00000
     22       7.6865      2.04230
     23       7.6865      2.04230
     24       8.5903     -0.00036
     25      13.2350     -0.00000
     26      14.3658      0.00000
     27      14.3658      0.00000
     28      15.5983      0.00000
     29      22.8717      0.00000
     30      24.0162      0.00000

 k-point    32 :       0.3333    0.3333    0.3333
  band No.  band energies     occupation 
      1       1.8366      2.00000
      2       3.1914      2.00000
      3       3.1914      2.00000
      4       3.1914      2.00000
      5       4.4645      2.00000
      6       4.4645      2.00000
      7       4.4645      2.00000
      8       4.8801      2.00000
      9       4.9712      2.00000
     10       4.9712      2.00000
     11       4.9712      2.00000
     12       4.9789      2.00000
     13       4.9789      2.00000
     14       5.2002      2.00000
     15       5.2002      2.00000
     16       5.2002      2.00000
     17       6.0772      2.00000
     18       6.0772      2.00000
     19       6.3819      2.00000
     20       6.3819      2.00000
     21       6.3819      2.00000
     22       8.5033     -0.00299
     23       8.5033     -0.00299
     24       8.5033     -0.00299
     25      13.2143     -0.00000
     26      13.2143     -0.00000
     27      13.2143     -0.00000
     28      16.8637      0.00000
     29      24.1165      0.00000
     30      24.1165      0.00000

 k-point    33 :       0.4444    0.3333    0.3333
  band No.  band energies     occupation 
      1       2.3367      2.00000
      2       2.7998      2.00000
      3       3.1515      2.00000
      4       3.1515      2.00000
      5       4.5662      2.00000
      6       4.5662      2.00000
      7       4.7177      2.00000
      8       4.8959      2.00000
      9       4.9802      2.00000
     10       5.0569      2.00000
     11       5.0612      2.00000
     12       5.0791      2.00000
     13       5.1078      2.00000
     14       5.1078      2.00000
     15       5.1696      2.00000
     16       5.1696      2.00000
     17       6.2490      2.00000
     18       6.3171      2.00000
     19       6.3387      2.00000
     20       6.3387      2.00000
     21       6.3550      2.00000
     22       7.1685      2.00000
     23       8.7820     -0.00000
     24       8.7820     -0.00000
     25      12.2799     -0.00000
     26      12.2799     -0.00000
     27      14.1543      0.00000
     28      15.3747      0.00000
     29      24.9059      0.00000
     30      24.9059      0.00000

 k-point    34 :       0.4444    0.4444    0.3333
  band No.  band energies     occupation 
      1       2.6067      2.00000
      2       2.8748      2.00000
      3       2.8748      2.00000
      4       2.9883      2.00000
      5       4.7011      2.00000
      6       4.7537      2.00000
      7       4.7537      2.00000
      8       4.8709      2.00000
      9       4.9310      2.00000
     10       4.9834      2.00000
     11       4.9834      2.00000
     12       5.0009      2.00000
     13       5.4228      2.00000
     14       5.4228      2.00000
     15       5.4414      2.00000
     16       5.4918      2.00000
     17       6.2015      2.00000
     18       6.3103      2.00000
     19       6.3103      2.00000
     20       6.3130      2.00000
     21       6.6814      2.00000
     22       7.5599      2.00597
     23       7.5599      2.00597
     24       8.2119     -0.04710
     25      12.1796     -0.00000
     26      12.9031     -0.00000
     27      12.9031     -0.00000
     28      13.9685      0.00000
     29      25.8055      0.00000
     30      26.8284      0.00000

 k-point    35 :       0.4444    0.4444    0.4444
  band No.  band energies     occupation 
      1       2.6834      2.00000
      2       2.8072      2.00000
      3       2.8072      2.00000
      4       2.8072      2.00000
      5       4.8183      2.00000
      6       4.8183      2.00000
      7       4.8183      2.00000
      8       4.8749      2.00000
      9       4.8749      2.00000
     10       4.8993      2.00000
     11       4.8993      2.00000
     12       4.8993      2.00000
     13       5.9177      2.00000
     14       5.9177      2.00000
     15       5.9177      2.00000
     16       6.3252      2.00000
     17       6.3252      2.00000
     18       6.3638      2.00000
     19       6.3638      2.00000
     20       6.3638      2.00000
     21       6.4043      2.00000
     22       7.3838      2.00008
     23       7.3838      2.00008
     24       7.3838      2.00008
     25      12.0849     -0.00000
     26      12.0849     -0.00000
     27      12.0849     -0.00000
     28      12.7585     -0.00000
     29      28.5086      0.00000
     30      28.5086      0.00000


--------------------------------------------------------------------------------------------------------


 soft charge-density along one line, spin component           1
         0         1         2         3         4         5         6         7         8         9
x    15.9963    0.0000   -0.0000    0.0000    0.6169    0.0000   -0.0000   -0.0000   -0.3705   -0.0000
x    -0.0000   -0.0000    0.0525   -0.0000    0.0000    0.0000    0.0000    0.0000
y    15.9963    0.0000   -0.0000    0.0000    0.6169    0.0000   -0.0000   -0.0000   -0.3705   -0.0000
y    -0.0000   -0.0000    0.0525   -0.0000    0.0000    0.0000    0.0000    0.0000
z    15.9963    0.0000   -0.0000    0.0000    0.6169    0.0000   -0.0000   -0.0000   -0.3705   -0.0000
z    -0.0000   -0.0000    0.0525   -0.0000    0.0000    0.0000    0.0000    0.0000
 total charge-density along one line
x    44.0000    0.0000   -0.0000    0.0000   18.4170   -0.0000   -0.0000   -0.0000    3.3052    0.0000
x    -0.0000   -0.0000   -0.0305    0.0000   -0.0000   -0.0000    0.0277    0.0000    0.0000   -0.0000
x    -0.0088    0.0000   -0.0000    0.0000    0.0039    0.0000    0.0000    0.0000   -0.0022   -0.0000
x    -0.0000    0.0000    0.0018    0.0000
y    44.0000    0.0000    0.0000   -0.0000   18.4170    0.0000    0.0000   -0.0000    3.3052   -0.0000
y     0.0000   -0.0000   -0.0305   -0.0000   -0.0000   -0.0000    0.0277   -0.0000   -0.0000   -0.0000
y    -0.0088    0.0000   -0.0000   -0.0000    0.0039   -0.0000   -0.0000   -0.0000   -0.0022    0.0000
y    -0.0000   -0.0000    0.0018    0.0000
z    44.0000    0.0000    0.0000    0.0000   18.4170    0.0000    0.0000    0.0000    3.3052    0.0000
z     0.0000    0.0000   -0.0305   -0.0000    0.0000    0.0000    0.0277    0.0000    0.0000    0.0000
z    -0.0088    0.0000    0.0000    0.0000    0.0039    0.0000    0.0000    0.0000   -0.0022    0.0000
z     0.0000    0.0000    0.0018    0.0000
 
 pseudopotential strength for first ion, spin component:           1
 -2.646   0.000  -0.000  -0.000  -0.000  -4.908  -0.000   0.000
  0.000  -2.646   0.000   0.000  -0.000  -0.000  -4.908  -0.000
 -0.000   0.000  -2.629   0.000   0.000   0.000  -0.000  -4.921
 -0.000   0.000   0.000  -2.646   0.000   0.000  -0.000  -0.000
 -0.000  -0.000   0.000   0.000  -2.629   0.000   0.000  -0.000
 -4.908  -0.000   0.000   0.000   0.000  10.418   0.000  -0.000
 -0.000  -4.908  -0.000  -0.000   0.000   0.000  10.418   0.000
  0.000  -0.000  -4.921  -0.000  -0.000  -0.000   0.000  10.427
  0.000  -0.000  -0.000  -4.908  -0.000  -0.000   0.000   0.000
  0.000   0.000  -0.000  -0.000  -4.921  -0.000   0.000   0.000
 -0.000   0.000   0.000  -0.000   0.000  -0.000   0.000  -0.000
 -0.000   0.000   0.000  -0.000   0.000  -0.000   0.000  -0.000
  0.000   0.000  -0.000  -0.000  -0.000  -0.000   0.000   0.000
 -0.000   0.000   0.000   0.000  -0.000  -0.000   0.000  -0.000
  0.000  -0.000  -0.000   0.000   0.000  -0.000  -0.000   0.000
  0.000   0.000  -0.000   0.000  -0.000   0.000   0.000   0.000
  0.000   0.000   0.000   0.000   0.000  -0.000   0.000  -0.000
  0.000   0.000  -0.000   0.000   0.000  -0.000  -0.000   0.000
 total augmentation occupancy for first ion, spin component:           1
  1.909  -0.000  -0.000  -0.000  -0.000  -0.012   0.000  -0.000  -0.000  -0.000  -0.000  -0.000   0.000   0.000   0.000   0.000
  0.000   1.909   0.000  -0.000  -0.000  -0.000  -0.012   0.000  -0.000   0.000  -0.000  -0.000  -0.000  -0.000   0.000   0.000
  0.000  -0.000   1.927   0.000   0.000   0.000   0.000  -0.032   0.000   0.000  -0.000   0.000  -0.000   0.000   0.000   0.000
 -0.000  -0.000   0.000   1.909  -0.000  -0.000  -0.000   0.000  -0.012  -0.000   0.000  -0.000   0.000  -0.000  -0.000   0.000
  0.000   0.000   0.000  -0.000   1.927  -0.000  -0.000   0.000  -0.000  -0.032   0.000   0.000  -0.000  -0.000  -0.000   0.000
 -0.012   0.000   0.000  -0.000  -0.000   0.019   0.000  -0.000  -0.000   0.000   0.000  -0.000  -0.000  -0.000   0.000   0.000
 -0.000  -0.012   0.000  -0.000  -0.000   0.000   0.019   0.000  -0.000   0.000  -0.000   0.000   0.000   0.000  -0.000   0.000
 -0.000  -0.000  -0.032  -0.000   0.000  -0.000   0.000   0.018   0.000   0.000  -0.000   0.000   0.000   0.000   0.000   0.000
 -0.000  -0.000   0.000  -0.012   0.000  -0.000  -0.000  -0.000   0.019   0.000   0.000  -0.000  -0.000   0.000   0.000  -0.000
 -0.000   0.000  -0.000  -0.000  -0.032   0.000   0.000   0.000   0.000   0.018  -0.000   0.000   0.000  -0.000   0.000  -0.000
  0.000   0.000  -0.000   0.000   0.000   0.000  -0.000  -0.000   0.000  -0.000   1.872  -0.187  -0.000   0.000   0.000   0.000
 -0.000   0.000   0.000   0.000   0.000  -0.000   0.000   0.000  -0.000  -0.000  -0.187   0.025   0.000   0.000  -0.000   0.000
  0.000  -0.000  -0.000   0.000   0.000  -0.000   0.000   0.000  -0.000  -0.000  -0.000   0.000   0.256  -0.000   0.000  -0.017
  0.000  -0.000  -0.000  -0.000   0.000  -0.000   0.000   0.000   0.000   0.000   0.000   0.000  -0.000   0.256   0.000   0.000
  0.000   0.000   0.000  -0.000  -0.000   0.000  -0.000   0.000   0.000  -0.000   0.000  -0.000   0.000   0.000   0.256  -0.000
  0.000   0.000  -0.000   0.000   0.000   0.000   0.000  -0.000  -0.000  -0.000   0.000   0.000  -0.017   0.000  -0.000   0.001
 -0.000  -0.000  -0.000   0.000  -0.000  -0.000  -0.000   0.000   0.000   0.000   0.000   0.000  -0.000  -0.017  -0.000  -0.000
 -0.000   0.000   0.000   0.000   0.000  -0.000   0.000  -0.000  -0.000  -0.000  -0.000   0.000   0.000   0.000  -0.017  -0.000


------------------------ aborting loop because EDIFF is reached ----------------------------------------


    CHARGE:  cpu time    0.0315: real time    0.0315
    FORLOC:  cpu time    0.0006: real time    0.0006
    FORNL :  cpu time    0.1400: real time    0.1400
    STRESS:  cpu time    0.1718: real time    0.1718
    FORCOR:  cpu time    0.0073: real time    0.0073
    FORHAR:  cpu time    0.0017: real time    0.0017
    MIXING:  cpu time    0.0004: real time    0.0004

  FORCE on cell =-STRESS in cart. coord.  units (eV):
  Direction    XX          YY          ZZ          XY          YZ          ZX
  --------------------------------------------------------------------------------------
  Alpha Z   256.44566   256.44566   256.44566
  Ewald   -1490.38237 -1490.38237 -1490.38237     0.00000     0.00000     0.00000
  Hartree   441.86376   441.86376   441.86376    -0.00000    -0.00000    -0.00000
  E(xc)    -257.66160  -257.66160  -257.66160     0.00000     0.00000    -0.00000
  Local     393.82884   393.82884   393.82884     0.00000     0.00000     0.00000
  n-local   -75.40225   -84.19835   -85.80835     0.41697     2.67374     1.13184
  augment   379.40847   379.40847   379.40847    -0.00000     0.00000     0.00000
  Kinetic   368.16954   359.62109   353.77856    -3.65633    -0.11193    -1.26832
  Fock        0.00000     0.00000     0.00000     0.00000     0.00000     0.00000
  -------------------------------------------------------------------------------------
  Total       2.22283     2.22283     2.22283     0.00000     0.00000    -0.00000
  in kB      78.05135    78.05135    78.05135     0.00000     0.00000    -0.00000
  external pressure =       78.05 kB  Pullay stress =        0.00 kB


 VOLUME and BASIS-vectors are now :
 -----------------------------------------------------------------------------
  energy-cutoff  :      320.00
  volume of cell :       45.63
      direct lattice vectors                 reciprocal lattice vectors
     3.573377926  0.000000000  0.000000000     0.279847254  0.000000000  0.000000000
     0.000000000  3.573377926  0.000000000     0.000000000  0.279847254  0.000000000
     0.000000000  0.000000000  3.573377926     0.000000000  0.000000000  0.279847254

  length of vectors
     3.573377926  3.573377926  3.573377926     0.279847254  0.279847254  0.279847254


 FORCES acting on ions
    electron-ion (+dipol)            ewald-force                    non-local-force                 convergence-correction
 -----------------------------------------------------------------------------------------------
   -.837E-13 0.185E-13 0.207E-13   -.336E-13 -.145E-13 0.149E-14   -.910E-24 0.103E-23 0.311E-24   -.716E-14 0.518E-14 -.107E-13
   0.187E-12 0.279E-12 0.205E-13   0.101E-13 -.114E-14 0.153E-14   -.675E-24 -.167E-23 -.515E-24   -.112E-13 -.397E-14 -.142E-13
   0.181E-12 0.191E-13 0.282E-12   0.525E-15 0.184E-14 -.142E-14   -.114E-23 0.969E-24 -.385E-23   0.182E-14 0.290E-13 -.251E-13
   -.823E-13 0.280E-12 0.282E-12   0.212E-13 0.152E-13 -.139E-14   -.127E-23 0.254E-23 -.125E-23   0.306E-14 0.142E-13 -.199E-13
 -----------------------------------------------------------------------------------------------
   0.202E-12 0.597E-12 0.605E-12   -.176E-14 0.142E-14 0.219E-15   -.399E-23 0.287E-23 -.530E-23   -.135E-13 0.445E-13 -.698E-13
 
 
 POSITION                                       TOTAL-FORCE (eV/Angst)
 -----------------------------------------------------------------------------------
      0.00000      0.00000      0.00000        -0.000000      0.000000      0.000000
      1.78669      1.78669      0.00000         0.000000      0.000000      0.000000
      1.78669      0.00000      1.78669        -0.000000     -0.000000     -0.000000
      0.00000      1.78669      1.78669         0.000000      0.000000     -0.000000
 -----------------------------------------------------------------------------------
    total drift:                                0.000000      0.000000      0.000000


--------------------------------------------------------------------------------------------------------



  FREE ENERGIE OF THE ION-ELECTRON SYSTEM (eV)
  ---------------------------------------------------
  free  energy   TOTEN  =       -14.89008438 eV

  energy  without entropy=      -14.89105871  energy(sigma->0) =      -14.89040916
 


--------------------------------------------------------------------------------------------------------


    POTLOK:  cpu time    0.0105: real time    0.0105


--------------------------------------------------------------------------------------------------------


 writing wavefunctions
     LOOP+:  cpu time    2.0433: real time    2.0626
    4ORBIT:  cpu time    0.0000: real time    0.0000

 total amount of memory used by VASP MPI-rank0    46635. kBytes
=======================================================================

   base      :      30000. kBytes
   nonl-proj :       3159. kBytes
   grid      :       1806. kBytes
   one-center:         62. kBytes
   wavefun   :      11608. kBytes
 
  
  
 General timing and accounting informations for this job:
 ========================================================
  
                  Total CPU time used (sec):        2.228
                            User time (sec):        2.195
                          System time (sec):        0.032
                         Elapsed time (sec):        2.238
  
                   Maximum memory used (kb):       52676.
                   Average memory used (kb):          N/A
  
                          Minor page faults:         6789
                          Major page faults:            0
                 Voluntary context switches:           30
