unknown system                          
   1.00000000000000     
     3.635000    0.000000    0.000000
     0.000000    3.635000    0.000000
     0.000000    0.000000    3.635000
   Cu
     4
Direct
  0.000000  0.000000  0.000000
  0.500000  0.500000  0.000000
  0.500000  0.000000  0.500000
  0.000000  0.500000  0.500000
 
   32   32   32
  844.71      796.09      665.63      491.60      317.38      175.97      83.000      36.551      20.891      15.096    
  11.390      9.2174      8.0203      7.4160      7.0281      6.6739      6.5072      6.6739      7.0281      7.4160    
  8.0203      9.2174      11.390      15.096      20.891      36.551      83.000      175.97      317.38      491.60    
  665.63      796.09      796.09      750.06      626.58      461.92      297.35      164.28      77.461      34.697    
  20.487      14.900      11.329      9.2480      8.1065      7.5323      7.1652      6.8310      6.6739      6.8310    
  7.1652      7.5323      8.1065      9.2480      11.329      14.900      20.487      34.697      77.461      164.28    
  297.35      461.92      626.58      750.06      665.63      626.58      521.86      382.52      244.04      133.51    
  63.215      30.126      19.437      14.360      11.162      9.3200      8.3102      7.7942      7.4613      7.1652    
  7.0281      7.1652      7.4613      7.7942      8.3102      9.3200      11.162      14.360      19.437      30.126    
  63.215      133.51      244.04      382.52      521.86      626.58      491.60      461.92      382.52      277.46    
  174.45      94.417      46.027      25.058      17.951      13.605      10.945      9.4221      8.5699      8.1059    
  7.7942      7.5323      7.4160      7.5323      7.7942      8.1059      8.5699      9.4221      10.945      13.605    
  17.951      25.058      46.027      94.417      174.45      277.46      382.52      461.92      317.38      297.35    
  244.04      174.45      108.02      58.965      31.816      21.205      16.231      12.808      10.772      9.6127    
  8.9504      8.5699      8.3102      8.1065      8.0203      8.1065      8.3102      8.5699      8.9504      9.6127    
  10.772      12.808      16.231      21.205      31.816      58.965      108.02      174.45      244.04      297.35    
  175.97      164.28      133.51      94.417      58.965      35.028      23.415      18.291      14.572      12.145    
  10.757      10.005      9.6127      9.4221      9.3200      9.2480      9.2174      9.2480      9.3200      9.4221    
  9.6127      10.005      10.757      12.145      14.572      18.291      23.415      35.028      58.965      94.417    
  133.51      164.28      83.000      77.461      63.215      46.027      31.816      23.415      19.063      15.672    
  13.231      11.762      11.026      10.757      10.772      10.945      11.162      11.329      11.390      11.329    
  11.162      10.945      10.772      10.757      11.026      11.762      13.231      15.672      19.063      23.415    
  31.816      46.027      63.215      77.461      36.551      34.697      30.126      25.058      21.205      18.291    
  15.672      13.655      12.378      11.792      11.762      12.145      12.808      13.605      14.360      14.900    
  15.096      14.900      14.360      13.605      12.808      12.145      11.762      11.792      12.378      13.655    
  15.672      18.291      21.205      25.058      30.126      34.697      20.891      20.487      19.437      17.951    
  16.231      14.572      13.231      12.378      12.088      12.378      13.231      14.572      16.231      17.951    
  19.437      20.487      20.891      20.487      19.437      17.951      16.231      14.572      13.231      12.378    
  12.088      12.378      13.231      14.572      16.231      17.951      19.437      20.487      15.096      14.900    
  14.360      13.605      12.808      12.145      11.762      11.792      12.378      13.655      15.672      18.291    
  21.205      25.058      30.126      34.697      36.551      34.697      30.126      25.058      21.205      18.291    
  15.672      13.655      12.378      11.792      11.762      12.145      12.808      13.605      14.360      14.900    
  11.390      11.329      11.162      10.945      10.772      10.757      11.026      11.762      13.231      15.672    
  19.063      23.415      31.816      46.027      63.215      77.461      83.000      77.461      63.215      46.027    
  31.816      23.415      19.063      15.672      13.231      11.762      11.026      10.757      10.772      10.945    
  11.162      11.329      9.2174      9.2480      9.3200      9.4221      9.6127      10.005      10.757      12.145    
  14.572      18.291      23.415      35.028      58.965      94.417      133.51      164.28      175.97      164.28    
  133.51      94.417      58.965      35.028      23.415      18.291      14.572      12.145      10.757      10.005    
  9.6127      9.4221      9.3200      9.2480      8.0203      8.1065      8.3102      8.5699      8.9504      9.6127    
  10.772      12.808      16.231      21.205      31.816      58.965      108.02      174.45      244.04      297.35    
  317.38      297.35      244.04      174.45      108.02      58.965      31.816      21.205      16.231      12.808    
  10.772      9.6127      8.9504      8.5699      8.3102      8.1065      7.4160      7.5323      7.7942      8.1059    
  8.5699      9.4221      10.945      13.605      17.951      25.058      46.027      94.417      174.45      277.46    
  382.52      461.92      491.60      461.92      382.52      277.46      174.45      94.417      46.027      25.058    
  17.951      13.605      10.945      9.4221      8.5699      8.1059      7.7942      7.5323      7.0281      7.1652    
  7.4613      7.7942      8.3102      9.3200      11.162      14.360      19.437      30.126      63.215      133.51    
  244.04      382.52      521.86      626.58      665.63      626.58      521.86      382.52      244.04      133.51    
  63.215      30.126      19.437      14.360      11.162      9.3200      8.3102      7.7942      7.4613      7.1652    
  6.6739      6.8310      7.1652      7.5323      8.1065      9.2480      11.329      14.900      20.487      34.697    
  77.461      164.28      297.35      461.92      626.58      750.06      796.09      750.06      626.58      461.92    
  297.35      164.28      77.461      34.697      20.487      14.900      11.329      9.2480      8.1065      7.5323    
  7.1652      6.8310      6.5072      6.6739      7.0281      7.4160      8.0203      9.2174      11.390      15.096    
  20.891      36.551      83.000      175.97      317.38      491.60      665.63      796.09      844.71      796.09    
  665.63      491.60      317.38      175.97      83.000      36.551      20.891      15.096      11.390      9.2174    
  8.0203      7.4160      7.0281      6.6739      6.6739      6.8310      7.1652      7.5323      8.1065      9.2480    
  11.329      14.900      20.487      34.697      77.461      164.28      297.35      461.92      626.58      750.06    
  796.09      750.06      626.58      461.92      297.35      164.28      77.461      34.697      20.487      14.900    
  11.329      9.2480      8.1065      7.5323      7.1652      6.8310      7.0281      7.1652      7.4613      7.7942    
  8.3102      9.3200      11.162      14.360      19.437      30.126      63.215      133.51      244.04      382.52    
  521.86      626.58      665.63      626.58      521.86      382.52      244.04      133.51      63.215      30.126    
  19.437      14.360      11.162      9.3200      8.3102      7.7942      7.4613      7.1652      7.4160      7.5323    
  7.7942      8.1059      8.5699      9.4221      10.945      13.605      17.951      25.058      46.027      94.417    
  174.45      277.46      382.52      461.92      491.60      461.92      382.52      277.46      174.45      94.417    
  46.027      25.058      17.951      13.605      10.945      9.4221      8.5699      8.1059      7.7942      7.5323    
  8.0203      8.1065      8.3102      8.5699      8.9504      9.6127      10.772      12.808      16.231      21.205    
  31.816      58.965      108.02      174.45      244.04      297.35      317.38      297.35      244.04      174.45    
  108.02      58.965      31.816      21.205      16.231      12.808      10.772      9.6127      8.9504      8.5699    
  8.3102      8.1065      9.2174      9.2480      9.3200      9.4221      9.6127      10.005      10.757      12.145    
  14.572      18.291      23.415      35.028      58.965      94.417      133.51      164.28      175.97      164.28    
  133.51      94.417      58.965      35.028      23.415      18.291      14.572      12.145      10.757      10.005    
  9.6127      9.4221      9.3200      9.2480      11.390      11.329      11.162      10.945      10.772      10.757    
  11.026      11.762      13.231      15.672      19.063      23.415      31.816      46.027      63.215      77.461    
  83.000      77.461      63.215      46.027      31.816      23.415      19.063      15.672      13.231      11.762    
  11.026      10.757      10.772      10.945      11.162      11.329      15.096      14.900      14.360      13.605    
  12.808      12.145      11.762      11.792      12.378      13.655      15.672      18.291      21.205      25.058    
  30.126      34.697      36.551      34.697      30.126      25.058      21.205      18.291      15.672      13.655    
  12.378      11.792      11.762      12.145      12.808      13.605      14.360      14.900      20.891      20.487    
  19.437      17.951      16.231      14.572      13.231      12.378      12.088      12.378      13.231      14.572    
  16.231      17.951      19.437      20.487      20.891      20.487      19.437      17.951      16.231      14.572    
  13.231      12.378      12.088      12.378      13.231      14.572      16.231      17.951      19.437      20.487    
  36.551      34.697      30.126      25.058      21.205      18.291      15.672      13.655      12.378      11.792    
  11.762      12.145      12.808      13.605      14.360      14.900      15.096      14.900      14.360      13.605    
  12.808      12.145      11.762      11.792      12.378      13.655      15.672      18.291      21.205      25.058    
  30.126      34.697      83.000      77.461      63.215      46.027      31.816      23.415      19.063      15.672    
  13.231      11.762      11.026      10.757      10.772      10.945      11.162      11.329      11.390      11.329    
  11.162      10.945      10.772      10.757      11.026      11.762      13.231      15.672      19.063      23.415    
  31.816      46.027      63.215      77.461      175.97      164.28      133.51      94.417      58.965      35.028    
  23.415      18.291      14.572      12.145      10.757      10.005      9.6127      9.4221      9.3200      9.2480    
  9.2174      9.2480      9.3200      9.4221      9.6127      10.005      10.757      12.145      14.572      18.291    
  23.415      35.028      58.965      94.417      133.51      164.28      317.38      297.35      244.04      174.45    
  108.02      58.965      31.816      21.205      16.231      12.808      10.772      9.6127      8.9504      8.5699    
  8.3102      8.1065      8.0203      8.1065      8.3102      8.5699      8.9504      9.6127      10.772      12.808    
  16.231      21.205      31.816      58.965      108.02      174.45      244.04      297.35      491.60      461.92    
  382.52      277.46      174.45      94.417      46.027      25.058      17.951      13.605      10.945      9.4221    
  8.5699      8.1059      7.7942      7.5323      7.4160      7.5323      7.7942      8.1059      8.5699      9.4221    
  10.945      13.605      17.951      25.058      46.027      94.417      174.45      277.46      382.52      461.92    
  665.63      626.58      521.86      382.52      244.04      133.51      63.215      30.126      19.437      14.360    
  11.162      9.3200      8.3102      7.7942      7.4613      7.1652      7.0281      7.1652      7.4613      7.7942    
  8.3102      9.3200      11.162      14.360      19.437      30.126      63.215      133.51      244.04      382.52    
  521.86      626.58      796.09      750.06      626.58      461.92      297.35      164.28      77.461      34.697    
  20.487      14.900      11.329      9.2480      8.1065      7.5323      7.1652      6.8310      6.6739      6.8310    
  7.1652      7.5323      8.1065      9.2480      11.329      14.900      20.487      34.697      77.461      164.28    
  297.35      461.92      626.58      750.06      796.09      750.06      626.58      461.92      297.35      164.28    
  77.461      34.697      20.487      14.900      11.329      9.2480      8.1065      7.5323      7.1652      6.8310    
  6.6739      6.8310      7.1652      7.5323      8.1065      9.2480      11.329      14.900      20.487      34.697    
  77.461      164.28      297.35      461.92      626.58      750.06      750.06      706.49      589.63      433.88    
  278.47      153.32      72.329      33.014      20.110      14.709      11.269      9.2762      8.1878      7.6421    
  7.2946      6.9792      6.8310      6.9792      7.2946      7.6421      8.1878      9.2762      11.269      14.709    
  20.110      33.014      72.329      153.32      278.47      433.88      589.63      706.49      626.58      589.63    
  490.57      358.87      228.28      124.54      59.163      28.874      19.107      14.182      11.106      9.3435    
  8.3810      7.8903      7.5745      7.2946      7.1652      7.2946      7.5745      7.8903      8.3810      9.3435    
  11.106      14.182      19.107      28.874      59.163      124.54      228.28      358.87      490.57      589.63    
  461.92      433.88      358.87      259.78      162.90      88.094      43.364      24.300      17.652      13.449    
  10.896      9.4405      8.6287      8.1869      7.8903      7.6421      7.5323      7.6421      7.8903      8.1869    
  8.6287      9.4405      10.896      13.449      17.652      24.300      43.364      88.094      162.90      259.78    
  358.87      433.88      297.35      278.47      228.28      162.90      100.77      55.260      30.418      20.782    
  15.976      12.679      10.729      9.6222      8.9916      8.6287      8.3810      8.1878      8.1065      8.1878    
  8.3810      8.6287      8.9916      9.6222      10.729      12.679      15.976      20.782      30.418      55.260    
  100.77      162.90      228.28      278.47      164.28      153.32      124.54      88.094      55.260      33.336    
  22.822      17.961      14.367      12.037      10.712      9.9955      9.6222      9.4405      9.3435      9.2762    
  9.2480      9.2762      9.3435      9.4405      9.6222      9.9955      10.712      12.037      14.367      17.961    
  22.822      33.336      55.260      88.094      124.54      153.32      77.461      72.329      59.163      43.364    
  30.418      22.822      18.706      15.421      13.073      11.667      10.965      10.712      10.729      10.896    
  11.106      11.269      11.329      11.269      11.106      10.896      10.729      10.712      10.965      11.667    
  13.073      15.421      18.706      22.822      30.418      43.364      59.163      72.329      34.697      33.014    
  28.874      24.300      20.782      17.961      15.421      13.476      12.252      11.693      11.667      12.037    
  12.679      13.449      14.182      14.709      14.900      14.709      14.182      13.449      12.679      12.037    
  11.667      11.693      12.252      13.476      15.421      17.961      20.782      24.300      28.874      33.014    
  20.487      20.110      19.107      17.652      15.976      14.367      13.073      12.252      11.973      12.252    
  13.073      14.367      15.976      17.652      19.107      20.110      20.487      20.110      19.107      17.652    
  15.976      14.367      13.073      12.252      11.973      12.252      13.073      14.367      15.976      17.652    
  19.107      20.110      14.900      14.709      14.182      13.449      12.679      12.037      11.667      11.693    
  12.252      13.476      15.421      17.961      20.782      24.300      28.874      33.014      34.697      33.014    
  28.874      24.300      20.782      17.961      15.421      13.476      12.252      11.693      11.667      12.037    
  12.679      13.449      14.182      14.709      11.329      11.269      11.106      10.896      10.729      10.712    
  10.965      11.667      13.073      15.421      18.706      22.822      30.418      43.364      59.163      72.329    
  77.461      72.329      59.163      43.364      30.418      22.822      18.706      15.421      13.073      11.667    
  10.965      10.712      10.729      10.896      11.106      11.269      9.2480      9.2762      9.3435      9.4405    
  9.6222      9.9955      10.712      12.037      14.367      17.961      22.822      33.336      55.260      88.094    
  124.54      153.32      164.28      153.32      124.54      88.094      55.260      33.336      22.822      17.961    
  14.367      12.037      10.712      9.9955      9.6222      9.4405      9.3435      9.2762      8.1065      8.1878    
  8.3810      8.6287      8.9916      9.6222      10.729      12.679      15.976      20.782      30.418      55.260    
  100.77      162.90      228.28      278.47      297.35      278.47      228.28      162.90      100.77      55.260    
  30.418      20.782      15.976      12.679      10.729      9.6222      8.9916      8.6287      8.3810      8.1878    
  7.5323      7.6421      7.8903      8.1869      8.6287      9.4405      10.896      13.449      17.652      24.300    
  43.364      88.094      162.90      259.78      358.87      433.88      461.92      433.88      358.87      259.78    
  162.90      88.094      43.364      24.300      17.652      13.449      10.896      9.4405      8.6287      8.1869    
  7.8903      7.6421      7.1652      7.2946      7.5745      7.8903      8.3810      9.3435      11.106      14.182    
  19.107      28.874      59.163      124.54      228.28      358.87      490.57      589.63      626.58      589.63    
  490.57      358.87      228.28      124.54      59.163      28.874      19.107      14.182      11.106      9.3435    
  8.3810      7.8903      7.5745      7.2946      6.8310      6.9792      7.2946      7.6421      8.1878      9.2762    
  11.269      14.709      20.110      33.014      72.329      153.32      278.47      433.88      589.63      706.49    
  750.06      706.49      589.63      433.88      278.47      153.32      72.329      33.014      20.110      14.709    
  11.269      9.2762      8.1878      7.6421      7.2946      6.9792      6.6739      6.8310      7.1652      7.5323    
  8.1065      9.2480      11.329      14.900      20.487      34.697      77.461      164.28      297.35      461.92    
  626.58      750.06      796.09      750.06      626.58      461.92      297.35      164.28      77.461      34.697    
  20.487      14.900      11.329      9.2480      8.1065      7.5323      7.1652      6.8310      6.8310      6.9792    
  7.2946      7.6421      8.1878      9.2762      11.269      14.709      20.110      33.014      72.329      153.32    
  278.47      433.88      589.63      706.49      750.06      706.49      589.63      433.88      278.47      153.32    
  72.329      33.014      20.110      14.709      11.269      9.2762      8.1878      7.6421      7.2946      6.9792    
  7.1652      7.2946      7.5745      7.8903      8.3810      9.3435      11.106      14.182      19.107      28.874    
  59.163      124.54      228.28      358.87      490.57      589.63      626.58      589.63      490.57      358.87    
  228.28      124.54      59.163      28.874      19.107      14.182      11.106      9.3435      8.3810      7.8903    
  7.5745      7.2946      7.5323      7.6421      7.8903      8.1869      8.6287      9.4405      10.896      13.449    
  17.652      24.300      43.364      88.094      162.90      259.78      358.87      433.88      461.92      433.88    
  358.87      259.78      162.90      88.094      43.364      24.300      17.652      13.449      10.896      9.4405    
  8.6287      8.1869      7.8903      7.6421      8.1065      8.1878      8.3810      8.6287      8.9916      9.6222    
  10.729      12.679      15.976      20.782      30.418      55.260      100.77      162.90      228.28      278.47    
  297.35      278.47      228.28      162.90      100.77      55.260      30.418      20.782      15.976      12.679    
  10.729      9.6222      8.9916      8.6287      8.3810      8.1878      9.2480      9.2762      9.3435      9.4405    
  9.6222      9.9955      10.712      12.037      14.367      17.961      22.822      33.336      55.260      88.094    
  124.54      153.32      164.28      153.32      124.54      88.094      55.260      33.336      22.822      17.961    
  14.367      12.037      10.712      9.9955      9.6222      9.4405      9.3435      9.2762      11.329      11.269    
  11.106      10.896      10.729      10.712      10.965      11.667      13.073      15.421      18.706      22.822    
  30.418      43.364      59.163      72.329      77.461      72.329      59.163      43.364      30.418      22.822    
  18.706      15.421      13.073      11.667      10.965      10.712      10.729      10.896      11.106      11.269    
  14.900      14.709      14.182      13.449      12.679      12.037      11.667      11.693      12.252      13.476    
  15.421      17.961      20.782      24.300      28.874      33.014      34.697      33.014      28.874      24.300    
  20.782      17.961      15.421      13.476      12.252      11.693      11.667      12.037      12.679      13.449    
  14.182      14.709      20.487      20.110      19.107      17.652      15.976      14.367      13.073      12.252    
  11.973      12.252      13.073      14.367      15.976      17.652      19.107      20.110      20.487      20.110    
  19.107      17.652      15.976      14.367      13.073      12.252      11.973      12.252      13.073      14.367    
  15.976      17.652      19.107      20.110      34.697      33.014      28.874      24.300      20.782      17.961    
  15.421      13.476      12.252      11.693      11.667      12.037      12.679      13.449      14.182      14.709    
  14.900      14.709      14.182      13.449      12.679      12.037      11.667      11.693      12.252      13.476    
  15.421      17.961      20.782      24.300      28.874      33.014      77.461      72.329      59.163      43.364    
  30.418      22.822      18.706      15.421      13.073      11.667      10.965      10.712      10.729      10.896    
  11.106      11.269      11.329      11.269      11.106      10.896      10.729      10.712      10.965      11.667    
  13.073      15.421      18.706      22.822      30.418      43.364      59.163      72.329      164.28      153.32    
  124.54      88.094      55.260      33.336      22.822      17.961      14.367      12.037      10.712      9.9955    
  9.6222      9.4405      9.3435      9.2762      9.2480      9.2762      9.3435      9.4405      9.6222      9.9955    
  10.712      12.037      14.367      17.961      22.822      33.336      55.260      88.094      124.54      153.32    
  297.35      278.47      228.28      162.90      100.77      55.260      30.418      20.782      15.976      12.679    
  10.729      9.6222      8.9916      8.6287      8.3810      8.1878      8.1065      8.1878      8.3810      8.6287    
  8.9916      9.6222      10.729      12.679      15.976      20.782      30.418      55.260      100.77      162.90    
  228.28      278.47      461.92      433.88      358.87      259.78      162.90      88.094      43.364      24.300    
  17.652      13.449      10.896      9.4405      8.6287      8.1869      7.8903      7.6421      7.5323      7.6421    
  7.8903      8.1869      8.6287      9.4405      10.896      13.449      17.652      24.300      43.364      88.094    
  162.90      259.78      358.87      433.88      626.58      589.63      490.57      358.87      228.28      124.54    
  59.163      28.874      19.107      14.182      11.106      9.3435      8.3810      7.8903      7.5745      7.2946    
  7.1652      7.2946      7.5745      7.8903      8.3810      9.3435      11.106      14.182      19.107      28.874    
  59.163      124.54      228.28      358.87      490.57      589.63      750.06      706.49      589.63      433.88    
  278.47      153.32      72.329      33.014      20.110      14.709      11.269      9.2762      8.1878      7.6421    
  7.2946      6.9792      6.8310      6.9792      7.2946      7.6421      8.1878      9.2762      11.269      14.709    
  20.110      33.014      72.329      153.32      278.47      433.88      589.63      706.49      665.63      626.58    
  521.86      382.52      244.04      133.51      63.215      30.126      19.437      14.360      11.162      9.3200    
  8.3102      7.7942      7.4613      7.1652      7.0281      7.1652      7.4613      7.7942      8.3102      9.3200    
  11.162      14.360      19.437      30.126      63.215      133.51      244.04      382.52      521.86      626.58    
  626.58      589.63      490.57      358.87      228.28      124.54      59.163      28.874      19.107      14.182    
  11.106      9.3435      8.3810      7.8903      7.5745      7.2946      7.1652      7.2946      7.5745      7.8903    
  8.3810      9.3435      11.106      14.182      19.107      28.874      59.163      124.54      228.28      358.87    
  490.57      589.63      521.86      490.57      406.78      295.75      186.50      101.09      48.849      25.814    
  18.176      13.698      10.956      9.4016      8.5522      8.1110      7.8234      7.5745      7.4613      7.5745    
  7.8234      8.1110      8.5522      9.4016      10.956      13.698      18.176      25.814      48.849      101.09    
  186.50      295.75      406.78      490.57      382.52      358.87      295.75      212.77      132.49      71.732    
  36.683      22.439      16.814      13.027      10.766      9.4892      8.7759      8.3802      8.1110      7.8903    
  7.7942      7.8903      8.1110      8.3802      8.7759      9.4892      10.766      13.027      16.814      22.439    
  36.683      71.732      132.49      212.77      295.75      358.87      244.04      228.28      186.50      132.49    
  81.918      45.841      26.978      19.644      15.269      12.329      10.615      9.6508      9.0997      8.7759    
  8.5522      8.3810      8.3102      8.3810      8.5522      8.7759      9.0997      9.6508      10.615      12.329    
  15.269      19.644      26.978      45.841      81.918      132.49      186.50      228.28      133.51      124.54    
  101.09      71.732      45.841      29.145      21.324      17.037      13.805      11.750      10.594      9.9749    
  9.6508      9.4892      9.4016      9.3435      9.3200      9.3435      9.4016      9.4892      9.6508      9.9749    
  10.594      11.750      13.805      17.037      21.324      29.145      45.841      71.732      101.09      124.54    
  63.215      59.163      48.849      36.683      26.978      21.324      17.703      14.726      12.642      11.413    
  10.807      10.594      10.615      10.766      10.956      11.106      11.162      11.106      10.956      10.766    
  10.615      10.594      10.807      11.413      12.642      14.726      17.703      21.324      26.978      36.683    
  48.849      59.163      30.126      28.874      25.814      22.439      19.644      17.037      14.726      12.989    
  11.911      11.427      11.413      11.750      12.329      13.027      13.698      14.182      14.360      14.182    
  13.698      13.027      12.329      11.750      11.413      11.427      11.911      12.989      14.726      17.037    
  19.644      22.439      25.814      28.874      19.437      19.107      18.176      16.814      15.269      13.805    
  12.642      11.911      11.663      11.911      12.642      13.805      15.269      16.814      18.176      19.107    
  19.437      19.107      18.176      16.814      15.269      13.805      12.642      11.911      11.663      11.911    
  12.642      13.805      15.269      16.814      18.176      19.107      14.360      14.182      13.698      13.027    
  12.329      11.750      11.413      11.427      11.911      12.989      14.726      17.037      19.644      22.439    
  25.814      28.874      30.126      28.874      25.814      22.439      19.644      17.037      14.726      12.989    
  11.911      11.427      11.413      11.750      12.329      13.027      13.698      14.182      11.162      11.106    
  10.956      10.766      10.615      10.594      10.807      11.413      12.642      14.726      17.703      21.324    
  26.978      36.683      48.849      59.163      63.215      59.163      48.849      36.683      26.978      21.324    
  17.703      14.726      12.642      11.413      10.807      10.594      10.615      10.766      10.956      11.106    
  9.3200      9.3435      9.4016      9.4892      9.6508      9.9749      10.594      11.750      13.805      17.037    
  21.324      29.145      45.841      71.732      101.09      124.54      133.51      124.54      101.09      71.732    
  45.841      29.145      21.324      17.037      13.805      11.750      10.594      9.9749      9.6508      9.4892    
  9.4016      9.3435      8.3102      8.3810      8.5522      8.7759      9.0997      9.6508      10.615      12.329    
  15.269      19.644      26.978      45.841      81.918      132.49      186.50      228.28      244.04      228.28    