unknown system                          
   1.00000000000000     
     3.635000    0.000000    0.000000
     0.000000    3.635000    0.000000
     0.000000    0.000000    3.635000
   Cu
     4
Direct
  0.000000  0.000000  0.000000
  0.500000  0.500000  0.000000
  0.500000  0.000000  0.500000
  0.000000  0.500000  0.500000
 
   32   32   32
 0.84470845092E+03 0.79608535492E+03 0.66562804413E+03 0.49159638632E+03 0.31737791505E+03
 0.17597238543E+03 0.83000239262E+02 0.36550744310E+02 0.20890530358E+02 0.15096057750E+02
 0.11390160264E+02 0.92174315956E+01 0.80203447222E+01 0.74160010109E+01 0.70280534105E+01
 0.66738718778E+01 0.65071619470E+01 0.66738718778E+01 0.70280534105E+01 0.74160010109E+01
 0.80203447222E+01 0.92174315956E+01 0.11390160264E+02 0.15096057750E+02 0.20890530358E+02
 0.36550744310E+02 0.83000239262E+02 0.17597238543E+03 0.31737791505E+03 0.49159638632E+03
 0.66562804413E+03 0.79608535492E+03 0.79608535492E+03 0.75005884390E+03 0.62657601229E+03
 0.46192336836E+03 0.29734975188E+03 0.16427814441E+03 0.77460578523E+02 0.34697333816E+02
 0.20486966409E+02 0.14900011065E+02 0.11328976849E+02 0.92479609269E+01 0.81064807674E+01
 0.75322609681E+01 0.71651969220E+01 0.68310291111E+01 0.66738718778E+01 0.68310291111E+01
 0.71651969220E+01 0.75322609681E+01 0.81064807674E+01 0.92479609269E+01 0.11328976849E+02
 0.14900011065E+02 0.20486966409E+02 0.34697333816E+02 0.77460578523E+02 0.16427814441E+03
 0.29734975188E+03 0.46192336836E+03 0.62657601229E+03 0.75005884390E+03 0.66562804413E+03
 0.62657601229E+03 0.52185944177E+03 0.38251685710E+03 0.24403967484E+03 0.13350973119E+03
 0.63215108960E+02 0.30126354860E+02 0.19437153380E+02 0.14359702166E+02 0.11161922282E+02
 0.93199577396E+01 0.83101747786E+01 0.77941844277E+01 0.74612713549E+01 0.71651969220E+01
 0.70280534105E+01 0.71651969220E+01 0.74612713549E+01 0.77941844277E+01 0.83101747786E+01
 0.93199577396E+01 0.11161922282E+02 0.14359702166E+02 0.19437153380E+02 0.30126354860E+02
 0.63215108960E+02 0.13350973119E+03 0.24403967484E+03 0.38251685710E+03 0.52185944177E+03
 0.62657601229E+03 0.49159638632E+03 0.46192336836E+03 0.38251685710E+03 0.27746483802E+03
 0.17444754965E+03 0.94416588333E+02 0.46027472083E+02 0.25057982391E+02 0.17951001389E+02
 0.13604616785E+02 0.10944837074E+02 0.94221496718E+01 0.85698767361E+01 0.81059161713E+01
 0.77941844277E+01 0.75322609681E+01 0.74160010109E+01 0.75322609681E+01 0.77941844277E+01
 0.81059161713E+01 0.85698767361E+01 0.94221496718E+01 0.10944837074E+02 0.13604616785E+02
 0.17951001389E+02 0.25057982391E+02 0.46027472083E+02 0.94416588333E+02 0.17444754965E+03
 0.27746483802E+03 0.38251685710E+03 0.46192336836E+03 0.31737791505E+03 0.29734975188E+03
 0.24403967484E+03 0.17444754965E+03 0.10802385713E+03 0.58964511155E+02 0.31815689837E+02
 0.21204776068E+02 0.16231358733E+02 0.12808446066E+02 0.10772440387E+02 0.96127141511E+01
 0.89503763010E+01 0.85698767361E+01 0.83101747786E+01 0.81064807674E+01 0.80203447222E+01
 0.81064807674E+01 0.83101747786E+01 0.85698767361E+01 0.89503763010E+01 0.96127141511E+01
 0.10772440387E+02 0.12808446066E+02 0.16231358733E+02 0.21204776068E+02 0.31815689837E+02
 0.58964511155E+02 0.10802385713E+03 0.17444754965E+03 0.24403967484E+03 0.29734975188E+03
 0.17597238543E+03 0.16427814441E+03 0.13350973119E+03 0.94416588333E+02 0.58964511155E+02
 0.35028062372E+02 0.23414899429E+02 0.18290914993E+02 0.14571811256E+02 0.12144701196E+02
 0.10757173223E+02 0.10005226474E+02 0.96127141511E+01 0.94221496718E+01 0.93199577396E+01
 0.92479609269E+01 0.92174315956E+01 0.92479609269E+01 0.93199577396E+01 0.94221496718E+01
 0.96127141511E+01 0.10005226474E+02 0.10757173223E+02 0.12144701196E+02 0.14571811256E+02
 0.18290914993E+02 0.23414899429E+02 0.35028062372E+02 0.58964511155E+02 0.94416588333E+02
 0.13350973119E+03 0.16427814441E+03 0.83000239262E+02 0.77460578523E+02 0.63215108960E+02
 0.46027472083E+02 0.31815689837E+02 0.23414899429E+02 0.19062984516E+02 0.15672393067E+02
 0.13231371222E+02 0.11761694255E+02 0.11025526708E+02 0.10757173223E+02 0.10772440387E+02
 0.10944837074E+02 0.11161922282E+02 0.11328976849E+02 0.11390160264E+02 0.11328976849E+02
 0.11161922282E+02 0.10944837074E+02 0.10772440387E+02 0.10757173223E+02 0.11025526708E+02
 0.11761694255E+02 0.13231371222E+02 0.15672393067E+02 0.19062984516E+02 0.23414899429E+02
 0.31815689837E+02 0.46027472083E+02 0.63215108960E+02 0.77460578523E+02 0.36550744310E+02
 0.34697333816E+02 0.30126354860E+02 0.25057982391E+02 0.21204776068E+02 0.18290914993E+02
 0.15672393067E+02 0.13654826813E+02 0.12378109405E+02 0.11792387225E+02 0.11761694255E+02
 0.12144701196E+02 0.12808446066E+02 0.13604616785E+02 0.14359702166E+02 0.14900011065E+02
 0.15096057750E+02 0.14900011065E+02 0.14359702166E+02 0.13604616785E+02 0.12808446066E+02
 0.12144701196E+02 0.11761694255E+02 0.11792387225E+02 0.12378109405E+02 0.13654826813E+02
 0.15672393067E+02 0.18290914993E+02 0.21204776068E+02 0.25057982391E+02 0.30126354860E+02
 0.34697333816E+02 0.20890530358E+02 0.20486966409E+02 0.19437153380E+02 0.17951001389E+02
 0.16231358733E+02 0.14571811256E+02 0.13231371222E+02 0.12378109405E+02 0.12087607288E+02
 0.12378109405E+02 0.13231371222E+02 0.14571811256E+02 0.16231358733E+02 0.17951001389E+02
 0.19437153380E+02 0.20486966409E+02 0.20890530358E+02 0.20486966409E+02 0.19437153380E+02
 0.17951001389E+02 0.16231358733E+02 0.14571811256E+02 0.13231371222E+02 0.12378109405E+02
 0.12087607288E+02 0.12378109405E+02 0.13231371222E+02 0.14571811256E+02 0.16231358733E+02
 0.17951001389E+02 0.19437153380E+02 0.20486966409E+02 0.15096057750E+02 0.14900011065E+02
 0.14359702166E+02 0.13604616785E+02 0.12808446066E+02 0.12144701196E+02 0.11761694255E+02
 0.11792387225E+02 0.12378109405E+02 0.13654826813E+02 0.15672393067E+02 0.18290914993E+02
 0.21204776068E+02 0.25057982391E+02 0.30126354860E+02 0.34697333816E+02 0.36550744310E+02
 0.34697333816E+02 0.30126354860E+02 0.25057982391E+02 0.21204776068E+02 0.18290914993E+02
 0.15672393067E+02 0.13654826813E+02 0.12378109405E+02 0.11792387225E+02 0.11761694255E+02
 0.12144701196E+02 0.12808446066E+02 0.13604616785E+02 0.14359702166E+02 0.14900011065E+02
 0.11390160264E+02 0.11328976849E+02 0.11161922282E+02 0.10944837074E+02 0.10772440387E+02
 0.10757173223E+02 0.11025526708E+02 0.11761694255E+02 0.13231371222E+02 0.15672393067E+02
 0.19062984516E+02 0.23414899429E+02 0.31815689837E+02 0.46027472083E+02 0.63215108960E+02
 0.77460578523E+02 0.83000239262E+02 0.77460578523E+02 0.63215108960E+02 0.46027472083E+02
 0.31815689837E+02 0.23414899429E+02 0.19062984516E+02 0.15672393067E+02 0.13231371222E+02
 0.11761694255E+02 0.11025526708E+02 0.10757173223E+02 0.10772440387E+02 0.10944837074E+02
 0.11161922282E+02 0.11328976849E+02 0.92174315956E+01 0.92479609269E+01 0.93199577396E+01
 0.94221496718E+01 0.96127141511E+01 0.10005226474E+02 0.10757173223E+02 0.12144701196E+02
 0.14571811256E+02 0.18290914993E+02 0.23414899429E+02 0.35028062372E+02 0.58964511155E+02
 0.94416588333E+02 0.13350973119E+03 0.16427814441E+03 0.17597238543E+03 0.16427814441E+03
 0.13350973119E+03 0.94416588333E+02 0.58964511155E+02 0.35028062372E+02 0.23414899429E+02
 0.18290914993E+02 0.14571811256E+02 0.12144701196E+02 0.10757173223E+02 0.10005226474E+02
 0.96127141511E+01 0.94221496718E+01 0.93199577396E+01 0.92479609269E+01 0.80203447222E+01
 0.81064807674E+01 0.83101747786E+01 0.85698767361E+01 0.89503763010E+01 0.96127141511E+01
 0.10772440387E+02 0.12808446066E+02 0.16231358733E+02 0.21204776068E+02 0.31815689837E+02
 0.58964511155E+02 0.10802385713E+03 0.17444754965E+03 0.24403967484E+03 0.29734975188E+03
 0.31737791505E+03 0.29734975188E+03 0.24403967484E+03 0.17444754965E+03 0.10802385713E+03
 0.58964511155E+02 0.31815689837E+02 0.21204776068E+02 0.16231358733E+02 0.12808446066E+02
 0.10772440387E+02 0.96127141511E+01 0.89503763010E+01 0.85698767361E+01 0.83101747786E+01
 0.81064807674E+01 0.74160010109E+01 0.75322609681E+01 0.77941844277E+01 0.81059161713E+01
 0.85698767361E+01 0.94221496718E+01 0.10944837074E+02 0.13604616785E+02 0.17951001389E+02
 0.25057982391E+02 0.46027472083E+02 0.94416588333E+02 0.17444754965E+03 0.27746483802E+03
 0.38251685710E+03 0.46192336836E+03 0.49159638632E+03 0.46192336836E+03 0.38251685710E+03
 0.27746483802E+03 0.17444754965E+03 0.94416588333E+02 0.46027472083E+02 0.25057982391E+02
 0.17951001389E+02 0.13604616785E+02 0.10944837074E+02 0.94221496718E+01 0.85698767361E+01
 0.81059161713E+01 0.77941844277E+01 0.75322609681E+01 0.70280534105E+01 0.71651969220E+01
 0.74612713549E+01 0.77941844277E+01 0.83101747786E+01 0.93199577396E+01 0.11161922282E+02
 0.14359702166E+02 0.19437153380E+02 0.30126354860E+02 0.63215108960E+02 0.13350973119E+03
 0.24403967484E+03 0.38251685710E+03 0.52185944177E+03 0.62657601229E+03 0.66562804413E+03
 0.62657601229E+03 0.52185944177E+03 0.38251685710E+03 0.24403967484E+03 0.13350973119E+03
 0.63215108960E+02 0.30126354860E+02 0.19437153380E+02 0.14359702166E+02 0.11161922282E+02
 0.93199577396E+01 0.83101747786E+01 0.77941844277E+01 0.74612713549E+01 0.71651969220E+01
 0.66738718778E+01 0.68310291111E+01 0.71651969220E+01 0.75322609681E+01 0.81064807674E+01
 0.92479609269E+01 0.11328976849E+02 0.14900011065E+02 0.20486966409E+02 0.34697333816E+02
 0.77460578523E+02 0.16427814441E+03 0.29734975188E+03 0.46192336836E+03 0.62657601229E+03
 0.75005884390E+03 0.79608535492E+03 0.75005884390E+03 0.62657601229E+03 0.46192336836E+03
 0.29734975188E+03 0.16427814441E+03 0.77460578523E+02 0.34697333816E+02 0.20486966409E+02
 0.14900011065E+02 0.11328976849E+02 0.92479609269E+01 0.81064807674E+01 0.75322609681E+01
 0.71651969220E+01 0.68310291111E+01 0.65071619470E+01 0.66738718778E+01 0.70280534105E+01
 0.74160010109E+01 0.80203447222E+01 0.92174315956E+01 0.11390160264E+02 0.15096057750E+02
 0.20890530358E+02 0.36550744310E+02 0.83000239262E+02 0.17597238543E+03 0.31737791505E+03
 0.49159638632E+03 0.66562804413E+03 0.79608535492E+03 0.84470845092E+03 0.79608535492E+03
 0.66562804413E+03 0.49159638632E+03 0.31737791505E+03 0.17597238543E+03 0.83000239262E+02
 0.36550744310E+02 0.20890530358E+02 0.15096057750E+02 0.11390160264E+02 0.92174315956E+01
 0.80203447222E+01 0.74160010109E+01 0.70280534105E+01 0.66738718778E+01 0.66738718778E+01
 0.68310291111E+01 0.71651969220E+01 0.75322609681E+01 0.81064807674E+01 0.92479609269E+01
 0.11328976849E+02 0.14900011065E+02 0.20486966409E+02 0.34697333816E+02 0.77460578523E+02
 0.16427814441E+03 0.29734975188E+03 0.46192336836E+03 0.62657601229E+03 0.75005884390E+03
 0.79608535492E+03 0.75005884390E+03 0.62657601229E+03 0.46192336836E+03 0.29734975188E+03
 0.16427814441E+03 0.77460578523E+02 0.34697333816E+02 0.20486966409E+02 0.14900011065E+02
 0.11328976849E+02 0.92479609269E+01 0.81064807674E+01 0.75322609681E+01 0.71651969220E+01
 0.68310291111E+01 0.70280534105E+01 0.71651969220E+01 0.74612713549E+01 0.77941844277E+01
 0.83101747786E+01 0.93199577396E+01 0.11161922282E+02 0.14359702166E+02 0.19437153380E+02
 0.30126354860E+02 0.63215108960E+02 0.13350973119E+03 0.24403967484E+03 0.38251685710E+03
 0.52185944177E+03 0.62657601229E+03 0.66562804413E+03 0.62657601229E+03 0.52185944177E+03
 0.38251685710E+03 0.24403967484E+03 0.13350973119E+03 0.63215108960E+02 0.30126354860E+02
 0.19437153380E+02 0.14359702166E+02 0.11161922282E+02 0.93199577396E+01 0.83101747786E+01
 0.77941844277E+01 0.74612713549E+01 0.71651969220E+01 0.74160010109E+01 0.75322609681E+01
 0.77941844277E+01 0.81059161713E+01 0.85698767361E+01 0.94221496718E+01 0.10944837074E+02
 0.13604616785E+02 0.17951001389E+02 0.25057982391E+02 0.46027472083E+02 0.94416588333E+02
 0.17444754965E+03 0.27746483802E+03 0.38251685710E+03 0.46192336836E+03 0.49159638632E+03
 0.46192336836E+03 0.38251685710E+03 0.27746483802E+03 0.17444754965E+03 0.94416588333E+02
 0.46027472083E+02 0.25057982391E+02 0.17951001389E+02 0.13604616785E+02 0.10944837074E+02
 0.94221496718E+01 0.85698767361E+01 0.81059161713E+01 0.77941844277E+01 0.75322609681E+01
 0.80203447222E+01 0.81064807674E+01 0.83101747786E+01 0.85698767361E+01 0.89503763010E+01
 0.96127141511E+01 0.10772440387E+02 0.12808446066E+02 0.16231358733E+02 0.21204776068E+02
 0.31815689837E+02 0.58964511155E+02 0.10802385713E+03 0.17444754965E+03 0.24403967484E+03
 0.29734975188E+03 0.31737791505E+03 0.29734975188E+03 0.24403967484E+03 0.17444754965E+03
 0.10802385713E+03 0.58964511155E+02 0.31815689837E+02 0.21204776068E+02 0.16231358733E+02
 0.12808446066E+02 0.10772440387E+02 0.96127141511E+01 0.89503763010E+01 0.85698767361E+01
 0.83101747786E+01 0.81064807674E+01 0.92174315956E+01 0.92479609269E+01 0.93199577396E+01
 0.94221496718E+01 0.96127141511E+01 0.10005226474E+02 0.10757173223E+02 0.12144701196E+02
 0.14571811256E+02 0.18290914993E+02 0.23414899429E+02 0.35028062372E+02 0.58964511155E+02
 0.94416588333E+02 0.13350973119E+03 0.16427814441E+03 0.17597238543E+03 0.16427814441E+03
 0.13350973119E+03 0.94416588333E+02 0.58964511155E+02 0.35028062372E+02 0.23414899429E+02
 0.18290914993E+02 0.14571811256E+02 0.12144701196E+02 0.10757173223E+02 0.10005226474E+02
 0.96127141511E+01 0.94221496718E+01 0.93199577396E+01 0.92479609269E+01 0.11390160264E+02
 0.11328976849E+02 0.11161922282E+02 0.10944837074E+02 0.10772440387E+02 0.10757173223E+02
 0.11025526708E+02 0.11761694255E+02 0.13231371222E+02 0.15672393067E+02 0.19062984516E+02
 0.23414899429E+02 0.31815689837E+02 0.46027472083E+02 0.63215108960E+02 0.77460578523E+02
 0.83000239262E+02 0.77460578523E+02 0.63215108960E+02 0.46027472083E+02 0.31815689837E+02
 0.23414899429E+02 0.19062984516E+02 0.15672393067E+02 0.13231371222E+02 0.11761694255E+02
 0.11025526708E+02 0.10757173223E+02 0.10772440387E+02 0.10944837074E+02 0.11161922282E+02
 0.11328976849E+02 0.15096057750E+02 0.14900011065E+02 0.14359702166E+02 0.13604616785E+02
 0.12808446066E+02 0.12144701196E+02 0.11761694255E+02 0.11792387225E+02 0.12378109405E+02
 0.13654826813E+02 0.15672393067E+02 0.18290914993E+02 0.21204776068E+02 0.25057982391E+02
 0.30126354860E+02 0.34697333816E+02 0.36550744310E+02 0.34697333816E+02 0.30126354860E+02
 0.25057982391E+02 0.21204776068E+02 0.18290914993E+02 0.15672393067E+02 0.13654826813E+02
 0.12378109405E+02 0.11792387225E+02 0.11761694255E+02 0.12144701196E+02 0.12808446066E+02
 0.13604616785E+02 0.14359702166E+02 0.14900011065E+02 0.20890530358E+02 0.20486966409E+02
 0.19437153380E+02 0.17951001389E+02 0.16231358733E+02 0.14571811256E+02 0.13231371222E+02
 0.12378109405E+02 0.12087607288E+02 0.12378109405E+02 0.13231371222E+02 0.14571811256E+02
 0.16231358733E+02 0.17951001389E+02 0.19437153380E+02 0.20486966409E+02 0.20890530358E+02
 0.20486966409E+02 0.19437153380E+02 0.17951001389E+02 0.16231358733E+02 0.14571811256E+02
 0.13231371222E+02 0.12378109405E+02 0.12087607288E+02 0.12378109405E+02 0.13231371222E+02
 0.14571811256E+02 0.16231358733E+02 0.17951001389E+02 0.19437153380E+02 0.20486966409E+02
 0.36550744310E+02 0.34697333816E+02 0.30126354860E+02 0.25057982391E+02 0.21204776068E+02
 0.18290914993E+02 0.15672393067E+02 0.13654826813E+02 0.12378109405E+02 0.11792387225E+02
 0.11761694255E+02 0.12144701196E+02 0.12808446066E+02 0.13604616785E+02 0.14359702166E+02
 0.14900011065E+02 0.15096057750E+02 0.14900011065E+02 0.14359702166E+02 0.13604616785E+02
 0.12808446066E+02 0.12144701196E+02 0.11761694255E+02 0.11792387225E+02 0.12378109405E+02
 0.13654826813E+02 0.15672393067E+02 0.18290914993E+02 0.21204776068E+02 0.25057982391E+02
 0.30126354860E+02 0.34697333816E+02 0.83000239262E+02 0.77460578523E+02 0.63215108960E+02
 0.46027472083E+02 0.31815689837E+02 0.23414899429E+02 0.19062984516E+02 0.15672393067E+02
 0.13231371222E+02 0.11761694255E+02 0.11025526708E+02 0.10757173223E+02 0.10772440387E+02
 0.10944837074E+02 0.11161922282E+02 0.11328976849E+02 0.11390160264E+02 0.11328976849E+02
 0.11161922282E+02 0.10944837074E+02 0.10772440387E+02 0.10757173223E+02 0.11025526708E+02
 0.11761694255E+02 0.13231371222E+02 0.15672393067E+02 0.19062984516E+02 0.23414899429E+02
 0.31815689837E+02 0.46027472083E+02 0.63215108960E+02 0.77460578523E+02 0.17597238543E+03
 0.16427814441E+03 0.13350973119E+03 0.94416588333E+02 0.58964511155E+02 0.35028062372E+02
 0.23414899429E+02 0.18290914993E+02 0.14571811256E+02 0.12144701196E+02 0.10757173223E+02
 0.10005226474E+02 0.96127141511E+01 0.94221496718E+01 0.93199577396E+01 0.92479609269E+01
 0.92174315956E+01 0.92479609269E+01 0.93199577396E+01 0.94221496718E+01 0.96127141511E+01
 0.10005226474E+02 0.10757173223E+02 0.12144701196E+02 0.14571811256E+02 0.18290914993E+02
 0.23414899429E+02 0.35028062372E+02 0.58964511155E+02 0.94416588333E+02 0.13350973119E+03
 0.16427814441E+03 0.31737791505E+03 0.29734975188E+03 0.24403967484E+03 0.17444754965E+03
 0.10802385713E+03 0.58964511155E+02 0.31815689837E+02 0.21204776068E+02 0.16231358733E+02
 0.12808446066E+02 0.10772440387E+02 0.96127141511E+01 0.89503763010E+01 0.85698767361E+01
 0.83101747786E+01 0.81064807674E+01 0.80203447222E+01 0.81064807674E+01 0.83101747786E+01
 0.85698767361E+01 0.89503763010E+01 0.96127141511E+01 0.10772440387E+02 0.12808446066E+02
 0.16231358733E+02 0.21204776068E+02 0.31815689837E+02 0.58964511155E+02 0.10802385713E+03
 0.17444754965E+03 0.24403967484E+03 0.29734975188E+03 0.49159638632E+03 0.46192336836E+03
 0.38251685710E+03 0.27746483802E+03 0.17444754965E+03 0.94416588333E+02 0.46027472083E+02
 0.25057982391E+02 0.17951001389E+02 0.13604616785E+02 0.10944837074E+02 0.94221496718E+01
 0.85698767361E+01 0.81059161713E+01 0.77941844277E+01 0.75322609681E+01 0.74160010109E+01
 0.75322609681E+01 0.77941844277E+01 0.81059161713E+01 0.85698767361E+01 0.94221496718E+01
 0.10944837074E+02 0.13604616785E+02 0.17951001389E+02 0.25057982391E+02 0.46027472083E+02
 0.94416588333E+02 0.17444754965E+03 0.27746483802E+03 0.38251685710E+03 0.46192336836E+03
 0.66562804413E+03 0.62657601229E+03 0.52185944177E+03 0.38251685710E+03 0.24403967484E+03
 0.13350973119E+03 0.63215108960E+02 0.30126354860E+02 0.19437153380E+02 0.14359702166E+02
 0.11161922282E+02 0.93199577396E+01 0.83101747786E+01 0.77941844277E+01 0.74612713549E+01
 0.71651969220E+01 0.70280534105E+01 0.71651969220E+01 0.74612713549E+01 0.77941844277E+01
 0.83101747786E+01 0.93199577396E+01 0.11161922282E+02 0.14359702166E+02 0.19437153380E+02
 0.30126354860E+02 0.63215108960E+02 0.13350973119E+03 0.24403967484E+03 0.38251685710E+03
 0.52185944177E+03 0.62657601229E+03 0.79608535492E+03 0.75005884390E+03 0.62657601229E+03
 0.46192336836E+03 0.29734975188E+03 0.16427814441E+03 0.77460578523E+02 0.34697333816E+02
 0.20486966409E+02 0.14900011065E+02 0.11328976849E+02 0.92479609269E+01 0.81064807674E+01
 0.75322609681E+01 0.71651969220E+01 0.68310291111E+01 0.66738718778E+01 0.68310291111E+01
 0.71651969220E+01 0.75322609681E+01 0.81064807674E+01 0.92479609269E+01 0.11328976849E+02
 0.14900011065E+02 0.20486966409E+02 0.34697333816E+02 0.77460578523E+02 0.16427814441E+03
 0.29734975188E+03 0.46192336836E+03 0.62657601229E+03 0.75005884390E+03 0.79608535492E+03
 0.75005884390E+03 0.62657601229E+03 0.46192336836E+03 0.29734975188E+03 0.16427814441E+03
 0.77460578523E+02 0.34697333816E+02 0.20486966409E+02 0.14900011065E+02 0.11328976849E+02
 0.92479609269E+01 0.81064807674E+01 0.75322609681E+01 0.71651969220E+01 0.68310291111E+01
 0.66738718778E+01 0.68310291111E+01 0.71651969220E+01 0.75322609681E+01 0.81064807674E+01
 0.92479609269E+01 0.11328976849E+02 0.14900011065E+02 0.20486966409E+02 0.34697333816E+02
 0.77460578523E+02 0.16427814441E+03 0.29734975188E+03 0.46192336836E+03 0.62657601229E+03
 0.75005884390E+03 0.75005884390E+03 0.70649309169E+03 0.58962512921E+03 0.43387938766E+03
 0.27847481079E+03 0.15332192913E+03 0.72328539121E+02 0.33013849599E+02 0.20110096531E+02
 0.14708704102E+02 0.11268969286E+02 0.92762150204E+01 0.81878470051E+01 0.76421145010E+01
 0.72946039339E+01 0.69792042970E+01 0.68310291111E+01 0.69792042970E+01 0.72946039339E+01
 0.76421145010E+01 0.81878470051E+01 0.92762150204E+01 0.11268969286E+02 0.14708704102E+02
 0.20110096531E+02 0.33013849599E+02 0.72328539121E+02 0.15332192913E+03 0.27847481079E+03
 0.43387938766E+03 0.58962512921E+03 0.70649309169E+03 0.62657601229E+03 0.58962512921E+03
 0.49056846825E+03 0.35887129161E+03 0.22828014017E+03 0.12453844194E+03 0.59163144528E+02
 0.28873860198E+02 0.19106661794E+02 0.14182495191E+02 0.11105990593E+02 0.93434832454E+01
 0.83810343684E+01 0.78902782601E+01 0.75744578242E+01 0.72946039339E+01 0.71651969220E+01
 0.72946039339E+01 0.75744578242E+01 0.78902782601E+01 0.83810343684E+01 0.93434832454E+01
 0.11105990593E+02 0.14182495191E+02 0.19106661794E+02 0.28873860198E+02 0.59163144528E+02
 0.12453844194E+03 0.22828014017E+03 0.35887129161E+03 0.49056846825E+03 0.58962512921E+03
 0.46192336836E+03 0.43387938766E+03 0.35887129161E+03 0.25977744924E+03 0.16290060926E+03
 0.88094252060E+02 0.43364084492E+02 0.24299835885E+02 0.17651505490E+02 0.13449408224E+02
 0.10895521522E+02 0.94405228571E+01 0.86287037636E+01 0.81868949540E+01 0.78902782601E+01
 0.76421145010E+01 0.75322609681E+01 0.76421145010E+01 0.78902782601E+01 0.81868949540E+01
 0.86287037636E+01 0.94405228571E+01 0.10895521522E+02 0.13449408224E+02 0.17651505490E+02
 0.24299835885E+02 0.43364084492E+02 0.88094252060E+02 0.16290060926E+03 0.25977744924E+03
 0.35887129161E+03 0.43387938766E+03 0.29734975188E+03 0.27847481079E+03 0.22828014017E+03
 0.16290060926E+03 0.10077302571E+03 0.55259591901E+02 0.30418030665E+02 0.20781633600E+02
 0.15975859090E+02 0.12678793857E+02 0.10728544089E+02 0.96221881365E+01 0.89915702953E+01
 0.86287037636E+01 0.83810343684E+01 0.81878470051E+01 0.81064807674E+01 0.81878470051E+01
 0.83810343684E+01 0.86287037636E+01 0.89915702953E+01 0.96221881365E+01 0.10728544089E+02
 0.12678793857E+02 0.15975859090E+02 0.20781633600E+02 0.30418030665E+02 0.55259591901E+02
 0.10077302571E+03 0.16290060926E+03 0.22828014017E+03 0.27847481079E+03 0.16427814441E+03
 0.15332192913E+03 0.12453844194E+03 0.88094252060E+02 0.55259591901E+02 0.33335574343E+02
 0.22822386142E+02 0.17960721006E+02 0.14367010741E+02 0.12037494082E+02 0.10711625961E+02
 0.99955294287E+01 0.96221881365E+01 0.94405228571E+01 0.93434832454E+01 0.92762150204E+01
 0.92479609269E+01 0.92762150204E+01 0.93434832454E+01 0.94405228571E+01 0.96221881365E+01
 0.99955294287E+01 0.10711625961E+02 0.12037494082E+02 0.14367010741E+02 0.17960721006E+02
 0.22822386142E+02 0.33335574343E+02 0.55259591901E+02 0.88094252060E+02 0.12453844194E+03
 0.15332192913E+03 0.77460578523E+02 0.72328539121E+02 0.59163144528E+02 0.43364084492E+02
 0.30418030665E+02 0.22822386142E+02 0.18705798781E+02 0.15420655326E+02 0.13073119200E+02
 0.11666796075E+02 0.10965354100E+02 0.10711625961E+02 0.10728544089E+02 0.10895521522E+02
 0.11105990593E+02 0.11268969286E+02 0.11328976849E+02 0.11268969286E+02 0.11105990593E+02
 0.10895521522E+02 0.10728544089E+02 0.10711625961E+02 0.10965354100E+02 0.11666796075E+02
 0.13073119200E+02 0.15420655326E+02 0.18705798781E+02 0.22822386142E+02 0.30418030665E+02
 0.43364084492E+02 0.59163144528E+02 0.72328539121E+02 0.34697333816E+02 0.33013849599E+02
 0.28873860198E+02 0.24299835885E+02 0.20781633600E+02 0.17960721006E+02 0.15420655326E+02
 0.13476321981E+02 0.12252055462E+02 0.11693177166E+02 0.11666796075E+02 0.12037494082E+02
 0.12678793857E+02 0.13449408224E+02 0.14182495191E+02 0.14708704102E+02 0.14900011065E+02
 0.14708704102E+02 0.14182495191E+02 0.13449408224E+02 0.12678793857E+02 0.12037494082E+02
 0.11666796075E+02 0.11693177166E+02 0.12252055462E+02 0.13476321981E+02 0.15420655326E+02
 0.17960721006E+02 0.20781633600E+02 0.24299835885E+02 0.28873860198E+02 0.33013849599E+02
 0.20486966409E+02 0.20110096531E+02 0.19106661794E+02 0.17651505490E+02 0.15975859090E+02
 0.14367010741E+02 0.13073119200E+02 0.12252055462E+02 0.11972975373E+02 0.12252055462E+02
 0.13073119200E+02 0.14367010741E+02 0.15975859090E+02 0.17651505490E+02 0.19106661794E+02
 0.20110096531E+02 0.20486966409E+02 0.20110096531E+02 0.19106661794E+02 0.17651505490E+02
 0.15975859090E+02 0.14367010741E+02 0.13073119200E+02 0.12252055462E+02 0.11972975373E+02
 0.12252055462E+02 0.13073119200E+02 0.14367010741E+02 0.15975859090E+02 0.17651505490E+02
 0.19106661794E+02 0.20110096531E+02 0.14900011065E+02 0.14708704102E+02 0.14182495191E+02
 0.13449408224E+02 0.12678793857E+02 0.12037494082E+02 0.11666796075E+02 0.11693177166E+02
 0.12252055462E+02 0.13476321981E+02 0.15420655326E+02 0.17960721006E+02 0.20781633600E+02
 0.24299835885E+02 0.28873860198E+02 0.33013849599E+02 0.34697333816E+02 0.33013849599E+02
 0.28873860198E+02 0.24299835885E+02 0.20781633600E+02 0.17960721006E+02 0.15420655326E+02
 0.13476321981E+02 0.12252055462E+02 0.11693177166E+02 0.11666796075E+02 0.12037494082E+02
 0.12678793857E+02 0.13449408224E+02 0.14182495191E+02 0.14708704102E+02 0.11328976849E+02
 0.11268969286E+02 0.11105990593E+02 0.10895521522E+02 0.10728544089E+02 0.10711625961E+02
 0.10965354100E+02 0.11666796075E+02 0.13073119200E+02 0.15420655326E+02 0.18705798781E+02
 0.22822386142E+02 0.30418030665E+02 0.43364084492E+02 0.59163144528E+02 0.72328539121E+02
 0.77460578523E+02 0.72328539121E+02 0.59163144528E+02 0.43364084492E+02 0.30418030665E+02
 0.22822386142E+02 0.18705798781E+02 0.15420655326E+02 0.13073119200E+02 0.11666796075E+02
 0.10965354100E+02 0.10711625961E+02 0.10728544089E+02 0.10895521522E+02 0.11105990593E+02
 0.11268969286E+02 0.92479609269E+01 0.92762150204E+01 0.93434832454E+01 0.94405228571E+01
 0.96221881365E+01 0.99955294287E+01 0.10711625961E+02 0.12037494082E+02 0.14367010741E+02
 0.17960721006E+02 0.22822386142E+02 0.33335574343E+02 0.55259591901E+02 0.88094252060E+02
 0.12453844194E+03 0.15332192913E+03 0.16427814441E+03 0.15332192913E+03 0.12453844194E+03
 0.88094252060E+02 0.55259591901E+02 0.33335574343E+02 0.22822386142E+02 0.17960721006E+02
 0.14367010741E+02 0.12037494082E+02 0.10711625961E+02 0.99955294287E+01 0.96221881365E+01
 0.94405228571E+01 0.93434832454E+01 0.92762150204E+01 0.81064807674E+01 0.81878470051E+01
 0.83810343684E+01 0.86287037636E+01 0.89915702953E+01 0.96221881365E+01 0.10728544089E+02
 0.12678793857E+02 0.15975859090E+02 0.20781633600E+02 0.30418030665E+02 0.55259591901E+02
 0.10077302571E+03 0.16290060926E+03 0.22828014017E+03 0.27847481079E+03 0.29734975188E+03
 0.27847481079E+03 0.22828014017E+03 0.16290060926E+03 0.10077302571E+03 0.55259591901E+02
 0.30418030665E+02 0.20781633600E+02 0.15975859090E+02 0.12678793857E+02 0.10728544089E+02
 0.96221881365E+01 0.89915702953E+01 0.86287037636E+01 0.83810343684E+01 0.81878470051E+01
 0.75322609681E+01 0.76421145010E+01 0.78902782601E+01 0.81868949540E+01 0.86287037636E+01
 0.94405228571E+01 0.10895521522E+02 0.13449408224E+02 0.17651505490E+02 0.24299835885E+02
 0.43364084492E+02 0.88094252060E+02 0.16290060926E+03 0.25977744924E+03 0.35887129161E+03
 0.43387938766E+03 0.46192336836E+03 0.43387938766E+03 0.35887129161E+03 0.25977744924E+03
 0.16290060926E+03 0.88094252060E+02 0.43364084492E+02 0.24299835885E+02 0.17651505490E+02
 0.13449408224E+02 0.10895521522E+02 0.94405228571E+01 0.86287037636E+01 0.81868949540E+01
 0.78902782601E+01 0.76421145010E+01 0.71651969220E+01 0.72946039339E+01 0.75744578242E+01
 0.78902782601E+01 0.83810343684E+01 0.93434832454E+01 0.11105990593E+02 0.14182495191E+02
 0.19106661794E+02 0.28873860198E+02 0.59163144528E+02 0.12453844194E+03 0.22828014017E+03
 0.35887129161E+03 0.49056846825E+03 0.58962512921E+03 0.62657601229E+03 0.58962512921E+03
 0.49056846825E+03 0.35887129161E+03 0.22828014017E+03 0.12453844194E+03 0.59163144528E+02
 0.28873860198E+02 0.19106661794E+02 0.14182495191E+02 0.11105990593E+02 0.93434832454E+01
 0.83810343684E+01 0.78902782601E+01 0.75744578242E+01 0.72946039339E+01 0.68310291111E+01
 0.69792042970E+01 0.72946039339E+01 0.76421145010E+01 0.81878470051E+01 0.92762150204E+01
 0.11268969286E+02 0.14708704102E+02 0.20110096531E+02 0.33013849599E+02 0.72328539121E+02
 0.15332192913E+03 0.27847481079E+03 0.43387938766E+03 0.58962512921E+03 0.70649309169E+03
 0.75005884390E+03 0.70649309169E+03 0.58962512921E+03 0.43387938766E+03 0.27847481079E+03
 0.15332192913E+03 0.72328539121E+02 0.33013849599E+02 0.20110096531E+02 0.14708704102E+02
 0.11268969286E+02 0.92762150204E+01 0.81878470051E+01 0.76421145010E+01 0.72946039339E+01
 0.69792042970E+01 0.66738718778E+01 0.68310291111E+01 0.71651969220E+01 0.75322609681E+01
 0.81064807674E+01 0.92479609269E+01 0.11328976849E+02 0.14900011065E+02 0.20486966409E+02
 0.34697333816E+02 0.77460578523E+02 0.16427814441E+03 0.29734975188E+03 0.46192336836E+03
 0.62657601229E+03 0.75005884390E+03 0.79608535492E+03 0.75005884390E+03 0.62657601229E+03
 0.46192336836E+03 0.29734975188E+03 0.16427814441E+03 0.77460578523E+02 0.34697333816E+02
 0.20486966409E+02 0.14900011065E+02 0.11328976849E+02 0.92479609269E+01 0.81064807674E+01
 0.75322609681E+01 0.71651969220E+01 0.68310291111E+01 0.68310291111E+01 0.69792042970E+01
 0.72946039339E+01 0.76421145010E+01 0.81878470051E+01 0.92762150204E+01 0.11268969286E+02
 0.14708704102E+02 0.20110096531E+02 0.33013849599E+02 0.72328539121E+02 0.15332192913E+03
 0.27847481079E+03 0.43387938766E+03 0.58962512921E+03 0.70649309169E+03 0.75005884390E+03
 0.70649309169E+03 0.58962512921E+03 0.43387938766E+03 0.27847481079E+03 0.15332192913E+03
 0.72328539121E+02 0.33013849599E+02 0.20110096531E+02 0.14708704102E+02 0.11268969286E+02
 0.92762150204E+01 0.81878470051E+01 0.76421145010E+01 0.72946039339E+01 0.69792042970E+01
 0.71651969220E+01 0.72946039339E+01 0.75744578242E+01 0.78902782601E+01 0.83810343684E+01
 0.93434832454E+01 0.11105990593E+02 0.14182495191E+02 0.19106661794E+02 0.28873860198E+02
 0.59163144528E+02 0.12453844194E+03 0.22828014017E+03 0.35887129161E+03 0.49056846825E+03
 0.58962512921E+03 0.62657601229E+03 0.58962512921E+03 0.49056846825E+03 0.35887129161E+03
 0.22828014017E+03 0.12453844194E+03 0.59163144528E+02 0.28873860198E+02 0.19106661794E+02