<?xml version="1.0" encoding="ISO-8859-1"?>
<modeling>
 <generator>
  <i name="program" type="string">vasp </i>
  <i name="version" type="string">6.2.0  </i>
  <i name="subversion" type="string">18Jan21 (build Mar 17 2021 09:06:54) complex                          serial </i>
  <i name="platform" type="string">LinuxIFC </i>
  <i name="date" type="string">2021 08 03 </i>
  <i name="time" type="string">10:15:06 </i>
 </generator>
 <incar>
  <i type="string" name="PREC">normal</i>
  <i type="int" name="ICHARG">     1</i>
  <i type="int" name="IBRION">    -1</i>
  <i name="EDIFF">      0.00000100</i>
  <i type="int" name="NSW">     0</i>
  <i name="ENCUT">    270.00000000</i>
  <i type="int" name="NBANDS">    30</i>
  <i type="int" name="ISMEAR">     1</i>
  <i name="SIGMA">      0.20000000</i>
  <i type="logical" name="LCHARG"> T  </i>
  <i type="int" name="KPAR">     1</i>
  <i type="int" name="NCORE">     1</i>
  <i type="string" name="GGA">PE</i>
 </incar>
 <primitive_cell>
  <structure name="primitive_cell" >
   <crystal>
    <varray name="basis" >
     <v>       1.81750000      -1.81750000       0.00000000 </v>
     <v>       1.81750000       0.00000000       1.81750000 </v>
     <v>       0.00000000      -1.81750000       1.81750000 </v>
    </varray>
    <i name="volume">     12.00751822 </i>
    <varray name="rec_basis" >
     <v>       0.27510316      -0.27510316      -0.27510316 </v>
     <v>       0.27510316       0.27510316       0.27510316 </v>
     <v>      -0.27510316      -0.27510316       0.27510316 </v>
    </varray>
   </crystal>
   <varray name="positions" >
    <v>       0.00000000       0.00000000       0.00000000 </v>
   </varray>
  </structure>
  <varray name="primitive_index" >
   <v type="int" >        1 </v>
  </varray>
 </primitive_cell>
 <kpoints>
  <generation param="Monkhorst-Pack">
   <v type="int" name="divisions">       5        5        5 </v>
   <v name="usershift">      0.00000000       0.00000000       0.00000000 </v>
   <v name="genvec1">      0.20000000       0.00000000       0.00000000 </v>
   <v name="genvec2">      0.00000000       0.20000000       0.00000000 </v>
   <v name="genvec3">      0.00000000       0.00000000       0.20000000 </v>
   <v name="shift">      0.00000000       0.00000000       0.00000000 </v>
  </generation>
  <varray name="kpointlist" >
   <v>       0.00000000       0.00000000       0.00000000 </v>
   <v>       0.20000000       0.00000000       0.00000000 </v>
   <v>       0.40000000       0.00000000       0.00000000 </v>
   <v>       0.20000000       0.20000000       0.00000000 </v>
   <v>       0.40000000       0.20000000       0.00000000 </v>
   <v>       0.40000000       0.40000000       0.00000000 </v>
   <v>       0.20000000       0.20000000       0.20000000 </v>
   <v>       0.40000000       0.20000000       0.20000000 </v>
   <v>       0.40000000       0.40000000       0.20000000 </v>
   <v>       0.40000000       0.40000000       0.40000000 </v>
  </varray>
  <varray name="weights" >
   <v>       0.00800000 </v>
   <v>       0.04800000 </v>
   <v>       0.04800000 </v>
   <v>       0.09600000 </v>
   <v>       0.19200000 </v>
   <v>       0.09600000 </v>
   <v>       0.06400000 </v>
   <v>       0.19200000 </v>
   <v>       0.19200000 </v>
   <v>       0.06400000 </v>
  </varray>
 </kpoints>
 <parameters>
  <separator name="general" >
   <i type="string" name="SYSTEM">unknown system</i>
   <i type="logical" name="LCOMPAT"> F  </i>
  </separator>
  <separator name="electronic" >
   <i type="string" name="PREC">normal</i>
   <i name="ENMAX">    270.00000000</i>
   <i name="ENAUG">    586.98000000</i>
   <i name="EDIFF">      0.00000100</i>
   <i type="int" name="IALGO">    38</i>
   <i type="int" name="IWAVPR">     0</i>
   <i type="int" name="NBANDS">    30</i>
   <i type="int" name="NBANDSLOW">    -1</i>
   <i type="int" name="NBANDSHIGH">    -1</i>
   <i name="NELECT">     44.00000000</i>
   <i type="int" name="TURBO">     0</i>
   <i type="int" name="IRESTART">     0</i>
   <i type="int" name="NREBOOT">     0</i>
   <i type="int" name="NMIN">     0</i>
   <i name="EREF">      0.00000000</i>
   <separator name="electronic smearing" >
    <i type="int" name="ISMEAR">     1</i>
    <i name="SIGMA">      0.20000000</i>
    <i name="KSPACING">      0.50000000</i>
    <i type="logical" name="KGAMMA"> T  </i>
    <i type="logical" name="KBLOWUP"> T  </i>
   </separator>
   <separator name="electronic projectors" >
    <i type="logical" name="LREAL"> F  </i>
    <v name="ROPT">      0.00000000</v>
    <i type="int" name="LMAXPAW">  -100</i>
    <i type="int" name="LMAXMIX">     2</i>
    <i type="logical" name="NLSPLINE"> F  </i>
   </separator>
   <separator name="electronic startup" >
    <i type="int" name="ISTART">     1</i>
    <i type="int" name="ICHARG">     1</i>
    <i type="int" name="INIWAV">     1</i>
   </separator>
   <separator name="electronic spin" >
    <i type="int" name="ISPIN">     1</i>
    <i type="logical" name="LNONCOLLINEAR"> F  </i>
    <v name="MAGMOM">      1.00000000      1.00000000      1.00000000      1.00000000</v>
    <i name="NUPDOWN">     -1.00000000</i>
    <i type="logical" name="LSORBIT"> F  </i>
    <v name="SAXIS">      0.00000000      0.00000000      1.00000000</v>
    <i type="logical" name="LSPIRAL"> F  </i>
    <v name="QSPIRAL">      0.00000000      0.00000000      0.00000000</v>
    <i type="logical" name="LZEROZ"> F  </i>
   </separator>
   <separator name="electronic exchange-correlation" >
    <i type="logical" name="LASPH"> F  </i>
    <i type="logical" name="LMETAGGA"> F  </i>
   </separator>
   <separator name="electronic convergence" >
    <i type="int" name="NELM">    60</i>
    <i type="int" name="NELMDL">     0</i>
    <i type="int" name="NELMIN">     2</i>
    <i name="ENINI">    270.00000000</i>
    <separator name="electronic convergence detail" >
     <i type="logical" name="LDIAG"> T  </i>
     <i type="logical" name="LSUBROT"> F  </i>
     <i name="WEIMIN">      0.00000000</i>
     <i name="EBREAK">      0.00000001</i>
     <i name="DEPER">      0.30000000</i>
     <i type="int" name="NRMM">     4</i>
     <i name="TIME">      0.40000000</i>
    </separator>
   </separator>
   <separator name="electronic mixer" >
    <i name="AMIX">      0.40000000</i>
    <i name="BMIX">      1.00000000</i>
    <i name="AMIN">      0.10000000</i>
    <i name="AMIX_MAG">      1.60000000</i>
    <i name="BMIX_MAG">      1.00000000</i>
    <separator name="electronic mixer details" >
     <i type="int" name="IMIX">     4</i>
     <i type="logical" name="MIXFIRST"> F  </i>
     <i type="int" name="MAXMIX">   -45</i>
     <i name="WC">    100.00000000</i>
     <i type="int" name="INIMIX">     1</i>
     <i type="int" name="MIXPRE">     1</i>
     <i type="int" name="MREMOVE">     5</i>
    </separator>
   </separator>
   <separator name="electronic dipolcorrection" >
    <i type="logical" name="LDIPOL"> F  </i>
    <i type="logical" name="LMONO"> F  </i>
    <i type="int" name="IDIPOL">     0</i>
    <i name="EPSILON">      1.00000000</i>
    <v name="DIPOL">   -100.00000000   -100.00000000   -100.00000000</v>
    <i name="EFIELD">      0.00000000</i>
   </separator>
  </separator>
  <separator name="grids" >
   <i type="int" name="NGX">    16</i>
   <i type="int" name="NGY">    16</i>
   <i type="int" name="NGZ">    16</i>
   <i type="int" name="NGXF">    32</i>
   <i type="int" name="NGYF">    32</i>
   <i type="int" name="NGZF">    32</i>
   <i type="logical" name="ADDGRID"> F  </i>
  </separator>
  <separator name="ionic" >
   <i type="int" name="NSW">     0</i>
   <i type="int" name="IBRION">    -1</i>
   <i type="int" name="MDALGO">     0</i>
   <i type="int" name="ISIF">     2</i>
   <i name="PSTRESS">      0.00000000</i>
   <i name="EDIFFG">      0.00001000</i>
   <i type="int" name="NFREE">     0</i>
   <i name="POTIM">      0.50000000</i>
   <i name="SMASS">     -3.00000000</i>
   <i name="SCALEE">      1.00000000</i>
  </separator>
  <separator name="ionic md" >
   <i name="TEBEG">      0.00010000</i>
   <i name="TEEND">      0.00010000</i>
   <i type="int" name="NBLOCK">     1</i>
   <i type="int" name="KBLOCK">     1</i>
   <i type="int" name="NPACO">   256</i>
   <i name="APACO">     16.00000000</i>
  </separator>
  <separator name="symmetry" >
   <i type="int" name="ISYM">     2</i>
   <i name="SYMPREC">      0.00001000</i>
  </separator>
  <separator name="dos" >
   <i type="int" name="LORBIT">     0</i>
   <v name="RWIGS">     -1.00000000</v>
   <i type="int" name="NEDOS">   301</i>
   <i name="EMIN">     10.00000000</i>
   <i name="EMAX">    -10.00000000</i>
   <i name="EFERMI">      0.00000000</i>
  </separator>
  <separator name="writing" >
   <i type="int" name="NWRITE">     2</i>
   <i type="logical" name="LWAVE"> T  </i>
   <i type="logical" name="LDOWNSAMPLE"> F  </i>
   <i type="logical" name="LCHARG"> T  </i>
   <i type="logical" name="LPARD"> F  </i>
   <i type="logical" name="LVTOT"> F  </i>
   <i type="logical" name="LVHAR"> F  </i>
   <i type="logical" name="LELF"> F  </i>
   <i type="logical" name="LOPTICS"> F  </i>
   <v name="STM">      0.00000000      0.00000000      0.00000000      0.00000000      0.00000000      0.00000000      0.00000000</v>
  </separator>
  <separator name="performance" >
   <i type="int" name="NPAR">     1</i>
   <i type="int" name="NSIM">     4</i>
   <i type="int" name="NBLK">    -1</i>
   <i type="logical" name="LPLANE"> T  </i>
   <i type="logical" name="LSCALAPACK"> F  </i>
   <i type="logical" name="LSCAAWARE"> F  </i>
   <i type="logical" name="LSCALU"> F  </i>
   <i type="logical" name="LASYNC"> F  </i>
   <i type="logical" name="LORBITALREAL"> F  </i>
  </separator>
  <separator name="miscellaneous" >
   <i type="int" name="IDIOT">     3</i>
   <i type="int" name="PHON_NSTRUCT">    -1</i>
   <i type="logical" name="LMUSIC"> F  </i>
   <v name="POMASS">     63.54600000</v>
   <v name="DARWINR">      0.00000000</v>
   <v name="DARWINV">      1.00000000</v>
   <i type="logical" name="LCORR"> T  </i>
  </separator>
  <i type="logical" name="GGA_COMPAT"> T  </i>
  <i type="logical" name="LBERRY"> F  </i>
  <i type="int" name="ICORELEVEL">     0</i>
  <i type="logical" name="LDAU"> F  </i>
  <i type="int" name="I_CONSTRAINED_M">     0</i>
  <separator name="electronic exchange-correlation" >
   <i type="string" name="GGA">PE</i>
   <i type="int" name="VOSKOWN">     0</i>
   <i type="logical" name="LHFCALC"> F  </i>
   <i type="string" name="PRECFOCK"></i>
   <i type="logical" name="LSYMGRAD"> F  </i>
   <i type="logical" name="LHFONE"> F  </i>
   <i type="logical" name="LRHFCALC"> F  </i>
   <i type="logical" name="LTHOMAS"> F  </i>
   <i type="logical" name="LMODELHF"> F  </i>
   <i type="logical" name="LFOCKACE"> F  </i>
   <i name="ENCUT4O">     -1.00000000</i>
   <i type="int" name="EXXOEP">     0</i>
   <i type="int" name="FOURORBIT">     0</i>
   <i name="AEXX">      0.00000000</i>
   <i name="HFALPHA">      0.00000000</i>
   <i name="MCALPHA">      0.00000000</i>
   <i name="ALDAX">      1.00000000</i>
   <i name="AGGAX">      1.00000000</i>
   <i name="ALDAC">      1.00000000</i>
   <i name="AGGAC">      1.00000000</i>
   <i type="int" name="NKREDX">     1</i>
   <i type="int" name="NKREDY">     1</i>
   <i type="int" name="NKREDZ">     1</i>
   <i type="logical" name="SHIFTRED"> F  </i>
   <i type="logical" name="ODDONLY"> F  </i>
   <i type="logical" name="EVENONLY"> F  </i>
   <i type="int" name="LMAXFOCK">     0</i>
   <i type="int" name="NMAXFOCKAE">     0</i>
   <i type="logical" name="LFOCKAEDFT"> F  </i>
   <i name="HFSCREEN">      0.00000000</i>
   <i name="HFSCREENC">      0.00000000</i>
   <i type="int" name="NBANDSGWLOW">     0</i>
  </separator>
  <separator name="vdW DFT" >
   <i type="logical" name="LUSE_VDW"> F  </i>
   <i name="Zab_VDW">     -0.84910000</i>
   <i name="PARAM1">      0.12340000</i>
   <i name="PARAM2">      1.00000000</i>
   <i name="PARAM3">      0.00000000</i>
  </separator>
  <separator name="model GW" >
   <i type="int" name="MODEL_GW">     0</i>
   <i name="MODEL_EPS0">      7.20451093</i>
   <i name="MODEL_ALPHA">      1.00000000</i>
  </separator>
  <separator name="linear response parameters" >
   <i type="logical" name="LEPSILON"> F  </i>
   <i type="logical" name="LRPA"> F  </i>
   <i type="logical" name="LNABLA"> F  </i>
   <i type="logical" name="LVEL"> F  </i>
   <i type="int" name="KINTER">     0</i>
   <i name="CSHIFT">      0.10000000</i>
   <i name="OMEGAMAX">     -1.00000000</i>
   <i name="DEG_THRESHOLD">      0.00200000</i>
   <i name="RTIME">     -0.10000000</i>
   <i name="WPLASMAI">      0.00000000</i>
   <v name="DFIELD">      0.00000000      0.00000000      0.00000000</v>
   <v name="WPLASMA">      0.00000000      0.00000000      0.00000000      0.00000000      0.00000000      0.00000000      0.00000000      0.00000000      0.00000000</v>
  </separator>
  <separator name="orbital magnetization" >
   <i type="logical" name="NUCIND"> F  </i>
   <v name="MAGPOS">      0.00000000      0.00000000      0.00000000</v>
   <i type="logical" name="LNICSALL"> T  </i>
   <i type="logical" name="ORBITALMAG"> F  </i>
   <i type="logical" name="LMAGBLOCH"> F  </i>
   <i type="logical" name="LCHIMAG"> F  </i>
   <i type="logical" name="LGAUGE"> T  </i>
   <i type="int" name="MAGATOM">     0</i>
   <v name="MAGDIPOL">      0.00000000      0.00000000      0.00000000</v>
   <v name="AVECCONST">      0.00000000      0.00000000      0.00000000</v>
  </separator>
  <separator name="response functions" >
   <i type="logical" name="LFINITE_TEMPERATURE"> F  </i>
   <i type="logical" name="LADDER"> F  </i>
   <i type="logical" name="LRPAFORCE"> F  </i>
   <i type="logical" name="LFXC"> F  </i>
   <i type="logical" name="LHARTREE"> T  </i>
   <i type="int" name="IBSE">     0</i>
   <v type="int" name="KPOINT">    -1     0     0     0</v>
   <i type="logical" name="LTCTC"> F  </i>
   <i type="logical" name="LTCTE"> F  </i>
   <i type="logical" name="LTETE"> F  </i>
   <i type="logical" name="LTRIPLET"> F  </i>
   <i type="logical" name="LFXCEPS"> F  </i>
   <i type="logical" name="LFXHEG"> F  </i>
   <i type="int" name="NATURALO">     2</i>
   <i type="logical" name="LHOLEGF"> F  </i>
   <i type="logical" name="L2ORDER"> F  </i>
   <i type="logical" name="LDMP1"> F  </i>
   <i type="logical" name="LMP2LT"> F  </i>
   <i type="logical" name="LSMP2LT"> F  </i>
   <i type="logical" name="LGWLF"> F  </i>
   <i name="ENCUTGW">     -2.00000000</i>
   <i name="ENCUTGWSOFT">     -2.00000000</i>
   <i name="ENCUTLF">     -1.00000000</i>
   <i type="logical" name="LESF_SPLINES"> F  </i>
   <i type="int" name="LMAXMP2">    -1</i>
   <i name="SCISSOR">      0.00000000</i>
   <i type="int" name="NOMEGA">     0</i>
   <i type="int" name="NOMEGAR">     0</i>
   <i type="int" name="NBANDSGW">    -1</i>
   <i type="int" name="NBANDSO">    -1</i>
   <i type="int" name="NBANDSV">    -1</i>
   <i type="int" name="NELM">     1</i>
   <i type="int" name="NELMHF">     1</i>
   <i type="int" name="DIM">     3</i>
   <i type="int" name="IESPILON">     4</i>
   <i type="int" name="ANTIRES">     0</i>
   <i name="OMEGAMAX">    -30.00000000</i>
   <i name="OMEGAMIN">    -30.00000000</i>
   <i name="OMEGATL">   -200.00000000</i>
   <i type="int" name="OMEGAGRID">     0</i>
   <i name="CSHIFT">     -0.10000000</i>
   <i type="logical" name="LSELFENERGY"> F  </i>
   <i type="logical" name="LSPECTRAL"> F  </i>
   <i type="logical" name="LSPECTRALGW"> F  </i>
   <i type="logical" name="LSINGLES"> F  </i>
   <i type="logical" name="LFERMIGW"> F  </i>
   <i type="logical" name="ODDONLYGW"> F  </i>
   <i type="logical" name="EVENONLYGW"> F  </i>
   <i type="int" name="NKREDLFX">     1</i>
   <i type="int" name="NKREDLFY">     1</i>
   <i type="int" name="NKREDLFZ">     1</i>
   <i type="int" name="MAXMEM">  2800</i>
   <i type="int" name="TELESCOPE">     0</i>
   <i type="int" name="NTAUPAR">    -1</i>
   <i type="int" name="NOMEGAPAR">    -1</i>
   <i name="DAMP_NEWTON">      0.80000001</i>
   <i name="LAMBDA">      1.00000000</i>
  </separator>
  <separator name="External order field" >
   <i name="OFIELD_KAPPA">      0.00000000</i>
   <v name="OFIELD_K">      0.00000000      0.00000000      0.00000000</v>
   <i name="OFIELD_Q6_NEAR">      0.00000000</i>
   <i name="OFIELD_Q6_FAR">      0.00000000</i>
   <i name="OFIELD_A">      0.00000000</i>
  </separator>
 </parameters>
 <atominfo>
  <atoms>       4 </atoms>
  <types>       1 </types>
  <array name="atoms" >
   <dimension dim="1">ion</dimension>
   <field type="string">element</field>
   <field type="int">atomtype</field>
   <set>
    <rc><c>Cu</c><c>   1</c></rc>
    <rc><c>Cu</c><c>   1</c></rc>
    <rc><c>Cu</c><c>   1</c></rc>
    <rc><c>Cu</c><c>   1</c></rc>
   </set>
  </array>
  <array name="atomtypes" >
   <dimension dim="1">type</dimension>
   <field type="int">atomspertype</field>
   <field type="string">element</field>
   <field>mass</field>
   <field>valence</field>
   <field type="string">pseudopotential</field>
   <set>
    <rc><c>   4</c><c>Cu</c><c>     63.54600000</c><c>     11.00000000</c><c>  PAW_PBE Cu 22Jun2005                  </c></rc>
   </set>
  </array>
 </atominfo>
 <structure name="initialpos" >
  <crystal>
   <varray name="basis" >
    <v>       3.63500000       0.00000000       0.00000000 </v>
    <v>       0.00000000       3.63500000       0.00000000 </v>
    <v>       0.00000000       0.00000000       3.63500000 </v>
   </varray>
   <i name="volume">     48.03007287 </i>
   <varray name="rec_basis" >
    <v>       0.27510316       0.00000000       0.00000000 </v>
    <v>       0.00000000       0.27510316       0.00000000 </v>
    <v>       0.00000000       0.00000000       0.27510316 </v>
   </varray>
  </crystal>
  <varray name="positions" >
   <v>       0.00000000       0.00000000       0.00000000 </v>
   <v>       0.50000000       0.50000000       0.00000000 </v>
   <v>       0.50000000       0.00000000       0.50000000 </v>
   <v>       0.00000000       0.50000000       0.50000000 </v>
  </varray>
 </structure>
 <calculation>
  <scstep>
   <time name="dav">    0.16    0.16</time>
   <time name="total">    0.18    0.18</time>
   <energy>
    <i name="alphaZ">    243.62337785 </i>
    <i name="ewald">  -4395.34838493 </i>
    <i name="hartreedc">  -1368.78570921 </i>
    <i name="XCdc">    178.55880100 </i>
    <i name="pawpsdc">   5258.12193278 </i>
    <i name="pawaedc">  -5687.44239457 </i>
    <i name="eentropy">     -0.02893020 </i>
    <i name="bandstr">    193.17870589 </i>
    <i name="atom">   5563.49242760 </i>
    <i name="e_fr_energy">    -14.63017378 </i>
    <i name="e_wo_entrp">    -14.60124358 </i>
    <i name="e_0_energy">    -14.62053038 </i>
   </energy>
  </scstep>
  <scstep>
   <time name="dav">    0.11    0.11</time>
   <time name="total">    0.13    0.13</time>
   <energy>
    <i name="e_fr_energy">    -14.62845210 </i>
    <i name="e_wo_entrp">    -14.59967241 </i>
    <i name="e_0_energy">    -14.61885887 </i>
   </energy>
  </scstep>
  <scstep>
   <time name="dav">    0.09    0.09</time>
   <time name="total">    0.11    0.11</time>
   <energy>
    <i name="e_fr_energy">    -14.62845029 </i>
    <i name="e_wo_entrp">    -14.59964064 </i>
    <i name="e_0_energy">    -14.61884707 </i>
   </energy>
  </scstep>
  <scstep>
   <time name="dav">    0.07    0.07</time>
   <time name="total">    0.08    0.08</time>
   <energy>
    <i name="alphaZ">    243.62337785 </i>
    <i name="ewald">  -4395.34838493 </i>
    <i name="hartreedc">  -1368.78297305 </i>
    <i name="XCdc">    178.55867468 </i>
    <i name="pawpsdc">   5258.11835219 </i>
    <i name="pawaedc">  -5687.44105187 </i>
    <i name="eentropy">     -0.02881516 </i>
    <i name="bandstr">    193.17994252 </i>
    <i name="atom">   5563.49242760 </i>
    <i name="e_fr_energy">    -14.62845016 </i>
    <i name="e_wo_entrp">    -14.59963501 </i>
    <i name="e_0_energy">    -14.61884511 </i>
   </energy>
  </scstep>
  <structure>
   <crystal>
    <varray name="basis" >
     <v>       3.63500000       0.00000000       0.00000000 </v>
     <v>       0.00000000       3.63500000       0.00000000 </v>
     <v>       0.00000000       0.00000000       3.63500000 </v>
    </varray>
    <i name="volume">     48.03007287 </i>
    <varray name="rec_basis" >
     <v>       0.27510316       0.00000000       0.00000000 </v>
     <v>       0.00000000       0.27510316       0.00000000 </v>
     <v>       0.00000000       0.00000000       0.27510316 </v>
    </varray>
   </crystal>
   <varray name="positions" >
    <v>       0.00000000       0.00000000       0.00000000 </v>
    <v>       0.50000000       0.50000000       0.00000000 </v>
    <v>       0.50000000       0.00000000       0.50000000 </v>
    <v>       0.00000000       0.50000000       0.50000000 </v>
   </varray>
  </structure>
  <varray name="forces" >
   <v>       0.00000000       0.00000000      -0.00000000 </v>
   <v>       0.00000000      -0.00000000       0.00000000 </v>
   <v>      -0.00000000      -0.00000000       0.00000000 </v>
   <v>      -0.00000000       0.00000000      -0.00000000 </v>
  </varray>
  <varray name="stress" >
   <v>    -156.78089474       0.00000000      -0.00000000 </v>
   <v>       0.00000000    -156.78089474       0.00000000 </v>
   <v>      -0.00000000       0.00000000    -156.78089474 </v>
  </varray>
  <energy>
   <i name="e_fr_energy">    -14.62845016 </i>
   <i name="e_wo_entrp">    -14.59963501 </i>
   <i name="e_0_energy">    -14.61884511 </i>
  </energy>
  <time name="totalsc">    0.64    0.64</time>
  <eigenvalues>
   <array>
    <dimension dim="1">band</dimension>
    <dimension dim="2">kpoint</dimension>
    <dimension dim="3">spin</dimension>
    <field>eigene</field>
    <field>occ</field>
    <set>
     <set comment="spin 1">
      <set comment="kpoint 1">
       <r>   -1.8384    1.0000 </r>
       <r>    2.5994    1.0000 </r>
       <r>    2.5994    1.0000 </r>
       <r>    2.5994    1.0000 </r>
       <r>    3.0320    1.0000 </r>
       <r>    3.0320    1.0000 </r>
       <r>    3.0320    1.0000 </r>
       <r>    4.4149    1.0000 </r>
       <r>    4.4149    1.0000 </r>
       <r>    4.4149    1.0000 </r>
       <r>    5.2024    1.0000 </r>
       <r>    5.2024    1.0000 </r>
       <r>    5.7293    1.0000 </r>
       <r>    5.7293    1.0000 </r>
       <r>    5.7293    1.0000 </r>
       <r>    5.8809    1.0000 </r>
       <r>    5.8809    1.0000 </r>
       <r>    5.8809    1.0000 </r>
       <r>    5.8809    1.0000 </r>
       <r>    5.8809    1.0000 </r>
       <r>    5.8809    1.0000 </r>
       <r>    8.9000   -0.0000 </r>
       <r>    8.9000   -0.0000 </r>
       <r>    8.9000   -0.0000 </r>
       <r>   14.3713    0.0000 </r>
       <r>   14.3713    0.0000 </r>
       <r>   14.3713    0.0000 </r>
       <r>   20.3421    0.0000 </r>
       <r>   20.3421    0.0000 </r>
       <r>   20.3421    0.0000 </r>
      </set>
      <set comment="kpoint 2">
       <r>   -1.3616    1.0000 </r>
       <r>    2.5513    1.0000 </r>
       <r>    2.8099    1.0000 </r>
       <r>    2.8099    1.0000 </r>
       <r>    3.1555    1.0000 </r>
       <r>    3.1668    1.0000 </r>
       <r>    3.1668    1.0000 </r>
       <r>    4.2571    1.0000 </r>
       <r>    4.5038    1.0000 </r>
       <r>    4.5038    1.0000 </r>
       <r>    5.0747    1.0000 </r>
       <r>    5.2379    1.0000 </r>
       <r>    5.2379    1.0000 </r>
       <r>    5.2424    1.0000 </r>
       <r>    5.5726    1.0000 </r>
       <r>    5.5726    1.0000 </r>
       <r>    5.6801    1.0000 </r>
       <r>    5.7034    1.0000 </r>
       <r>    5.7034    1.0000 </r>
       <r>    5.8816    1.0000 </r>
       <r>    5.8816    1.0000 </r>
       <r>    6.8303    1.0077 </r>
       <r>    9.9712   -0.0000 </r>
       <r>    9.9712   -0.0000 </r>
       <r>   14.5571    0.0000 </r>
       <r>   14.5571    0.0000 </r>
       <r>   17.4203    0.0000 </r>
       <r>   18.0907    0.0000 </r>
       <r>   18.0907    0.0000 </r>
       <r>   18.7559    0.0000 </r>
      </set>
      <set comment="kpoint 3">
       <r>   -0.0063    1.0000 </r>
       <r>    1.7663    1.0000 </r>
       <r>    3.2347    1.0000 </r>
       <r>    3.2347    1.0000 </r>
       <r>    3.4929    1.0000 </r>
       <r>    3.5931    1.0000 </r>
       <r>    3.5931    1.0000 </r>
       <r>    3.9076    1.0000 </r>
       <r>    4.3050    1.0000 </r>
       <r>    4.3050    1.0000 </r>
       <r>    4.8037    1.0000 </r>
       <r>    4.8151    1.0000 </r>
       <r>    4.8151    1.0000 </r>
       <r>    4.9351    1.0000 </r>
       <r>    5.2355    1.0000 </r>
       <r>    5.2355    1.0000 </r>
       <r>    5.2665    1.0000 </r>
       <r>    5.2665    1.0000 </r>
       <r>    5.3721    1.0000 </r>
       <r>    5.5362    1.0000 </r>
       <r>    5.8860    1.0000 </r>
       <r>    5.8860    1.0000 </r>
       <r>   12.1924   -0.0000 </r>
       <r>   12.1924   -0.0000 </r>
       <r>   14.9669    0.0000 </r>
       <r>   14.9669    0.0000 </r>
       <r>   15.1987    0.0000 </r>
       <r>   15.1987    0.0000 </r>
       <r>   16.6366    0.0000 </r>
       <r>   16.6366    0.0000 </r>
      </set>
      <set comment="kpoint 4">
       <r>   -0.8971    1.0000 </r>
       <r>    2.7930    1.0000 </r>
       <r>    2.7930    1.0000 </r>
       <r>    2.9902    1.0000 </r>
       <r>    3.2765    1.0000 </r>
       <r>    3.2796    1.0000 </r>
       <r>    3.2796    1.0000 </r>
       <r>    4.1993    1.0000 </r>
       <r>    4.5428    1.0000 </r>
       <r>    4.5602    1.0000 </r>
       <r>    4.9150    1.0000 </r>
       <r>    4.9150    1.0000 </r>
       <r>    4.9355    1.0000 </r>
       <r>    5.0578    1.0000 </r>
       <r>    5.2672    1.0000 </r>
       <r>    5.4430    1.0000 </r>
       <r>    5.5696    1.0000 </r>
       <r>    5.5696    1.0000 </r>
       <r>    5.7036    1.0000 </r>
       <r>    5.7036    1.0000 </r>
       <r>    5.7552    1.0000 </r>
       <r>    7.8446   -0.0001 </r>
       <r>    7.8446   -0.0001 </r>
       <r>   10.8356   -0.0000 </r>
       <r>   14.5152    0.0000 </r>
       <r>   14.9891    0.0000 </r>
       <r>   17.7523    0.0000 </r>
       <r>   17.7523    0.0000 </r>
       <r>   18.6776    0.0000 </r>
       <r>   18.6776    0.0000 </r>
      </set>
      <set comment="kpoint 5">
       <r>    0.4148    1.0000 </r>
       <r>    2.0985    1.0000 </r>
       <r>    3.3131    1.0000 </r>
       <r>    3.3917    1.0000 </r>
       <r>    3.5451    1.0000 </r>
       <r>    3.5650    1.0000 </r>
       <r>    3.6540    1.0000 </r>
       <r>    3.9244    1.0000 </r>
       <r>    4.0674    1.0000 </r>
       <r>    4.2464    1.0000 </r>
       <r>    4.4447    1.0000 </r>
       <r>    4.5415    1.0000 </r>
       <r>    4.8278    1.0000 </r>
       <r>    4.9982    1.0000 </r>
       <r>    5.1742    1.0000 </r>
       <r>    5.2411    1.0000 </r>
       <r>    5.2629    1.0000 </r>
       <r>    5.3258    1.0000 </r>
       <r>    5.5079    1.0000 </r>
       <r>    5.6981    1.0000 </r>
       <r>    5.7008    1.0000 </r>
       <r>    6.0486    1.0000 </r>
       <r>    9.5442   -0.0000 </r>
       <r>   11.7473   -0.0000 </r>
       <r>   12.8704    0.0000 </r>
       <r>   15.5542    0.0000 </r>
       <r>   15.5616    0.0000 </r>
       <r>   17.0287    0.0000 </r>
       <r>   18.8417    0.0000 </r>
       <r>   20.2827    0.0000 </r>
      </set>
      <set comment="kpoint 6">
       <r>    1.5548    1.0000 </r>
       <r>    2.8664    1.0000 </r>
       <r>    2.8664    1.0000 </r>
       <r>    3.3676    1.0000 </r>
       <r>    3.7775    1.0000 </r>
       <r>    3.7926    1.0000 </r>
       <r>    3.7926    1.0000 </r>
       <r>    3.9060    1.0000 </r>
       <r>    4.0521    1.0000 </r>
       <r>    4.0521    1.0000 </r>
       <r>    4.0652    1.0000 </r>
       <r>    4.3801    1.0000 </r>
       <r>    4.8666    1.0000 </r>
       <r>    4.9569    1.0000 </r>
       <r>    4.9928    1.0000 </r>
       <r>    5.0544    1.0000 </r>
       <r>    5.0544    1.0000 </r>
       <r>    5.2961    1.0000 </r>
       <r>    5.2961    1.0000 </r>
       <r>    5.4154    1.0000 </r>
       <r>    6.0462    1.0000 </r>
       <r>    7.1340    0.8659 </r>
       <r>    7.1340    0.8659 </r>
       <r>    8.8928   -0.0000 </r>
       <r>   14.6504    0.0000 </r>
       <r>   16.5184    0.0000 </r>
       <r>   17.1858    0.0000 </r>
       <r>   17.1858    0.0000 </r>
       <r>   18.2879    0.0000 </r>
       <r>   18.2879    0.0000 </r>
      </set>
      <set comment="kpoint 7">
       <r>   -0.4507    1.0000 </r>
       <r>    2.9667    1.0000 </r>
       <r>    2.9667    1.0000 </r>
       <r>    2.9667    1.0000 </r>
       <r>    3.3959    1.0000 </r>
       <r>    3.3959    1.0000 </r>
       <r>    3.3959    1.0000 </r>
       <r>    4.1782    1.0000 </r>
       <r>    4.5553    1.0000 </r>
       <r>    4.5553    1.0000 </r>
       <r>    4.6843    1.0000 </r>
       <r>    4.6843    1.0000 </r>
       <r>    4.6843    1.0000 </r>
       <r>    5.1954    1.0000 </r>
       <r>    5.1954    1.0000 </r>
       <r>    5.2402    1.0000 </r>
       <r>    5.2402    1.0000 </r>
       <r>    5.2402    1.0000 </r>
       <r>    5.8015    1.0000 </r>
       <r>    5.8015    1.0000 </r>
       <r>    5.8015    1.0000 </r>
       <r>    8.4768   -0.0000 </r>
       <r>    8.4768   -0.0000 </r>
       <r>    8.4768   -0.0000 </r>
       <r>   15.2993    0.0000 </r>
       <r>   15.2993    0.0000 </r>
       <r>   15.2993    0.0000 </r>
       <r>   18.1194    0.0000 </r>
       <r>   18.1194    0.0000 </r>
       <r>   18.1194    0.0000 </r>
      </set>
      <set comment="kpoint 8">
       <r>    0.7908    1.0000 </r>
       <r>    2.3227    1.0000 </r>
       <r>    3.2951    1.0000 </r>
       <r>    3.2951    1.0000 </r>
       <r>    3.6368    1.0000 </r>
       <r>    3.6368    1.0000 </r>
       <r>    3.6966    1.0000 </r>
       <r>    4.0011    1.0000 </r>
       <r>    4.2388    1.0000 </r>
       <r>    4.2388    1.0000 </r>
       <r>    4.3605    1.0000 </r>
       <r>    4.5045    1.0000 </r>
       <r>    4.6440    1.0000 </r>
       <r>    4.9007    1.0000 </r>
       <r>    5.0259    1.0000 </r>
       <r>    5.0259    1.0000 </r>
       <r>    5.2975    1.0000 </r>
       <r>    5.4699    1.0000 </r>
       <r>    5.7138    1.0000 </r>
       <r>    5.7138    1.0000 </r>
       <r>    5.7190    1.0000 </r>
       <r>    6.2387    1.0000 </r>
       <r>    9.8398   -0.0000 </r>
       <r>    9.8398   -0.0000 </r>
       <r>   12.4974   -0.0000 </r>
       <r>   12.4974   -0.0000 </r>
       <r>   16.8316    0.0000 </r>
       <r>   19.1395    0.0000 </r>
       <r>   19.2198    0.0000 </r>
       <r>   19.2198    0.0000 </r>
      </set>
      <set comment="kpoint 9">
       <r>    1.7507    1.0000 </r>
       <r>    2.7301    1.0000 </r>
       <r>    2.7301    1.0000 </r>
       <r>    3.0344    1.0000 </r>
       <r>    3.9330    1.0000 </r>
       <r>    4.0439    1.0000 </r>
       <r>    4.0439    1.0000 </r>
       <r>    4.1971    1.0000 </r>
       <r>    4.2636    1.0000 </r>
       <r>    4.2636    1.0000 </r>
       <r>    4.4030    1.0000 </r>
       <r>    4.4143    1.0000 </r>
       <r>    4.5662    1.0000 </r>
       <r>    4.7397    1.0000 </r>
       <r>    4.7397    1.0000 </r>
       <r>    4.7471    1.0000 </r>
       <r>    5.3221    1.0000 </r>
       <r>    5.5971    1.0000 </r>
       <r>    5.5971    1.0000 </r>
       <r>    5.6088    1.0000 </r>
       <r>    5.9260    1.0000 </r>
       <r>    7.1676    0.7590 </r>
       <r>    7.1676    0.7590 </r>
       <r>    8.8224   -0.0000 </r>
       <r>   11.9304   -0.0000 </r>
       <r>   13.9023    0.0000 </r>
       <r>   13.9023    0.0000 </r>
       <r>   16.1291    0.0000 </r>
       <r>   20.4251    0.0000 </r>
       <r>   22.4080    0.0000 </r>
      </set>
      <set comment="kpoint 10">
       <r>    2.1476    1.0000 </r>
       <r>    2.5680    1.0000 </r>
       <r>    2.5680    1.0000 </r>
       <r>    2.5680    1.0000 </r>
       <r>    4.2441    1.0000 </r>
       <r>    4.2441    1.0000 </r>
       <r>    4.2441    1.0000 </r>
       <r>    4.4096    1.0000 </r>
       <r>    4.4096    1.0000 </r>
       <r>    4.4903    1.0000 </r>
       <r>    4.4903    1.0000 </r>
       <r>    4.4903    1.0000 </r>
       <r>    4.9513    1.0000 </r>
       <r>    4.9513    1.0000 </r>
       <r>    4.9513    1.0000 </r>
       <r>    5.1818    1.0000 </r>
       <r>    5.6365    1.0000 </r>
       <r>    5.6365    1.0000 </r>
       <r>    5.7523    1.0000 </r>
       <r>    5.7523    1.0000 </r>
       <r>    5.7523    1.0000 </r>
       <r>    7.2755    0.3225 </r>
       <r>    7.2755    0.3225 </r>
       <r>    7.2755    0.3225 </r>
       <r>   11.4765   -0.0000 </r>
       <r>   11.4765   -0.0000 </r>
       <r>   11.4765   -0.0000 </r>
       <r>   13.2418    0.0000 </r>
       <r>   25.6864    0.0000 </r>
       <r>   25.6864    0.0000 </r>
      </set>
     </set>
    </set>
   </array>
  </eigenvalues>
  <separator name="orbital magnetization" >
   <v name="MAGDIPOLOUT">      0.00000000      0.00000000      0.00000000</v>
  </separator>
  <dos>
   <i name="efermi">      7.23248923 </i>
   <total>
    <array>
     <dimension dim="1">gridpoints</dimension>
     <dimension dim="2">spin</dimension>
     <field>energy</field>
     <field>total</field>
     <field>integrated</field>
     <set>
      <set comment="spin 1">
       <r>    -3.8384     0.0000     0.0000 </r>
       <r>    -3.7333     0.0000     0.0000 </r>
       <r>    -3.6282     0.0000     0.0000 </r>
       <r>    -3.5231    -0.0000    -0.0000 </r>
       <r>    -3.4180    -0.0000    -0.0000 </r>
       <r>    -3.3129    -0.0000    -0.0000 </r>
       <r>    -3.2079    -0.0000    -0.0000 </r>
       <r>    -3.1028    -0.0000    -0.0000 </r>
       <r>    -2.9977    -0.0000    -0.0000 </r>
       <r>    -2.8926    -0.0000    -0.0000 </r>
       <r>    -2.7875    -0.0000    -0.0000 </r>
       <r>    -2.6825    -0.0000    -0.0000 </r>
       <r>    -2.5774    -0.0000    -0.0000 </r>
       <r>    -2.4723    -0.0000    -0.0000 </r>
       <r>    -2.3672    -0.0001    -0.0000 </r>
       <r>    -2.2621    -0.0007    -0.0001 </r>
       <r>    -2.1570    -0.0027    -0.0004 </r>
       <r>    -2.0520    -0.0011    -0.0005 </r>
       <r>    -1.9469     0.0209     0.0017 </r>
       <r>    -1.8418     0.0561     0.0076 </r>
       <r>    -1.7367     0.0502     0.0129 </r>
       <r>    -1.6316     0.0036     0.0132 </r>
       <r>    -1.5265     0.0335     0.0168 </r>
       <r>    -1.4215     0.2289     0.0408 </r>
       <r>    -1.3164     0.3801     0.0808 </r>
       <r>    -1.2113     0.2313     0.1051 </r>
       <r>    -1.1062     0.0445     0.1097 </r>
       <r>    -1.0011     0.2514     0.1362 </r>
       <r>    -0.8961     0.6892     0.2086 </r>
       <r>    -0.7910     0.6780     0.2798 </r>
       <r>    -0.6859     0.2421     0.3053 </r>
       <r>    -0.5808     0.1030     0.3161 </r>
       <r>    -0.4757     0.3745     0.3554 </r>
       <r>    -0.3706     0.4866     0.4066 </r>
       <r>    -0.2656     0.2292     0.4307 </r>
       <r>    -0.1605     0.0645     0.4375 </r>
       <r>    -0.0554     0.2239     0.4610 </r>
       <r>     0.0497     0.3406     0.4968 </r>
       <r>     0.1548     0.1626     0.5139 </r>
       <r>     0.2599     0.2246     0.5375 </r>
       <r>     0.3649     0.9847     0.6409 </r>
       <r>     0.4700     1.4896     0.7975 </r>
       <r>     0.5751     0.9401     0.8963 </r>
       <r>     0.6802     0.6471     0.9643 </r>
       <r>     0.7853     1.2892     1.0997 </r>
       <r>     0.8903     1.3952     1.2463 </r>
       <r>     0.9954     0.5726     1.3065 </r>
       <r>     1.1005    -0.0126     1.3052 </r>
       <r>     1.2056    -0.0966     1.2950 </r>
       <r>     1.3107    -0.0701     1.2877 </r>
       <r>     1.4158     0.0691     1.2949 </r>
       <r>     1.5208     0.5062     1.3481 </r>
       <r>     1.6259     1.2122     1.4755 </r>
       <r>     1.7310     1.9245     1.6777 </r>
       <r>     1.8361     1.8224     1.8692 </r>
       <r>     1.9412     1.0107     1.9755 </r>
       <r>     2.0463     1.1460     2.0959 </r>
       <r>     2.1513     2.0193     2.3081 </r>
       <r>     2.2564     2.1841     2.5376 </r>
       <r>     2.3615     1.7735     2.7239 </r>
       <r>     2.4666     1.5336     2.8851 </r>
       <r>     2.5717     2.2822     3.1249 </r>
       <r>     2.6767     4.2556     3.5721 </r>
       <r>     2.7818     6.3331     4.2376 </r>
       <r>     2.8869     6.7813     4.9502 </r>
       <r>     2.9920     5.6436     5.5432 </r>
       <r>     3.0971     4.5757     6.0241 </r>
       <r>     3.2022     5.9970     6.6542 </r>
       <r>     3.3072     9.6249     7.6656 </r>
       <r>     3.4123    10.4967     8.7687 </r>
       <r>     3.5174     8.9853     9.7129 </r>
       <r>     3.6225     9.2739    10.6874 </r>
       <r>     3.7276     9.0661    11.6401 </r>
       <r>     3.8327     7.3381    12.4112 </r>
       <r>     3.9377     8.1099    13.2634 </r>
       <r>     4.0428    11.0741    14.4271 </r>
       <r>     4.1479    13.5025    15.8459 </r>
       <r>     4.2530    15.7675    17.5028 </r>
       <r>     4.3581    16.9273    19.2816 </r>
       <r>     4.4631    16.4816    21.0135 </r>
       <r>     4.5682    14.9934    22.5891 </r>
       <r>     4.6733    12.4978    23.9024 </r>
       <r>     4.7784    11.3270    25.0926 </r>
       <r>     4.8835    12.6704    26.4241 </r>
       <r>     4.9886    14.2855    27.9252 </r>
       <r>     5.0936    14.0404    29.4006 </r>
       <r>     5.1987    14.8945    30.9658 </r>
       <r>     5.3038    16.6538    32.7158 </r>
       <r>     5.4089    14.0456    34.1917 </r>
       <r>     5.5140    11.7295    35.4243 </r>
       <r>     5.6191    15.7088    37.0750 </r>
       <r>     5.7241    19.6534    39.1402 </r>
       <r>     5.8292    16.0507    40.8269 </r>
       <r>     5.9343     8.7647    41.7479 </r>
       <r>     6.0394     4.4109    42.2114 </r>
       <r>     6.1445     2.8332    42.5091 </r>
       <r>     6.2495     2.0325    42.7227 </r>
       <r>     6.3546     1.1895    42.8477 </r>
       <r>     6.4597     0.3026    42.8795 </r>
       <r>     6.5648    -0.0964    42.8694 </r>
       <r>     6.6699    -0.0433    42.8648 </r>
       <r>     6.7750     0.1226    42.8777 </r>
       <r>     6.8800     0.1311    42.8915 </r>
       <r>     6.9851     0.5226    42.9464 </r>
       <r>     7.0902     2.7179    43.2320 </r>
       <r>     7.1953     5.3414    43.7933 </r>
       <r>     7.3004     4.8427    44.3022 </r>
       <r>     7.4055     1.9937    44.5117 </r>
       <r>     7.5105     0.0793    44.5200 </r>
       <r>     7.6156    -0.2550    44.4932 </r>
       <r>     7.7207     0.3034    44.5251 </r>
       <r>     7.8258     1.2616    44.6577 </r>
       <r>     7.9309     1.4932    44.8146 </r>
       <r>     8.0359     0.6815    44.8862 </r>
       <r>     8.1410    -0.0261    44.8834 </r>
       <r>     8.2461    -0.1314    44.8696 </r>
       <r>     8.3512     0.3409    44.9055 </r>
       <r>     8.4563     1.2109    45.0327 </r>
       <r>     8.5614     1.3880    45.1786 </r>
       <r>     8.6664     0.8598    45.2689 </r>
       <r>     8.7715     1.2955    45.4050 </r>
       <r>     8.8766     2.2912    45.6458 </r>
       <r>     8.9817     1.8877    45.8442 </r>
       <r>     9.0868     0.5791    45.9050 </r>
       <r>     9.1919    -0.1099    45.8935 </r>
       <r>     9.2969    -0.1600    45.8767 </r>
       <r>     9.4020     0.2130    45.8991 </r>
       <r>     9.5071     1.0076    46.0049 </r>
       <r>     9.6122     1.4252    46.1547 </r>
       <r>     9.7173     1.6142    46.3243 </r>
       <r>     9.8224     2.7839    46.6169 </r>
       <r>     9.9274     3.4378    46.9781 </r>
       <r>    10.0325     2.1110    47.1999 </r>
       <r>    10.1376     0.5070    47.2532 </r>
       <r>    10.2427    -0.0857    47.2442 </r>
       <r>    10.3478    -0.0910    47.2347 </r>
       <r>    10.4528    -0.0407    47.2304 </r>
       <r>    10.5579    -0.0431    47.2258 </r>
       <r>    10.6630     0.0504    47.2311 </r>
       <r>    10.7681     0.4313    47.2765 </r>
       <r>    10.8732     0.7750    47.3579 </r>
       <r>    10.9783     0.5596    47.4167 </r>
       <r>    11.0833     0.1015    47.4274 </r>
       <r>    11.1884    -0.1146    47.4153 </r>
       <r>    11.2935     0.0255    47.4180 </r>
       <r>    11.3986     0.7122    47.4929 </r>
       <r>    11.5037     1.4397    47.6441 </r>
       <r>    11.6088     1.4334    47.7948 </r>
       <r>    11.7138     1.4530    47.9474 </r>
       <r>    11.8189     1.9423    48.1516 </r>
       <r>    11.9240     2.0941    48.3716 </r>
       <r>    12.0291     1.5674    48.5363 </r>
       <r>    12.1342     0.8949    48.6304 </r>
       <r>    12.2392     0.5915    48.6925 </r>
       <r>    12.3443     0.8422    48.7810 </r>
       <r>    12.4494     2.1377    49.0056 </r>
       <r>    12.5545     3.0181    49.3228 </r>
       <r>    12.6596     1.8708    49.5194 </r>
       <r>    12.7647     0.8220    49.6057 </r>
       <r>    12.8697     1.2272    49.7347 </r>
       <r>    12.9748     1.3046    49.8718 </r>
       <r>    13.0799     0.5763    49.9324 </r>
       <r>    13.1850     0.3001    49.9639 </r>
       <r>    13.2901     0.4527    50.0115 </r>
       <r>    13.3952     0.3198    50.0451 </r>
       <r>    13.5002     0.0140    50.0465 </r>
       <r>    13.6053    -0.1762    50.0280 </r>
       <r>    13.7104     0.0439    50.0326 </r>
       <r>    13.8155     1.3758    50.1772 </r>
       <r>    13.9206     2.9853    50.4909 </r>
       <r>    14.0256     2.5514    50.7590 </r>
       <r>    14.1307     0.7475    50.8376 </r>
       <r>    14.2358    -0.1483    50.8220 </r>
       <r>    14.3409     0.0277    50.8249 </r>
       <r>    14.4460     0.8252    50.9116 </r>
       <r>    14.5511     1.8268    51.1036 </r>
       <r>    14.6561     1.9504    51.3085 </r>
       <r>    14.7612     1.0616    51.4201 </r>
       <r>    14.8663     0.6398    51.4873 </r>
       <r>    14.9714     1.1927    51.6126 </r>
       <r>    15.0765     1.5296    51.7734 </r>
       <r>    15.1816     1.5864    51.9401 </r>
       <r>    15.2866     1.9046    52.1402 </r>
       <r>    15.3917     2.0005    52.3504 </r>
       <r>    15.4968     2.4731    52.6103 </r>
       <r>    15.6019     3.0878    52.9348 </r>
       <r>    15.7070     2.0410    53.1493 </r>
       <r>    15.8120     0.3515    53.1862 </r>
       <r>    15.9171    -0.1771    53.1676 </r>
       <r>    16.0222     0.4273    53.2125 </r>
       <r>    16.1273     1.3587    53.3552 </r>
       <r>    16.2324     1.3600    53.4982 </r>
       <r>    16.3375     0.5401    53.5549 </r>
       <r>    16.4425     0.3583    53.5926 </r>
       <r>    16.5476     0.9475    53.6921 </r>
       <r>    16.6527     1.3591    53.8349 </r>
       <r>    16.7578     1.5130    53.9939 </r>
       <r>    16.8629     1.7760    54.1806 </r>
       <r>    16.9680     2.0147    54.3923 </r>
       <r>    17.0730     2.2836    54.6322 </r>
       <r>    17.1781     2.3320    54.8773 </r>
       <r>    17.2832     1.6776    55.0536 </r>
       <r>    17.3883     0.7629    55.1338 </r>
       <r>    17.4934     0.2605    55.1611 </r>
       <r>    17.5984     0.3125    55.1940 </r>
       <r>    17.7035     0.9928    55.2983 </r>
       <r>    17.8086     1.4259    55.4481 </r>
       <r>    17.9137     0.9511    55.5481 </r>
       <r>    18.0188     1.0548    55.6589 </r>
       <r>    18.1239     2.2585    55.8962 </r>
       <r>    18.2289     2.8469    56.1954 </r>
       <r>    18.3340     2.1358    56.4198 </r>
       <r>    18.4391     0.8851    56.5128 </r>
       <r>    18.5442     0.3569    56.5503 </r>
       <r>    18.6493     1.2564    56.6824 </r>
       <r>    18.7544     2.4676    56.9417 </r>
       <r>    18.8594     2.4481    57.1989 </r>
       <r>    18.9645     1.4240    57.3486 </r>
       <r>    19.0696     1.5821    57.5148 </r>
       <r>    19.1747     3.5743    57.8904 </r>
       <r>    19.2798     4.2022    58.3320 </r>
       <r>    19.3848     2.1214    58.5549 </r>
       <r>    19.4899     0.2002    58.5759 </r>
       <r>    19.5950    -0.2078    58.5541 </r>
       <r>    19.7001    -0.0827    58.5454 </r>
       <r>    19.8052    -0.0196    58.5433 </r>
       <r>    19.9103    -0.0433    58.5388 </r>
       <r>    20.0153    -0.1087    58.5274 </r>
       <r>    20.1204     0.0721    58.5349 </r>
       <r>    20.2255     1.0174    58.6419 </r>
       <r>    20.3306     2.3515    58.8890 </r>
       <r>    20.4357     2.6803    59.1706 </r>
       <r>    20.5408     1.6122    59.3400 </r>
       <r>    20.6458     0.3728    59.3792 </r>
       <r>    20.7509    -0.0918    59.3696 </r>
       <r>    20.8560    -0.0726    59.3619 </r>
       <r>    20.9611    -0.0164    59.3602 </r>
       <r>    21.0662    -0.0018    59.3600 </r>
       <r>    21.1712    -0.0001    59.3600 </r>
       <r>    21.2763    -0.0000    59.3600 </r>
       <r>    21.3814    -0.0000    59.3600 </r>
       <r>    21.4865    -0.0000    59.3600 </r>
       <r>    21.5916    -0.0000    59.3600 </r>
       <r>    21.6967    -0.0000    59.3600 </r>
       <r>    21.8017    -0.0003    59.3600 </r>
       <r>    21.9068    -0.0038    59.3596 </r>
       <r>    22.0119    -0.0270    59.3567 </r>
       <r>    22.1170    -0.0771    59.3486 </r>
       <r>    22.2221     0.0490    59.3538 </r>
       <r>    22.3272     0.7423    59.4318 </r>
       <r>    22.4322     1.5158    59.5911 </r>
       <r>    22.5373     1.2355    59.7209 </r>
       <r>    22.6424     0.3477    59.7574 </r>
       <r>    22.7475    -0.0597    59.7512 </r>
       <r>    22.8526    -0.0549    59.7454 </r>
       <r>    22.9576    -0.0120    59.7441 </r>
       <r>    23.0627    -0.0012    59.7440 </r>
       <r>    23.1678    -0.0001    59.7440 </r>
       <r>    23.2729    -0.0000    59.7440 </r>
       <r>    23.3780    -0.0000    59.7440 </r>
       <r>    23.4831    -0.0000    59.7440 </r>
       <r>    23.5881    -0.0000    59.7440 </r>
       <r>    23.6932    -0.0000    59.7440 </r>
       <r>    23.7983     0.0000    59.7440 </r>
       <r>    23.9034     0.0000    59.7440 </r>
       <r>    24.0085    -0.0000    59.7440 </r>
       <r>    24.1136    -0.0000    59.7440 </r>
       <r>    24.2186    -0.0000    59.7440 </r>
       <r>    24.3237    -0.0000    59.7440 </r>
       <r>    24.4288    -0.0000    59.7440 </r>
       <r>    24.5339    -0.0000    59.7440 </r>
       <r>    24.6390    -0.0000    59.7440 </r>
       <r>    24.7440    -0.0000    59.7440 </r>
       <r>    24.8491    -0.0000    59.7440 </r>
       <r>    24.9542    -0.0000    59.7440 </r>
       <r>    25.0593    -0.0001    59.7440 </r>
       <r>    25.1644    -0.0016    59.7438 </r>
       <r>    25.2695    -0.0130    59.7425 </r>
       <r>    25.3745    -0.0461    59.7376 </r>
       <r>    25.4796    -0.0081    59.7368 </r>
       <r>    25.5847     0.3744    59.7761 </r>
       <r>    25.6898     0.9480    59.8757 </r>
       <r>    25.7949     0.9210    59.9725 </r>
       <r>    25.9000     0.3368    60.0079 </r>
       <r>    26.0050    -0.0181    60.0060 </r>
       <r>    26.1101    -0.0439    60.0014 </r>
       <r>    26.2152    -0.0116    60.0002 </r>
       <r>    26.3203    -0.0014    60.0000 </r>
       <r>    26.4254    -0.0001    60.0000 </r>
       <r>    26.5304    -0.0000    60.0000 </r>
       <r>    26.6355    -0.0000    60.0000 </r>
       <r>    26.7406    -0.0000    60.0000 </r>
       <r>    26.8457    -0.0000    60.0000 </r>
       <r>    26.9508    -0.0000    60.0000 </r>
       <r>    27.0559     0.0000    60.0000 </r>
       <r>    27.1609     0.0000    60.0000 </r>
       <r>    27.2660     0.0000    60.0000 </r>
       <r>    27.3711     0.0000    60.0000 </r>
       <r>    27.4762     0.0000    60.0000 </r>
       <r>    27.5813     0.0000    60.0000 </r>
       <r>    27.6864     0.0000    60.0000 </r>
      </set>
     </set>
    </array>
   </total>
  </dos>
 </calculation>
 <structure name="finalpos" >
  <crystal>
   <varray name="basis" >
    <v>       3.63500000       0.00000000       0.00000000 </v>
    <v>       0.00000000       3.63500000       0.00000000 </v>
    <v>       0.00000000       0.00000000       3.63500000 </v>
   </varray>
   <i name="volume">     48.03007287 </i>
   <varray name="rec_basis" >
    <v>       0.27510316       0.00000000       0.00000000 </v>
    <v>       0.00000000       0.27510316       0.00000000 </v>
    <v>       0.00000000       0.00000000       0.27510316 </v>
   </varray>
  </crystal>
  <varray name="positions" >
   <v>       0.00000000       0.00000000       0.00000000 </v>
   <v>       0.50000000       0.50000000       0.00000000 </v>
   <v>       0.50000000       0.00000000       0.50000000 </v>
   <v>       0.00000000       0.50000000       0.50000000 </v>
  </varray>
 </structure>
</modeling>
