unknown system                          
   1.00000000000000     
     2.283400    0.000000    0.000000
    -1.141700    1.977482    0.000000
     0.000000    0.000000    4.058180
   Fe
     2
Direct
  0.000000  0.000000  0.000000
  0.333333  0.666667  0.500000
 
   20   20   36
  153.76      146.01      125.08      96.760      67.613      42.738      24.895      14.556      10.227      9.0681    
  8.7539      9.0682      10.227      14.556      24.895      42.738      67.613      96.760      125.08      146.01    
  146.01      146.01      131.70      107.24      78.863      52.386      31.659      18.234      11.551      9.3520    
  8.7470      8.7468      9.3518      11.551      18.234      31.657      52.385      78.866      107.24      131.71    
  125.08      131.68      125.08      107.24      83.011      58.012      36.720      21.624      13.113      9.7163    
  8.7623      8.4629      8.7619      9.7163      13.113      21.623      36.718      58.011      83.014      107.24    
  96.757      107.17      107.17      96.760      78.863      58.012      38.597      23.657      14.387      10.130    
  8.7897      8.2534      8.2532      8.7896      10.130      14.388      23.657      38.595      58.008      78.859    
  67.605      78.771      82.887      78.778      67.613      52.386      36.720      23.657      14.879      10.413    
  8.8162      8.1267      7.8817      8.1267      8.8162      10.413      14.881      23.660      36.720      52.381    
  42.737      52.311      57.880      57.882      52.315      42.738      31.659      21.624      14.387      10.413    
  8.8288      8.0704      7.6670      7.6671      8.0702      8.8279      10.412      14.390      21.629      31.662    
  24.901      31.632      36.645      38.498      36.642      31.627      24.895      18.234      13.113      10.130    
  8.8162      8.0705      7.5983      7.4412      7.5987      8.0697      8.8136      10.127      13.113      18.238    
  14.556      18.248      21.626      23.641      23.639      21.620      18.243      14.556      11.551      9.7162    
  8.7897      8.1267      7.6670      7.4412      7.4418      7.6680      8.1265      8.7870      9.7115      11.547    
  10.221      11.579      13.164      14.446      14.938      14.445      13.164      11.583      10.227      9.3520    
  8.7623      8.2534      7.8816      7.6671      7.5987      7.6680      7.8838      8.2559      8.7623      9.3477    
  9.0680      9.3861      9.7841      10.225      10.523      10.524      10.228      9.7889      9.3901      9.0681    
  8.7469      8.4629      8.2532      8.1267      8.0703      8.0697      8.1265      8.2559      8.4681      8.7510    
  8.7598      8.7906      8.8405      8.8993      8.9499      8.9729      8.9525      8.9018      8.8401      8.7864    
  8.7538      8.7467      8.7619      8.7896      8.8162      8.8279      8.8136      8.7870      8.7623      8.7510    
  9.0679      8.7906      8.5481      8.3749      8.2778      8.2396      8.2401      8.2779      8.3722      8.5430    
  8.7866      9.0682      9.3518      9.7163      10.130      10.413      10.412      10.127      9.7115      9.3477    
  10.221      9.3861      8.8405      8.3749      8.0409      7.8530      7.7942      7.8522      8.0387      8.3724    
  8.8405      9.3903      10.227      11.551      13.113      14.388      14.881      14.390      13.113      11.547    
  14.556      11.579      9.7841      8.8993      8.2778      7.8530      7.6468      7.6463      7.8520      8.2780    
  8.9019      9.7888      11.583      14.556      18.234      21.623      23.657      23.660      21.629      18.238    
  24.901      18.248      13.164      10.225      8.9499      8.2396      7.7942      7.6463      7.7938      8.2403    
  8.9525      10.227      13.163      18.244      24.895      31.657      36.718      38.595      36.720      31.662    
  42.737      31.632      21.626      14.446      10.523      8.9729      8.2401      7.8522      7.8520      8.2403    
  8.9739      10.523      14.444      21.621      31.629      42.738      52.385      58.011      58.008      52.381    
  67.605      52.311      36.645      23.641      14.938      10.524      8.9525      8.2779      8.0387      8.2780    
  8.9525      10.523      14.936      23.639      36.645      52.316      67.613      78.866      83.014      78.859    
  96.757      78.771      57.880      38.498      23.639      14.445      10.228      8.9018      8.3722      8.3724    
  8.9019      10.227      14.444      23.639      38.501      57.884      78.775      96.760      107.24      107.24    
  125.08      107.17      82.887      57.882      36.642      21.620      13.164      9.7889      8.8401      8.5430    
  8.8405      9.7888      13.163      21.621      36.645      57.884      82.884      107.17      125.08      131.71    
  146.01      131.68      107.17      78.778      52.315      31.627      18.243      11.583      9.3901      8.7864    
  8.7866      9.3903      11.583      18.244      31.629      52.316      78.775      107.17      131.67      146.01    
  146.16      138.79      118.90      91.966      64.232      40.589      23.701      14.005      10.009      8.9306    
  8.6224      8.9307      10.009      14.005      23.701      40.589      64.232      91.966      118.90      138.79    
  138.79      138.79      125.19      101.93      74.928      49.741      30.078      17.428      11.211      9.1960    
  8.6088      8.6086      9.1958      11.211      17.428      30.076      49.740      74.930      101.94      125.20    
  118.91      125.18      118.90      101.93      78.872      55.082      34.861      20.598      12.642      9.5189    
  8.6196      8.3276      8.6192      9.5189      12.642      20.598      34.858      55.081      78.874      101.94    
  91.964      101.88      101.88      91.966      74.928      55.082      36.636      22.506      13.817      9.8855    
  8.6442      8.1218      8.1216      8.6440      9.8861      13.817      22.506      36.634      55.079      74.924    
  64.224      74.857      78.777      74.864      64.232      49.741      34.861      22.506      14.271      10.138    
  8.6682      7.9982      7.7612      7.9982      8.6682      10.139      14.273      22.508      34.861      49.736    
  40.588      49.691      54.991      54.993      49.695      40.589      30.078      20.599      13.817      10.138    
  8.6789      7.9436      7.5541      7.5542      7.9434      8.6781      10.138      13.819      20.603      30.081    
  23.707      30.076      34.831      36.590      34.828      30.071      23.701      17.428      12.642      9.8855    
  8.6682      7.9436      7.4880      7.3369      7.4884      7.9429      8.6658      9.8832      12.642      17.432    
  14.005      17.463      20.643      22.544      22.542      20.637      17.459      14.005      11.211      9.5189    
  8.6442      7.9983      7.5541      7.3369      7.3375      7.5550      7.9980      8.6417      9.5144      11.207    
  10.003      11.258      12.729      13.925      14.385      13.924      12.729      11.262      10.009      9.1960    
  8.6196      8.1218      7.7612      7.5542      7.4884      7.5550      7.7632      8.1242      8.6196      9.1921    
  8.9304      9.2465      9.6185      10.025      10.299      10.300      10.028      9.6230      9.2503      8.9306    
  8.6088      8.3275      8.1216      7.9982      7.9434      7.9429      7.9980      8.1242      8.3324      8.6126    
  8.6280      8.6673      8.7264      8.7934      8.8485      8.8719      8.8509      8.7958      8.7260      8.6633    
  8.6224      8.6086      8.6192      8.6441      8.6682      8.6781      8.6658      8.6416      8.6196      8.6127    
  8.9304      8.6673      8.4401      8.2803      8.1926      8.1590      8.1595      8.1927      8.2777      8.4352    
  8.6635      8.9307      9.1959      9.5189      9.8860      10.139      10.138      9.8832      9.5144      9.1921    
  10.003      9.2465      8.7264      8.2803      7.9622      7.7843      7.7288      7.7836      7.9603      8.2779    
  8.7264      9.2505      10.009      11.211      12.642      13.817      14.273      13.819      12.642      11.207    
  14.005      11.258      9.6186      8.7934      8.1925      7.7843      7.5868      7.5863      7.7834      8.1927    
  8.7959      9.6229      11.261      14.005      17.428      20.598      22.506      22.508      20.603      17.432    
  23.707      17.463      12.729      10.025      8.8485      8.1590      7.7288      7.5863      7.7284      8.1597    
  8.8509      10.027      12.729      17.459      23.701      30.076      34.858      36.634      34.861      30.081    
  40.588      30.076      20.643      13.925      10.299      8.8719      8.1595      7.7835      7.7834      8.1597    
  8.8728      10.300      13.923      20.638      30.072      40.589      49.740      55.081      55.079      49.736    
  64.224      49.691      34.831      22.545      14.385      10.300      8.8509      8.1927      7.9603      8.1928    
  8.8509      10.300      14.383      22.542      34.831      49.696      64.232      74.930      78.874      74.924    
  91.964      74.857      54.991      36.590      22.542      13.924      10.028      8.7958      8.2778      8.2779    
  8.7959      10.027      13.923      22.542      36.593      54.995      74.861      91.966      101.94      101.94    
  118.91      101.88      78.777      54.993      34.828      20.637      12.729      9.6230      8.7261      8.4352    
  8.7264      9.6229      12.729      20.638      34.831      54.995      78.774      101.87      118.90      125.20    
  138.79      125.18      101.88      74.864      49.695      30.071      17.459      11.262      9.2503      8.6633    
  8.6635      9.2505      11.261      17.459      30.072      49.696      74.861      101.87      125.17      138.79    
  125.59      119.27      102.16      78.962      55.066      34.796      20.525      12.570      9.4477      8.5534    
  8.2644      8.5535      9.4478      12.570      20.525      34.796      55.066      78.962      102.16      119.27    
  119.27      119.27      107.57      87.533      64.251      42.588      25.841      15.304      10.334      8.7764    
  8.2309      8.2307      8.7762      10.334      15.304      25.840      42.588      64.253      87.539      107.58    
  102.17      107.57      102.16      87.533      67.640      47.150      29.861      17.880      11.418      9.0026    
  8.2267      7.9566      8.2262      9.0025      11.419      17.880      29.860      47.149      67.642      87.538    
  78.960      87.520      87.521      78.962      64.251      47.150      31.359      19.444      12.326      9.2523    
  8.2410      7.7600      7.7598      8.2408      9.2527      12.327      19.444      31.357      47.147      64.248    
  55.060      64.241      67.628      64.247      55.066      42.588      29.861      19.444      12.681      9.4275    
  8.2587      7.6434      7.4292      7.6434      8.2587      9.4280      12.682      19.446      29.861      42.584    
  34.795      42.609      47.174      47.176      42.612      34.796      25.841      17.881      12.326      9.4275    
  8.2664      7.5921      7.2419      7.2420      7.5920      8.2658      9.4273      12.328      17.885      25.844    
  20.529      25.908      29.956      31.460      29.954      25.904      20.525      15.304      11.418      9.2523    
  8.2587      7.5921      7.1825      7.0481      7.1828      7.5916      8.2568      9.2504      11.419      15.308    
  12.569      15.400      18.041      19.634      19.631      18.037      15.397      12.570      10.334      9.0025    
  8.2410      7.6434      7.2418      7.0481      7.0485      7.2425      7.6432      8.2389      8.9989      10.331    
  9.4428      10.434      11.608      12.575      12.948      12.574      11.608      10.437      9.4478      8.7764    
  8.2267      7.7600      7.4292      7.2420      7.1829      7.2426      7.4308      7.7619      8.2266      8.7731    
  8.5532      8.8738      9.1931      9.5172      9.7338      9.7345      9.5195      9.1968      8.8769      8.5534    
  8.2309      7.9566      7.7598      7.6433      7.5921      7.5916      7.6431      7.7619      7.9607      8.2340    
  8.2690      8.3323      8.4168      8.5058      8.5754      8.6026      8.5773      8.5077      8.4164      8.3291    
  8.2644      8.2307      8.2263      8.2408      8.2587      8.2658      8.2568      8.2389      8.2267      8.2340    
  8.5532      8.3323      8.1492      8.0277      7.9667      7.9464      7.9468      7.9668      8.0256      8.1453    
  8.3293      8.5534      8.7762      9.0025      9.2527      9.4280      9.4273      9.2504      8.9989      8.7731    
  9.4427      8.8738      8.4168      8.0277      7.7560      7.6068      7.5608      7.6063      7.7545      8.0258    
  8.4168      8.8771      9.4478      10.334      11.419      12.327      12.682      12.328      11.419      10.331    
  12.569      10.434      9.1931      8.5058      7.9667      7.6068      7.4346      7.4342      7.6061      7.9669    
  8.5078      9.1967      10.437      12.570      15.304      17.880      19.444      19.446      17.884      15.308    
  20.529      15.400      11.608      9.5172      8.5753      7.9464      7.5608      7.4342      7.5604      7.9469    
  8.5773      9.5191      11.608      15.397      20.525      25.840      29.860      31.357      29.861      25.844    
  34.795      25.908      18.041      12.575      9.7338      8.6026      7.9468      7.6062      7.6061      7.9469    
  8.6033      9.7340      12.573      18.037      25.905      34.796      42.588      47.149      47.147      42.584    
  55.060      42.609      29.956      19.634      12.948      9.7345      8.5772      7.9668      7.7545      7.9669    
  8.5773      9.7340      12.947      19.632      29.956      42.613      55.066      64.253      67.642      64.248    
  78.960      64.241      47.174      31.460      19.631      12.574      9.5195      8.5077      8.0256      8.0258    
  8.5078      9.5191      12.573      19.632      31.461      47.177      64.245      78.962      87.539      87.538    
  102.17      87.520      67.628      47.176      29.954      18.037      11.608      9.1968      8.4164      8.1453    
  8.4168      9.1967      11.608      18.037      29.956      47.177      67.626      87.515      102.16      107.58    
  119.27      107.57      87.521      64.247      42.612      25.904      15.397      10.437      8.8769      8.3290    
  8.3292      8.8771      10.437      15.397      25.905      42.613      64.245      87.515      107.56      119.27    
  97.625      92.697      79.351      61.227      42.621      27.041      16.395      10.788      8.7468      8.0254    
  7.7697      8.0254      8.7468      10.788      16.395      27.041      42.621      61.227      79.351      92.697    
  92.699      92.697      83.564      67.896      49.716      32.940      20.249      12.607      9.2598      8.1908    
  7.7052      7.7051      8.1907      9.2600      12.607      20.249      32.939      49.717      67.900      83.569    
  79.354      83.580      79.351      67.896      52.339      36.417      23.211      14.377      9.9056      8.3326    
  7.6744      7.4402      7.6740      8.3325      9.9059      14.377      23.210      36.416      52.341      67.899    
  61.225      67.936      67.936      61.227      49.716      36.417      24.322      15.470      10.466      8.4562    
  7.6679      7.2528      7.2527      7.6677      8.4564      10.467      15.470      24.320      36.415      49.714    
  42.617      49.790      52.442      49.793      42.621      32.940      23.211      15.470      10.689      8.5418    
  7.6721      7.1418      6.9618      7.1418      7.6722      8.5420      10.690      15.471      23.211      32.937    
  27.041      33.059      36.600      36.602      33.061      27.041      20.249      14.377      10.466      8.5418    
  7.6751      7.0926      6.7995      6.7997      7.0928      7.6747      8.5416      10.468      14.380      20.252    
  16.398      20.410      23.477      24.624      23.476      20.408      16.395      12.607      9.9056      8.4562    
  7.6722      7.0926      6.7483      6.6372      6.7487      7.0924      7.6709      8.4550      9.9059      12.609    
  10.788      12.786      14.699      15.868      15.867      14.696      12.784      10.788      9.2598      8.3325    
  7.6679      7.1418      6.7995      6.6372      6.6375      6.7999      7.1416      7.6665      8.3300      9.2576    
  8.7431      9.4338      10.240      10.911      11.172      10.910      10.240      9.4362      8.7468      8.1909    
  7.6744      7.2528      6.9618      6.7997      6.7487      6.7999      6.9628      7.2541      7.6744      8.1885    
  8.0253      8.3564      8.6546      8.9027      9.0575      9.0579      8.9042      8.6571      8.3586      8.0254    
  7.7052      7.4402      7.2527      7.1418      7.0928      7.0924      7.1416      7.2541      7.4431      7.7075    
  7.7730      7.8700      7.9876      8.1043      8.1918      8.2250      8.1931      8.1055      7.9873      7.8677    
  7.7697      7.7051      7.6740      7.6677      7.6722      7.6747      7.6708      7.6665      7.6744      7.7075    
  8.0252      7.8700      7.7521      7.6851      7.6615      7.6595      7.6599      7.6617      7.6836      7.7492    
  7.8678      8.0254      8.1907      8.3325      8.4564      8.5420      8.5416      8.4549      8.3300      8.1885    
  8.7431      8.3564      7.9876      7.6851      7.4818      7.3743      7.3422      7.3741      7.4809      7.6838    
  7.9876      8.3588      8.7468      9.2600      9.9059      10.467      10.690      10.468      9.9059      9.2576    
  10.788      9.4338      8.6546      8.1043      7.6615      7.3743      7.2397      7.2394      7.3739      7.6617    
  8.1057      8.6571      9.4360      10.788      12.607      14.377      15.470      15.471      14.380      12.609    
  16.398      12.786      10.240      8.9027      8.1918      7.6595      7.3422      7.2394      7.3419      7.6598    
  8.1931      8.9040      10.239      12.784      16.395      20.249      23.210      24.320      23.211      20.252    
  27.041      20.410      14.699      10.911      9.0575      8.2250      7.6599      7.3741      7.3739      7.6598    
  8.2254      9.0576      10.909      14.696      20.408      27.041      32.939      36.416      36.415      32.937    
  42.617      33.059      23.477      15.868      11.172      9.0579      8.1931      7.6617      7.4809      7.6617    
  8.1931      9.0576      11.171      15.867      23.477      33.061      42.621      49.717      52.341      49.714    
  61.225      49.790      36.600      24.624      15.867      10.910      8.9042      8.1055      7.6836      7.6838    
  8.1057      8.9039      10.909      15.867      24.625      36.603      49.792      61.227      67.900      67.899    
  79.354      67.936      52.442      36.602      23.476      14.696      10.240      8.6571      7.9873      7.7492    
  7.9876      8.6571      10.239      14.696      23.477      36.603      52.441      67.932      79.351      83.569    
  92.699      83.580      67.936      49.793      33.061      20.408      12.784      9.4362      8.3586      7.8677    
  7.8678      8.3588      9.4360      12.784      20.408      33.061      49.792      67.932      83.575      92.697    
  68.601      65.110      55.662      42.878      29.909      19.345      12.508      9.2232      8.0558      7.4517    
  7.2413      7.4518      8.0558      9.2232      12.508      19.345      29.909      42.878      55.662      65.110    
  65.111      65.110      58.630      47.539      34.772      23.225      14.845      10.164      8.3037      7.5434    
  7.1409      7.1407      7.5433      8.3039      10.164      14.845      23.225      34.773      47.541      58.633    
  55.664      58.667      55.662      47.539      36.580      25.544      16.693      11.130      8.5758      7.6242    
  7.0745      6.8859      7.0742      7.6241      8.5761      11.130      16.693      25.543      36.581      47.541    
  42.877      47.633      47.633      42.878      34.772      25.544      17.395      11.746      8.8203      7.6794    
  7.0370      6.7039      6.7037      7.0368      7.6794      8.8205      11.746      17.395      25.543      34.770    
  29.906      34.929      36.798      34.932      29.909      23.225      16.693      11.746      8.9205      7.7064    
  7.0196      6.5931      6.4525      6.5932      7.0197      7.7064      8.9209      11.747      16.693      23.224    
  19.345      23.441      25.885      25.886      23.442      19.345      14.845      11.130      8.8203      7.7064    
  7.0149      6.5424      6.3131      6.3133      6.5427      7.0147      7.7063      8.8211      11.132      14.847    
  12.510      15.099      17.129      17.898      17.129      15.098      12.508      10.164      8.5758      7.6794    
  7.0197      6.5424      6.2692      6.1825      6.2695      6.5424      7.0190      7.6787      8.5761      10.166    
  9.2230      10.427      11.613      12.352      12.351      11.611      10.426      9.2232      8.3037      7.6242    
  7.0370      6.5931      6.3131      6.1825      6.1826      6.3132      6.5930      7.0362      7.6227      8.3024    
  8.0535      8.5547      9.0576      9.4645      9.6228      9.4639      9.0576      8.5562      8.0558      7.5434    
  7.0745      6.7039      6.4525      6.3133      6.2695      6.3133      6.4529      6.7046      7.0745      7.5419    
  7.4516      7.7815      8.0855      8.3174      8.4428      8.4429      8.3182      8.0869      7.7828      7.4518    
  7.1409      6.8859      6.7037      6.5932      6.5427      6.5424      6.5930      6.7046      6.8876      7.1422    
  7.2433      7.3740      7.5207      7.6593      7.7600      7.7973      7.7607      7.6599      7.5204      7.3726    
  7.2413      7.1407      7.0742      7.0368      7.0197      7.0147      7.0190      7.0362      7.0745      7.1422    
  7.4516      7.3740      7.3276      7.3171      7.3305      7.3461      7.3464      7.3307      7.3163      7.3259    
  7.3727      7.4518      7.5433      7.6241      7.6794      7.7064      7.7063      7.6787      7.6227      7.5419    
  8.0535      7.7815      7.5207      7.3171      7.1884      7.1252      7.1075      7.1252      7.1880      7.3164    
  7.5207      7.7829      8.0558      8.3039      8.5761      8.8205      8.9209      8.8212      8.5761      8.3024    
  9.2230      8.5547      8.0855      7.6593      7.3305      7.1252      7.0316      7.0315      7.1250      7.3307    
  7.6601      8.0870      8.5560      9.2232      10.164      11.130      11.746      11.747      11.132      10.166    
  12.510      10.427      9.0576      8.3174      7.7600      7.3461      7.1075      7.0315      7.1072      7.3462    
  7.7607      8.3181      9.0573      10.426      12.508      14.845      16.693      17.395      16.693      14.847    
  19.345      15.099      11.613      9.4645      8.4428      7.7973      7.3464      7.1252      7.1250      7.3462    
  7.7975      8.4429      9.4637      11.611      15.098      19.345      23.225      25.543      25.543      23.224    
  29.906      23.441      17.129      12.352      9.6228      8.4429      7.7607      7.3307      7.1880      7.3307    
  7.7607      8.4429      9.6224      12.351      17.129      23.442      29.909      34.773      36.581      34.770    
  42.877      34.929      25.885      17.898      12.351      9.4639      8.3182      7.6599      7.3163      7.3164    
  7.6601      8.3181      9.4637      12.351      17.898      25.887      34.931      42.878      47.541      47.541    
  55.664      47.633      36.798      25.886      17.129      11.611      9.0576      8.0869      7.5204      7.3259    
  7.5207      8.0870      9.0573      11.611      17.129      25.887      36.797      47.630      55.662      58.633    
  65.111      58.667      47.633      34.932      23.442      15.098      10.426      8.5563      7.7828      7.3725    
  7.3727      7.7829      8.5561      10.426      15.098      23.442      34.931      47.630      58.664      65.110    
  43.497      41.277      35.298      27.311      19.426      13.329      9.7204      8.1545      7.3997      6.9226    
  6.7628      6.9226      7.3997      8.1545      9.7204      13.329      19.426      27.311      35.298      41.277    
  41.278      41.277      37.157      30.168      22.285      15.435      10.808      8.4923      7.5384      6.9356    
  6.6277      6.6276      6.9355      7.5385      8.4927      10.809      15.435      22.285      30.169      37.159    
  35.299      37.208      35.298      30.168      23.360      16.726      11.713      8.8535      7.6309      6.9483    
  6.5230      6.3824      6.5228      6.9482      7.6311      8.8537      11.712      16.726      23.360      30.169    
  27.310      30.300      30.301      27.311      22.285      16.726      12.064      9.0953      7.6878      6.9546    
  6.4497      6.2011      6.2010      6.4495      6.9545      7.6878      9.0951      12.064      16.725      22.284    
  19.425      22.503      23.661      22.504      19.426      15.435      11.713      9.0953      7.7099      6.9559    
  6.4065      6.0851      5.9821      6.0852      6.4065      6.9558      7.7099      9.0955      11.713      15.435    
  13.329      15.721      17.181      17.182      15.722      13.329      10.808      8.8535      7.6878      6.9559    
  6.3922      6.0294      5.8590      5.8592      6.0296      6.3922      6.9558      7.6882      8.8544      10.809    
  9.7213      11.131      12.273      12.713      12.273      11.130      9.7204      8.4923      7.6309      6.9546    
  6.4065      6.0294      5.8197      5.7541      5.8200      6.0295      6.4063      6.9544      7.6311      8.4931    
  8.1543      8.8201      9.4578      9.8584      9.8581      9.4571      8.8197      8.1545      7.5384      6.9483    
  6.4497      6.0851      5.8590      5.7541      5.7541      5.8590      6.0850      6.4493      6.9476      7.5378    
  7.3985      7.8533      8.2326      8.4922      8.5874      8.4919      8.2326      7.8541      7.3997      6.9356    
  6.5230      6.2011      5.9821      5.8592      5.8200      5.8590      5.9821      6.2013      6.5230      6.9349    
  6.9225      7.2368      7.5300      7.7572      7.8811      7.8811      7.7574      7.5306      7.2374      6.9226    
  6.6277      6.3824      6.2010      6.0852      6.0297      6.0295      6.0850      6.2013      6.3832      6.6283    
  6.7637      6.9220      7.0882      7.2384      7.3444      7.3829      7.3446      7.2385      7.0880      6.9213    
  6.7628      6.6276      6.5228      6.4495      6.4065      6.3922      6.4062      6.4493      6.5230      6.6283    
  6.9225      6.9220      6.9418      6.9802      7.0236      7.0526      7.0528      7.0237      6.9798      6.9410    
  6.9214      6.9226      6.9355      6.9482      6.9545      6.9558      6.9559      6.9544      6.9477      6.9349    
  7.3985      7.2368      7.0882      6.9802      6.9197      6.8955      6.8902      6.8957      6.9198      6.9799    
  7.0882      7.2375      7.3997      7.5385      7.6311      7.6878      7.7099      7.6882      7.6311      7.5378    
  8.1543      7.8533      7.5301      7.2384      7.0236      6.8955      6.8395      6.8395      6.8955      7.0237    
  7.2387      7.5306      7.8539      8.1545      8.4927      8.8537      9.0951      9.0955      8.8544      8.4931    
  9.7213      8.8201      8.2326      7.7572      7.3444      7.0526      6.8902      6.8395      6.8900      7.0525    
  7.3446      7.7575      8.2324      8.8193      9.7204      10.809      11.712      12.064      11.713      10.809    
  13.329      11.131      9.4578      8.4922      7.8811      7.3829      7.0528      6.8957      6.8955      7.0525    
  7.3829      7.8812      8.4919      9.4569      11.130      13.329      15.435      16.726      16.725      15.435    
  19.425      15.721      12.273      9.8584      8.5874      7.8811      7.3446      7.0237      6.9197      7.0237    
  7.3446      7.8812      8.5874      9.8583      12.273      15.722      19.426      22.285      23.360      22.284    
  27.310      22.503      17.181      12.713      9.8581      8.4919      7.7574      7.2385      6.9798      6.9799    
  7.2387      7.7575      8.4919      9.8583      12.713      17.182      22.504      27.311      30.169      30.169    
  35.299      30.300      23.661      17.182      12.273      9.4571      8.2326      7.5306      7.0880      6.9410    
  7.0882      7.5306      8.2324      9.4569      12.273      17.182      23.661      30.299      35.298      37.159    
  41.278      37.208      30.301      22.504      15.722      11.130      8.8197      7.8541      7.2374      6.9213    
  6.9214      7.2375      7.8539      8.8193      11.130      15.722      22.504      30.299      37.207      41.277    
  25.127      23.908      20.666      16.452      12.502      9.6992      8.2048      7.4225      6.8454      6.5003    
  6.3884      6.5003      6.8454      7.4225      8.2048      9.6992      12.502      16.452      20.666      23.908    
  23.909      23.908      21.653      17.901      13.835      10.537      8.5285      7.5456      6.8872      6.4386    
  6.2208      6.2208      6.4385      6.8873      7.5460      8.5288      10.537      13.835      17.901      21.653    
  20.666      21.709      20.666      17.901      14.347      11.075      8.8143      7.6205      6.9101      6.3858    