   2   2   0   0
  0.9162119E+01  0.2283400E-09  0.2283400E-09  0.4058180E-09  0.5000000E-15
  1.000000000000000E-004
  CAR 
 unknown system                          
     76.84756575     -5.06447138  301      8.17260039      1.00000000
     -5.064  0.0000E+00  0.0000E+00
     -4.791  0.0000E+00  0.0000E+00
     -4.518  0.0000E+00  0.0000E+00
     -4.245  0.0000E+00  0.0000E+00
     -3.972  0.0000E+00  0.0000E+00
     -3.699  0.0000E+00  0.0000E+00
     -3.426  0.0000E+00  0.0000E+00
     -3.153 -0.3162E-37 -0.8633E-38
     -2.880 -0.2311E-27 -0.6311E-28
     -2.607 -0.3948E-19 -0.1078E-19
     -2.334 -0.1503E-12 -0.4103E-13
     -2.061 -0.1328E-07 -0.3626E-08
     -1.788 -0.2515E-04 -0.6870E-05
     -1.515 -0.4167E-03 -0.1206E-03
     -1.242  0.8672E-02  0.2247E-02
     -0.969  0.4585E-01  0.1477E-01
     -0.696  0.9622E-01  0.4104E-01
     -0.423  0.5432E-01  0.5587E-01
     -0.150  0.1345E+00  0.9259E-01
      0.123  0.1616E+00  0.1367E+00
      0.396  0.1892E+00  0.1884E+00
      0.669  0.8629E-01  0.2119E+00
      0.942  0.1880E+00  0.2633E+00
      1.215  0.3116E+00  0.3483E+00
      1.488  0.2676E+00  0.4214E+00
      1.762  0.3276E+00  0.5109E+00
      2.035  0.2196E+00  0.5708E+00
      2.308  0.3845E+00  0.6758E+00
      2.581  0.1139E+01  0.9869E+00
      2.854  0.1748E+01  0.1464E+01
      3.127  0.1687E+01  0.1925E+01
      3.400  0.2780E+01  0.2684E+01
      3.673  0.2152E+01  0.3271E+01
      3.946  0.2681E+01  0.4003E+01
      4.219  0.2007E+01  0.4551E+01
      4.492  0.2845E+01  0.5328E+01
      4.765  0.2665E+01  0.6056E+01
      5.038  0.2960E+01  0.6864E+01
      5.311  0.2194E+01  0.7463E+01
      5.584  0.2016E+01  0.8014E+01
      5.857  0.2841E+01  0.8789E+01
      6.130  0.3498E+01  0.9744E+01
      6.403  0.3259E+01  0.1063E+02
      6.676  0.3411E+01  0.1157E+02
      6.949  0.3012E+01  0.1239E+02
      7.222  0.3348E+01  0.1330E+02
      7.495  0.2887E+01  0.1409E+02
      7.768  0.2733E+01  0.1484E+02
      8.041  0.3034E+01  0.1566E+02
      8.314  0.2416E+01  0.1632E+02
      8.588  0.2657E+01  0.1705E+02
      8.861  0.3942E+01  0.1813E+02
      9.134  0.4385E+01  0.1932E+02
      9.407  0.3738E+01  0.2034E+02
      9.680  0.2936E+01  0.2115E+02
      9.953  0.3881E+00  0.2125E+02
     10.226  0.2794E+00  0.2133E+02
     10.499  0.5661E+00  0.2148E+02
     10.772  0.6803E+00  0.2167E+02
     11.045  0.6841E+00  0.2186E+02
     11.318  0.5993E+00  0.2202E+02
     11.591  0.4974E+00  0.2215E+02
     11.864  0.2861E+00  0.2223E+02
     12.137  0.3625E+00  0.2233E+02
     12.410  0.3991E+00  0.2244E+02
     12.683  0.5159E+00  0.2258E+02
     12.956  0.5744E+00  0.2274E+02
     13.229  0.4159E+00  0.2285E+02
     13.502  0.3513E+00  0.2295E+02
     13.775  0.5088E+00  0.2309E+02
     14.048  0.3475E+00  0.2318E+02
     14.321  0.1861E+00  0.2323E+02
     14.594  0.3444E+00  0.2333E+02
     14.867  0.3302E+00  0.2342E+02
     15.140  0.4149E+00  0.2353E+02
     15.414  0.1953E+00  0.2358E+02
     15.687  0.3030E+00  0.2367E+02
     15.960  0.4436E+00  0.2379E+02
     16.233  0.3649E+00  0.2389E+02
     16.506  0.2073E+00  0.2394E+02
     16.779  0.2218E+00  0.2400E+02
     17.052  0.2838E+00  0.2408E+02
     17.325  0.1276E+00  0.2412E+02
     17.598  0.1467E+00  0.2416E+02
     17.871  0.1628E+00  0.2420E+02
     18.144  0.2692E+00  0.2427E+02
     18.417  0.5066E+00  0.2441E+02
     18.690  0.2960E+00  0.2449E+02
     18.963  0.5995E+00  0.2466E+02
     19.236  0.9595E+00  0.2492E+02
     19.509  0.7595E+00  0.2513E+02
     19.782  0.6238E+00  0.2530E+02
     20.055  0.5882E+00  0.2546E+02
     20.328  0.4723E+00  0.2559E+02
     20.601  0.6027E+00  0.2575E+02
     20.874  0.7577E+00  0.2596E+02
     21.147  0.7766E+00  0.2617E+02
     21.420  0.5688E+00  0.2633E+02
     21.693  0.9283E+00  0.2658E+02
     21.967  0.3803E+00  0.2668E+02
     22.240  0.6452E+00  0.2686E+02
     22.513  0.7595E+00  0.2707E+02
     22.786  0.5170E+00  0.2721E+02
     23.059  0.7442E+00  0.2741E+02
     23.332  0.3956E+00  0.2752E+02
     23.605  0.7228E+00  0.2772E+02
     23.878  0.4618E+00  0.2784E+02
     24.151  0.4810E+00  0.2797E+02
     24.424  0.8327E+00  0.2820E+02
     24.697  0.5163E+00  0.2834E+02
     24.970  0.6239E+00  0.2851E+02
     25.243  0.6935E+00  0.2870E+02
     25.516  0.5198E+00  0.2884E+02
     25.789  0.6582E+00  0.2902E+02
     26.062  0.1272E+01  0.2937E+02
     26.335  0.8926E+00  0.2961E+02
     26.608  0.7286E+00  0.2981E+02
     26.881  0.8269E+00  0.3004E+02
     27.154  0.6326E+00  0.3021E+02
     27.427  0.6577E+00  0.3039E+02
     27.700  0.1096E+01  0.3069E+02
     27.973  0.9188E+00  0.3094E+02
     28.246  0.1002E+01  0.3121E+02
     28.519  0.8200E+00  0.3144E+02
     28.793  0.7664E+00  0.3165E+02
     29.066  0.1033E+01  0.3193E+02
     29.339  0.1011E+01  0.3221E+02
     29.612  0.1154E+01  0.3252E+02
     29.885  0.6405E+00  0.3270E+02
     30.158  0.5025E+00  0.3283E+02
     30.431  0.7401E+00  0.3304E+02
     30.704  0.1332E+01  0.3340E+02
     30.977  0.4617E+00  0.3353E+02
     31.250  0.8956E+00  0.3377E+02
     31.523  0.1251E+01  0.3411E+02
     31.796  0.5569E+00  0.3426E+02
     32.069  0.3757E+00  0.3437E+02
     32.342  0.7261E+00  0.3456E+02
     32.615  0.9143E+00  0.3481E+02
     32.888  0.4895E+00  0.3495E+02
     33.161  0.5949E+00  0.3511E+02
     33.434  0.7363E+00  0.3531E+02
     33.707  0.8291E+00  0.3554E+02
     33.980  0.5904E+00  0.3570E+02
     34.253  0.6258E+00  0.3587E+02
     34.526  0.6208E+00  0.3604E+02
     34.799  0.5924E+00  0.3620E+02
     35.072  0.8136E+00  0.3642E+02
     35.345  0.7495E+00  0.3663E+02
     35.619  0.6576E+00  0.3681E+02
     35.892  0.8023E+00  0.3703E+02
     36.165  0.6707E+00  0.3721E+02
     36.438  0.6356E+00  0.3738E+02
     36.711  0.8345E+00  0.3761E+02
     36.984  0.9268E+00  0.3786E+02
     37.257  0.1019E+01  0.3814E+02
     37.530  0.7768E+00  0.3835E+02
     37.803  0.7439E+00  0.3856E+02
     38.076  0.9675E+00  0.3882E+02
     38.349  0.1168E+01  0.3914E+02
     38.622  0.6707E+00  0.3932E+02
     38.895  0.5825E+00  0.3948E+02
     39.168  0.1378E+01  0.3986E+02
     39.441  0.1288E+01  0.4021E+02
     39.714  0.6517E+00  0.4039E+02
     39.987  0.1176E+01  0.4071E+02
     40.260  0.7269E+00  0.4091E+02
     40.533  0.8027E+00  0.4113E+02
     40.806  0.7579E+00  0.4133E+02
     41.079  0.4887E+00  0.4147E+02
     41.352  0.6166E+00  0.4164E+02
     41.625  0.8635E+00  0.4187E+02
     41.898  0.8385E+00  0.4210E+02
     42.171  0.4663E+00  0.4223E+02
     42.445  0.7012E+00  0.4242E+02
     42.718  0.8444E+00  0.4265E+02
     42.991  0.1329E+01  0.4301E+02
     43.264  0.6720E+00  0.4320E+02
     43.537  0.7317E+00  0.4340E+02
     43.810  0.8650E+00  0.4363E+02
     44.083  0.5432E+00  0.4378E+02
     44.356  0.7369E+00  0.4398E+02
     44.629  0.7594E+00  0.4419E+02
     44.902  0.6453E+00  0.4436E+02
     45.175  0.1170E+01  0.4468E+02
     45.448  0.1009E+01  0.4496E+02
     45.721  0.1165E+01  0.4528E+02
     45.994  0.1026E+01  0.4556E+02
     46.267  0.1093E+01  0.4586E+02
     46.540  0.7992E+00  0.4607E+02
     46.813  0.9237E+00  0.4633E+02
     47.086  0.9471E+00  0.4659E+02
     47.359  0.1390E+01  0.4696E+02
     47.632  0.1165E+01  0.4728E+02
     47.905  0.1137E+01  0.4759E+02
     48.178  0.8619E+00  0.4783E+02
     48.451  0.9162E+00  0.4808E+02
     48.724  0.8803E+00  0.4832E+02
     48.997  0.1036E+01  0.4860E+02
     49.271  0.7603E+00  0.4881E+02
     49.544  0.1083E+01  0.4911E+02
     49.817  0.8215E+00  0.4933E+02
     50.090  0.4893E+00  0.4946E+02
     50.363  0.6219E+00  0.4963E+02
     50.636  0.8369E+00  0.4986E+02
     50.909  0.1329E+01  0.5022E+02
     51.182  0.9066E+00  0.5047E+02
     51.455  0.8307E+00  0.5070E+02
     51.728  0.9786E+00  0.5097E+02
     52.001  0.1031E+01  0.5125E+02
     52.274  0.1125E+01  0.5155E+02
     52.547  0.7017E+00  0.5175E+02
     52.820  0.1003E+01  0.5202E+02
     53.093  0.1118E+01  0.5233E+02
     53.366  0.1096E+01  0.5262E+02
     53.639  0.5496E+00  0.5277E+02
     53.912  0.7815E+00  0.5299E+02
     54.185  0.1367E+01  0.5336E+02
     54.458  0.1664E+01  0.5382E+02
     54.731  0.1048E+01  0.5410E+02
     55.004  0.1106E+01  0.5440E+02
     55.277  0.1463E+01  0.5480E+02
     55.550  0.7396E+00  0.5501E+02
     55.823  0.7068E+00  0.5520E+02
     56.097  0.1682E+01  0.5566E+02
     56.370  0.9765E+00  0.5592E+02
     56.643  0.7149E+00  0.5612E+02
     56.916  0.9852E+00  0.5639E+02
     57.189  0.1036E+01  0.5667E+02
     57.462  0.1568E+01  0.5710E+02
     57.735  0.1236E+01  0.5744E+02
     58.008  0.1454E+01  0.5783E+02
     58.281  0.8819E+00  0.5807E+02
     58.554  0.1173E+01  0.5840E+02
     58.827  0.1550E+01  0.5882E+02
     59.100  0.1684E+01  0.5928E+02
     59.373  0.1417E+01  0.5966E+02
     59.646  0.1112E+01  0.5997E+02
     59.919  0.9112E+00  0.6022E+02
     60.192  0.1221E+01  0.6055E+02
     60.465  0.2547E+01  0.6125E+02
     60.738  0.2159E+01  0.6184E+02
     61.011  0.1847E+01  0.6234E+02
     61.284  0.1407E+01  0.6272E+02
     61.557  0.1349E+01  0.6309E+02
     61.830  0.1698E+01  0.6356E+02
     62.103  0.2200E+01  0.6416E+02
     62.376  0.2608E+01  0.6487E+02
     62.649  0.2822E+01  0.6564E+02
     62.923  0.2206E+01  0.6624E+02
     63.196  0.1871E+01  0.6675E+02
     63.469  0.2189E+01  0.6735E+02
     63.742  0.1288E+01  0.6770E+02
     64.015  0.1097E+01  0.6800E+02
     64.288  0.1714E+01  0.6847E+02
     64.561  0.1765E+01  0.6895E+02
     64.834  0.1734E+01  0.6942E+02
     65.107  0.9882E+00  0.6969E+02
     65.380  0.1925E+01  0.7022E+02
     65.653  0.1534E+01  0.7064E+02
     65.926  0.1299E+01  0.7099E+02
     66.199  0.1410E+01  0.7138E+02
     66.472  0.1473E+01  0.7178E+02
     66.745  0.1593E+01  0.7222E+02
     67.018  0.1517E+01  0.7263E+02
     67.291  0.1185E+01  0.7295E+02
     67.564  0.1124E+01  0.7326E+02
     67.837  0.1351E+01  0.7363E+02
     68.110  0.1484E+01  0.7404E+02
     68.383  0.1719E+01  0.7450E+02
     68.656  0.1895E+01  0.7502E+02
     68.929  0.1916E+01  0.7555E+02
     69.202  0.1251E+01  0.7589E+02
     69.475  0.1434E+01  0.7628E+02
     69.749  0.1456E+01  0.7668E+02
     70.022  0.1696E+01  0.7714E+02
     70.295  0.1404E+01  0.7752E+02
     70.568  0.9274E+00  0.7778E+02
     70.841  0.1334E+01  0.7814E+02
     71.114  0.1343E+01  0.7851E+02
     71.387  0.1290E+01  0.7886E+02
     71.660  0.1049E+01  0.7914E+02
     71.933  0.1098E+01  0.7944E+02
     72.206  0.8504E+00  0.7968E+02
     72.479  0.6858E+00  0.7986E+02
     72.752  0.3554E+00  0.7996E+02
     73.025  0.7741E-01  0.7998E+02
     73.298  0.6605E-01  0.8000E+02
     73.571 -0.1029E-02  0.8000E+02
     73.844 -0.2360E-03  0.8000E+02
     74.117 -0.1473E-06  0.8000E+02
     74.390 -0.1760E-11  0.8000E+02
     74.663  0.0000E+00  0.8000E+02
     74.936  0.0000E+00  0.8000E+02
     75.209  0.0000E+00  0.8000E+02
     75.482  0.0000E+00  0.8000E+02
     75.755  0.0000E+00  0.8000E+02
     76.028  0.0000E+00  0.8000E+02
     76.301  0.0000E+00  0.8000E+02
     76.575  0.0000E+00  0.8000E+02
     76.848  0.0000E+00  0.8000E+02
