       N       E                     dE             d eps       ncg     rms          rms(c)
DAV:   1     0.606495064798E+02    0.60650E+02   -0.24965E+03  9400   0.328E+02
DAV:   2    -0.145008141211E+02   -0.75150E+02   -0.64203E+02  7888   0.970E+01
DAV:   3    -0.186014942677E+02   -0.41007E+01   -0.39302E+01  9584   0.237E+01
DAV:   4    -0.186165762566E+02   -0.15082E-01   -0.15075E-01  8920   0.149E+00
DAV:   5    -0.186165870377E+02   -0.10781E-04   -0.10779E-04  9264   0.379E-02    0.191E+01
DAV:   6    -0.159587418809E+02    0.26578E+01   -0.14376E+00 11272   0.224E+01    0.156E+00
DAV:   7    -0.158333411509E+02    0.12540E+00   -0.66899E-02  9880   0.369E+00    0.145E+00
DAV:   8    -0.157988918002E+02    0.34449E-01   -0.23438E-03 10304   0.311E-01    0.557E-01
DAV:   9    -0.157915129997E+02    0.73788E-02   -0.78191E-04 10656   0.153E-01    0.583E-02
DAV:  10    -0.157915290509E+02   -0.16051E-04   -0.23918E-05  8496   0.226E-02    0.248E-02
DAV:  11    -0.157915130267E+02    0.16024E-04   -0.27991E-07  8608   0.483E-03    0.212E-03
DAV:  12    -0.157915114001E+02    0.16267E-05   -0.88064E-08  6336   0.143E-03    0.118E-03
DAV:  13    -0.157915118012E+02   -0.40116E-06   -0.88683E-09  5272   0.453E-04
   1 F= -.15791512E+02 E0= -.15792026E+02  d E =0.154249E-02
