 vasp.6.2.0 18Jan21 (build Mar 17 2021 09:06:54) complex                        
  
 executed on             LinuxIFC date 2021.09.09  12:01:29
 serial version


--------------------------------------------------------------------------------------------------------


 INCAR:
   ENCUT = 280.000000
   SIGMA = 0.200000
   EDIFF = 1.00e-06
   GGA = PE
   PREC = normal
   IBRION = 1
   ICHARG = 1
   ISIF = 2
   ISMEAR = 1
   KPAR = 1
   NBANDS = 40
   NSW = 0
   NCORE = 1
   LCHARG = .TRUE.

 POTCAR:    PAW_PBE Fe 06Sep2000                  
 POTCAR:    PAW_PBE Fe 06Sep2000                  
   SHA256 =  cd5a22d9368cc8b5cc476bea79732366149640da08ac9009b0e1b7fc627eea28 Fe/POTCAR             
   COPYR  = (c) Copyright 06Sep2000 Georg Kresse                                                    
   COPYR  = This file is part of the software VASP. Any use, copying, and all other rights are regul
   COPYR  = If you do not have a valid VASP license, you may not use, copy or distribute this file. 
   VRHFIN =Fe:  d7 s1                                                                               
   LEXCH  = PE                                                                                      
   EATOM  =   594.3153 eV,   43.6809 Ry                                                             
                                                                                                    
   TITEL  = PAW_PBE Fe 06Sep2000                                                                    
   LULTRA =        F    use ultrasoft PP ?                                                          
   IUNSCR =        1    unscreen: 0-lin 1-nonlin 2-no                                               
   RPACOR =    2.000    partial core radius                                                         
   POMASS =   55.847; ZVAL   =    8.000    mass and valenz                                          
   RCORE  =    2.300    outmost cutoff radius                                                       
   RWIGS  =    2.460; RWIGS  =    1.302    wigner-seitz radius (au A)                               
   ENMAX  =  267.882; ENMIN  =  200.911 eV                                                          
   RCLOC  =    1.701    cutoff for local pot                                                        
   LCOR   =        T    correct aug charges                                                         
   LPAW   =        T    paw PP                                                                      
   EAUG   =  511.368                                                                                
   DEXC   =    0.000                                                                                
   RMAX   =    2.356    core radius for proj-oper                                                   
   RAUG   =    1.300    factor for augmentation sphere                                              
   RDEP   =    2.442    radius for radial grids                                                     
   RDEPT  =    1.890    core radius for aug-charge                                                  
                                                                                                    
   Atomic configuration                                                                             
    9 entries                                                                                       
     n  l   j            E        occ.                                                              
     1  0  0.50     -6993.8440   2.0000                                                             
     2  0  0.50      -814.6047   2.0000                                                             
     2  1  1.50      -693.3689   6.0000                                                             
     3  0  0.50       -89.4732   2.0000                                                             
     3  1  1.50       -55.6373   6.0000                                                             
     3  2  2.50        -3.8151   7.0000                                                             
     4  0  0.50        -4.2551   1.0000                                                             
     4  1  1.50        -3.4015   0.0000                                                             
     4  3  2.50        -1.3606   0.0000                                                             
   Description                                                                                      
     l       E           TYP  RCUT    TYP  RCUT                                                     
     2     -3.8151135     23  2.300                                                                 
     2     -5.1756961     23  2.300                                                                 
     0     -4.2550963     23  2.300                                                                 
     0      7.2035603     23  2.300                                                                 
     1     -2.7211652     23  2.300                                                                 
     1     18.4316424     23  2.300                                                                 
  local pseudopotential read in
  partial core-charges read in
  partial kinetic energy density read in
  atomic valenz-charges read in
  non local Contribution for L=           2  read in
    real space projection operators read in
  non local Contribution for L=           2  read in
    real space projection operators read in
  non local Contribution for L=           0  read in
    real space projection operators read in
  non local Contribution for L=           0  read in
    real space projection operators read in
  non local Contribution for L=           1  read in
    real space projection operators read in
  non local Contribution for L=           1  read in
    real space projection operators read in
    PAW grid and wavefunctions read in
 
   number of l-projection  operators is LMAX  =           6
   number of lm-projection operators is LMMAX =          18
 
  PAW_PBE Fe 06Sep2000                  :
 energy of atom  1       EATOM= -594.3153
 kinetic energy error for atom=    0.0278 (will be added to EATOM!!)
 
 
 POSCAR: Fe
  positions in cartesian coordinates
  No initial velocities read in
 exchange correlation table for  LEXCH =        8
   RHO(1)=    0.500       N(1)  =     2000
   RHO(2)=  100.500       N(2)  =     4000
 


--------------------------------------------------------------------------------------------------------


 ion  position               nearest neighbor table
   1  0.000  0.000  0.000-   2 2.42   2 2.42   2 2.42   2 2.42   2 2.42   2 2.42
   2  0.333  0.667  0.500-   1 2.42   1 2.42   1 2.42   1 2.42   1 2.42   1 2.42
 
  LATTYP: Found a hexagonal cell.
 ALAT       =     2.2834000000
 C/A-ratio  =     1.7772532189
  
  Lattice vectors:
  
 A1 = (   2.2834000000,   0.0000000000,   0.0000000000)
 A2 = (  -1.1417000000,   1.9774824070,   0.0000000000)
 A3 = (   0.0000000000,   0.0000000000,   4.0581800000)


Analysis of symmetry for initial positions (statically):
=====================================================================
 Subroutine PRICEL returns:
 Original cell was already a primitive cell.
 

 Routine SETGRP: Setting up the symmetry group for a 
 hexagonal supercell.


 Subroutine GETGRP returns: Found 24 space group operations
 (whereof 12 operations were pure point group operations)
 out of a pool of 24 trial point group operations.


The static configuration has the point symmetry D_3h.
 The point group associated with its full space group is D_6h.


Analysis of symmetry for dynamics (positions and initial velocities):
=====================================================================
 Subroutine PRICEL returns:
 Original cell was already a primitive cell.
 

 Routine SETGRP: Setting up the symmetry group for a 
 hexagonal supercell.


 Subroutine GETGRP returns: Found 24 space group operations
 (whereof 12 operations were pure point group operations)
 out of a pool of 24 trial point group operations.


The dynamic configuration has the point symmetry D_3h.
 The point group associated with its full space group is D_6h.


 Subroutine INISYM returns: Found 24 space group operations
 (whereof 12 operations are pure point group operations),
 and found     1 'primitive' translations


----------------------------------------------------------------------------------------

                                     Primitive cell                                     

  volume of cell :      18.3242

  direct lattice vectors                    reciprocal lattice vectors
     2.283400000  0.000000000  0.000000000     0.437943418  0.252846750  0.000000000
    -1.141700000  1.977482407  0.000000000     0.000000000  0.505693500  0.000000000
     0.000000000  0.000000000  4.058180000     0.000000000  0.000000000  0.246415881

  length of vectors
     2.283400000  2.283400000  4.058180000     0.505693500  0.505693500  0.246415881

  position of ions in fractional coordinates (direct lattice)
     0.000000000  0.000000000  0.000000000
     0.333333333  0.666666667  0.500000000

  ion indices of the primitive-cell ions
   primitive index   ion index
                 1           1
                 2           2

----------------------------------------------------------------------------------------

 
 
 KPOINTS: KPOINTS created by Atomic Simulation Env

Automatic generation of k-mesh.
 Grid dimensions read from file:
 generate k-points for:   11   11   11

 Generating k-lattice:

  Cartesian coordinates                     Fractional coordinates (reciprocal lattice)
     0.039813038  0.022986068  0.000000000     0.090909091 -0.000000000  0.000000000
     0.000000000  0.045972136  0.000000000     0.000000000  0.090909091  0.000000000
     0.000000000  0.000000000  0.022401444     0.000000000  0.000000000  0.090909091

  Length of vectors
     0.045972136  0.045972136  0.022401444

  Shift w.r.t. Gamma in fractional coordinates (k-lattice)
     0.000000000  0.000000000  0.000000000

 
 Subroutine IBZKPT returns following result:
 ===========================================
 
 Found     96 irreducible k-points:
 
 Following reciprocal coordinates:
            Coordinates               Weight
  0.000000  0.000000  0.000000      1.000000
  0.090909 -0.000000  0.000000      6.000000
  0.181818 -0.000000  0.000000      6.000000
  0.272727 -0.000000  0.000000      6.000000
  0.363636 -0.000000  0.000000      6.000000
  0.454545 -0.000000  0.000000      6.000000
  0.090909  0.090909  0.000000      6.000000
  0.181818  0.090909  0.000000     12.000000
  0.272727  0.090909  0.000000     12.000000
  0.363636  0.090909  0.000000     12.000000
  0.454545  0.090909  0.000000      6.000000
  0.181818  0.181818  0.000000      6.000000
  0.272727  0.181818  0.000000     12.000000
  0.363636  0.181818  0.000000     12.000000
  0.272727  0.272727  0.000000      6.000000
  0.363636  0.272727  0.000000      6.000000
  0.000000  0.000000  0.090909      2.000000
  0.090909 -0.000000  0.090909     12.000000
  0.181818 -0.000000  0.090909     12.000000
  0.272727 -0.000000  0.090909     12.000000
  0.363636 -0.000000  0.090909     12.000000
  0.454545 -0.000000  0.090909     12.000000
  0.090909  0.090909  0.090909     12.000000
  0.181818  0.090909  0.090909     24.000000
  0.272727  0.090909  0.090909     24.000000
  0.363636  0.090909  0.090909     24.000000
  0.454545  0.090909  0.090909     12.000000
  0.181818  0.181818  0.090909     12.000000
  0.272727  0.181818  0.090909     24.000000
  0.363636  0.181818  0.090909     24.000000
  0.272727  0.272727  0.090909     12.000000
  0.363636  0.272727  0.090909     12.000000
  0.000000  0.000000  0.181818      2.000000
  0.090909 -0.000000  0.181818     12.000000
  0.181818 -0.000000  0.181818     12.000000
  0.272727 -0.000000  0.181818     12.000000
  0.363636 -0.000000  0.181818     12.000000
  0.454545 -0.000000  0.181818     12.000000
  0.090909  0.090909  0.181818     12.000000
  0.181818  0.090909  0.181818     24.000000
  0.272727  0.090909  0.181818     24.000000
  0.363636  0.090909  0.181818     24.000000
  0.454545  0.090909  0.181818     12.000000
  0.181818  0.181818  0.181818     12.000000
  0.272727  0.181818  0.181818     24.000000
  0.363636  0.181818  0.181818     24.000000
  0.272727  0.272727  0.181818     12.000000
  0.363636  0.272727  0.181818     12.000000
  0.000000  0.000000  0.272727      2.000000
  0.090909 -0.000000  0.272727     12.000000
  0.181818 -0.000000  0.272727     12.000000
  0.272727 -0.000000  0.272727     12.000000
  0.363636 -0.000000  0.272727     12.000000
  0.454545 -0.000000  0.272727     12.000000
  0.090909  0.090909  0.272727     12.000000
  0.181818  0.090909  0.272727     24.000000
  0.272727  0.090909  0.272727     24.000000
  0.363636  0.090909  0.272727     24.000000
  0.454545  0.090909  0.272727     12.000000
  0.181818  0.181818  0.272727     12.000000
  0.272727  0.181818  0.272727     24.000000
  0.363636  0.181818  0.272727     24.000000
  0.272727  0.272727  0.272727     12.000000
  0.363636  0.272727  0.272727     12.000000
  0.000000  0.000000  0.363636      2.000000
  0.090909 -0.000000  0.363636     12.000000
  0.181818 -0.000000  0.363636     12.000000
  0.272727 -0.000000  0.363636     12.000000
  0.363636 -0.000000  0.363636     12.000000
  0.454545 -0.000000  0.363636     12.000000
  0.090909  0.090909  0.363636     12.000000
  0.181818  0.090909  0.363636     24.000000
  0.272727  0.090909  0.363636     24.000000
  0.363636  0.090909  0.363636     24.000000
  0.454545  0.090909  0.363636     12.000000
  0.181818  0.181818  0.363636     12.000000
  0.272727  0.181818  0.363636     24.000000
  0.363636  0.181818  0.363636     24.000000
  0.272727  0.272727  0.363636     12.000000
  0.363636  0.272727  0.363636     12.000000
  0.000000  0.000000  0.454545      2.000000
  0.090909 -0.000000  0.454545     12.000000
  0.181818 -0.000000  0.454545     12.000000
  0.272727 -0.000000  0.454545     12.000000
  0.363636 -0.000000  0.454545     12.000000
  0.454545 -0.000000  0.454545     12.000000
  0.090909  0.090909  0.454545     12.000000
  0.181818  0.090909  0.454545     24.000000
  0.272727  0.090909  0.454545     24.000000
  0.363636  0.090909  0.454545     24.000000
  0.454545  0.090909  0.454545     12.000000
  0.181818  0.181818  0.454545     12.000000
  0.272727  0.181818  0.454545     24.000000
  0.363636  0.181818  0.454545     24.000000
  0.272727  0.272727  0.454545     12.000000
  0.363636  0.272727  0.454545     12.000000
 
 Following cartesian coordinates:
            Coordinates               Weight
  0.000000  0.000000  0.000000      1.000000
  0.039813  0.022986  0.000000      6.000000
  0.079626  0.045972  0.000000      6.000000
  0.119439  0.068958  0.000000      6.000000
  0.159252  0.091944  0.000000      6.000000
  0.199065  0.114930  0.000000      6.000000
  0.039813  0.068958  0.000000      6.000000
  0.079626  0.091944  0.000000     12.000000
  0.119439  0.114930  0.000000     12.000000
  0.159252  0.137916  0.000000     12.000000
  0.199065  0.160902  0.000000      6.000000
  0.079626  0.137916  0.000000      6.000000
  0.119439  0.160902  0.000000     12.000000
  0.159252  0.183889  0.000000     12.000000
  0.119439  0.206875  0.000000      6.000000
  0.159252  0.229861  0.000000      6.000000
  0.000000  0.000000  0.022401      2.000000
  0.039813  0.022986  0.022401     12.000000
  0.079626  0.045972  0.022401     12.000000
  0.119439  0.068958  0.022401     12.000000
  0.159252  0.091944  0.022401     12.000000
  0.199065  0.114930  0.022401     12.000000
  0.039813  0.068958  0.022401     12.000000
  0.079626  0.091944  0.022401     24.000000
  0.119439  0.114930  0.022401     24.000000
  0.159252  0.137916  0.022401     24.000000
  0.199065  0.160902  0.022401     12.000000
  0.079626  0.137916  0.022401     12.000000
  0.119439  0.160902  0.022401     24.000000
  0.159252  0.183889  0.022401     24.000000
  0.119439  0.206875  0.022401     12.000000
  0.159252  0.229861  0.022401     12.000000
  0.000000  0.000000  0.044803      2.000000
  0.039813  0.022986  0.044803     12.000000
  0.079626  0.045972  0.044803     12.000000
  0.119439  0.068958  0.044803     12.000000
  0.159252  0.091944  0.044803     12.000000
  0.199065  0.114930  0.044803     12.000000
  0.039813  0.068958  0.044803     12.000000
  0.079626  0.091944  0.044803     24.000000
  0.119439  0.114930  0.044803     24.000000
  0.159252  0.137916  0.044803     24.000000
  0.199065  0.160902  0.044803     12.000000
  0.079626  0.137916  0.044803     12.000000
  0.119439  0.160902  0.044803     24.000000
  0.159252  0.183889  0.044803     24.000000
  0.119439  0.206875  0.044803     12.000000
  0.159252  0.229861  0.044803     12.000000
  0.000000  0.000000  0.067204      2.000000
  0.039813  0.022986  0.067204     12.000000
  0.079626  0.045972  0.067204     12.000000
  0.119439  0.068958  0.067204     12.000000
  0.159252  0.091944  0.067204     12.000000
  0.199065  0.114930  0.067204     12.000000
  0.039813  0.068958  0.067204     12.000000
  0.079626  0.091944  0.067204     24.000000
  0.119439  0.114930  0.067204     24.000000
  0.159252  0.137916  0.067204     24.000000
  0.199065  0.160902  0.067204     12.000000
  0.079626  0.137916  0.067204     12.000000
  0.119439  0.160902  0.067204     24.000000
  0.159252  0.183889  0.067204     24.000000
  0.119439  0.206875  0.067204     12.000000
  0.159252  0.229861  0.067204     12.000000
  0.000000  0.000000  0.089606      2.000000
  0.039813  0.022986  0.089606     12.000000
  0.079626  0.045972  0.089606     12.000000
  0.119439  0.068958  0.089606     12.000000
  0.159252  0.091944  0.089606     12.000000
  0.199065  0.114930  0.089606     12.000000
  0.039813  0.068958  0.089606     12.000000
  0.079626  0.091944  0.089606     24.000000
  0.119439  0.114930  0.089606     24.000000
  0.159252  0.137916  0.089606     24.000000
  0.199065  0.160902  0.089606     12.000000
  0.079626  0.137916  0.089606     12.000000
  0.119439  0.160902  0.089606     24.000000
  0.159252  0.183889  0.089606     24.000000
  0.119439  0.206875  0.089606     12.000000
  0.159252  0.229861  0.089606     12.000000
  0.000000  0.000000  0.112007      2.000000
  0.039813  0.022986  0.112007     12.000000
  0.079626  0.045972  0.112007     12.000000
  0.119439  0.068958  0.112007     12.000000
  0.159252  0.091944  0.112007     12.000000
  0.199065  0.114930  0.112007     12.000000
  0.039813  0.068958  0.112007     12.000000
  0.079626  0.091944  0.112007     24.000000
  0.119439  0.114930  0.112007     24.000000
  0.159252  0.137916  0.112007     24.000000
  0.199065  0.160902  0.112007     12.000000
  0.079626  0.137916  0.112007     12.000000
  0.119439  0.160902  0.112007     24.000000
  0.159252  0.183889  0.112007     24.000000
  0.119439  0.206875  0.112007     12.000000
  0.159252  0.229861  0.112007     12.000000
 


--------------------------------------------------------------------------------------------------------




 Dimension of arrays:
   k-points           NKPTS =     96   k-points in BZ     NKDIM =     96   number of bands    NBANDS=     40
   number of dos      NEDOS =    301   number of ions     NIONS =      2
   non local maximal  LDIM  =      6   non local SUM 2l+1 LMDIM =     18
   total plane-waves  NPLWV =   1800
   max r-space proj   IRMAX =      1   max aug-charges    IRDMAX=   3698
   dimension x,y,z NGX =    10 NGY =   10 NGZ =   18
   dimension x,y,z NGXF=    20 NGYF=   20 NGZF=   36
   support grid    NGXF=    20 NGYF=   20 NGZF=   36
   ions per type =               2
   NGX,Y,Z   is equivalent  to a cutoff of   7.28,  7.28,  7.37 a.u.
   NGXF,Y,Z  is equivalent  to a cutoff of  14.56, 14.56, 14.75 a.u.

 SYSTEM =  unknown system                          
 POSCAR =  Fe                                      

 Startparameter for this run:
   NWRITE =      2    write-flag & timer
   PREC   = normal    normal or accurate (medium, high low for compatibility)
   ISTART =      0    job   : 0-new  1-cont  2-samecut
   ICHARG =      1    charge: 1-file 2-atom 10-const
   ISPIN  =      1    spin polarized calculation?
   LNONCOLLINEAR =      F non collinear calculations
   LSORBIT =      F    spin-orbit coupling
   INIWAV =      1    electr: 0-lowe 1-rand  2-diag
   LASPH  =      F    aspherical Exc in radial PAW
   METAGGA=      F    non-selfconsistent MetaGGA calc.

 Electronic Relaxation 1
   ENCUT  =  280.0 eV  20.58 Ry    4.54 a.u.   3.12  3.12  5.54*2*pi/ulx,y,z
   ENINI  =  280.0     initial cutoff
   ENAUG  =  511.4 eV  augmentation charge cutoff
   NELM   =     60;   NELMIN=  2; NELMDL= -5     # of ELM steps 
   EDIFF  = 0.1E-05   stopping-criterion for ELM
   LREAL  =      F    real-space projection
   NLSPLINE    = F    spline interpolate recip. space projectors
   LCOMPAT=      F    compatible to vasp.4.4
   GGA_COMPAT  = T    GGA compatible to vasp.4.4-vasp.4.6
   LMAXPAW     = -100 max onsite density
   LMAXMIX     =    2 max onsite mixed and CHGCAR
   VOSKOWN=      0    Vosko Wilk Nusair interpolation
   ROPT   =    0.00000
 Ionic relaxation
   EDIFFG = 0.1E-04   stopping-criterion for IOM
   NSW    =      0    number of steps for IOM
   NBLOCK =      1;   KBLOCK =      1    inner block; outer block 
   IBRION =     -1    ionic relax: 0-MD 1-quasi-New 2-CG
   NFREE  =      0    steps in history (QN), initial steepest desc. (CG)
   ISIF   =      2    stress and relaxation
   IWAVPR =      0    prediction:  0-non 1-charg 2-wave 3-comb
   ISYM   =      2    0-nonsym 1-usesym 2-fastsym
   LCORR  =      T    Harris-Foulkes like correction to forces

   POTIM  = 0.5000    time-step for ionic-motion
   TEIN   =    0.0    initial temperature
   TEBEG  =    0.0;   TEEND  =   0.0 temperature during run
   SMASS  =  -3.00    Nose mass-parameter (am)
   estimated Nose-frequenzy (Omega)   =  0.10E-29 period in steps = 0.13E+47 mass=  -0.119E-27a.u.
   SCALEE = 1.0000    scale energy and forces
   NPACO  =    256;   APACO  = 16.0  distance and # of slots for P.C.
   PSTRESS=    0.0 pullay stress

  Mass of Ions in am
   POMASS =  55.85
  Ionic Valenz
   ZVAL   =   8.00
  Atomic Wigner-Seitz radii
   RWIGS  =  -1.00
  virtual crystal weights 
   VCA    =   1.00
   NELECT =      16.0000    total number of electrons
   NUPDOWN=      -1.0000    fix difference up-down

 DOS related values:
   EMIN   =  10.00;   EMAX   =-10.00  energy-range for DOS
   EFERMI =   0.00
   ISMEAR =     1;   SIGMA  =   0.20  broadening in eV -4-tet -1-fermi 0-gaus

 Electronic relaxation 2 (details)
   IALGO  =     38    algorithm
   LDIAG  =      T    sub-space diagonalisation (order eigenvalues)
   LSUBROT=      F    optimize rotation matrix (better conditioning)
   TURBO    =      0    0=normal 1=particle mesh
   IRESTART =      0    0=no restart 2=restart with 2 vectors
   NREBOOT  =      0    no. of reboots
   NMIN     =      0    reboot dimension
   EREF     =   0.00    reference energy to select bands
   IMIX   =      4    mixing-type and parameters
     AMIX     =   0.40;   BMIX     =  1.00
     AMIX_MAG =   1.60;   BMIX_MAG =  1.00
     AMIN     =   0.10
     WC   =   100.;   INIMIX=   1;  MIXPRE=   1;  MAXMIX= -45

 Intra band minimization:
   WEIMIN = 0.0000     energy-eigenvalue tresh-hold
   EBREAK =  0.62E-08  absolut break condition
   DEPER  =   0.30     relativ break condition  

   TIME   =   0.40     timestep for ELM

  volume/ion in A,a.u.               =       9.16        61.83
  Fermi-wavevector in a.u.,A,eV,Ry     =   1.564730  2.956912 33.312248  2.448381
  Thomas-Fermi vector in A             =   2.667311
 
 Write flags
   LWAVE        =      T    write WAVECAR
   LDOWNSAMPLE  =      F    k-point downsampling of WAVECAR
   LCHARG       =      T    write CHGCAR
   LVTOT        =      F    write LOCPOT, total local potential
   LVHAR        =      F    write LOCPOT, Hartree potential only
   LELF         =      F    write electronic localiz. function (ELF)
   LORBIT       =      0    0 simple, 1 ext, 2 COOP (PROOUT), +10 PAW based schemes


 Dipole corrections
   LMONO  =      F    monopole corrections only (constant potential shift)
   LDIPOL =      F    correct potential (dipole corrections)
   IDIPOL =      0    1-x, 2-y, 3-z, 4-all directions 
   EPSILON=  1.0000000 bulk dielectric constant

 Exchange correlation treatment:
   GGA     =    PE    GGA type
   LEXCH   =     8    internal setting for exchange type
   VOSKOWN=      0    Vosko Wilk Nusair interpolation
   LHFCALC =     F    Hartree Fock is set to
   LHFONE  =     F    Hartree Fock one center treatment
   AEXX    =    0.0000 exact exchange contribution

 Linear response parameters
   LEPSILON=     F    determine dielectric tensor
   LRPA    =     F    only Hartree local field effects (RPA)
   LNABLA  =     F    use nabla operator in PAW spheres
   LVEL    =     F    velocity operator in full k-point grid
   LINTERFAST=   F  fast interpolation
   KINTER  =     0    interpolate to denser k-point grid
   CSHIFT  =0.1000    complex shift for real part using Kramers Kronig
   OMEGAMAX=  -1.0    maximum frequency
   DEG_THRESHOLD= 0.2000000E-02 threshold for treating states as degnerate
   RTIME   =   -0.100 relaxation time in fs
  (WPLASMAI=    0.000 imaginary part of plasma frequency in eV, 0.658/RTIME)
   DFIELD  = 0.0000000 0.0000000 0.0000000 field for delta impulse in time
 
 Orbital magnetization related:
   ORBITALMAG=     F  switch on orbital magnetization
   LCHIMAG   =     F  perturbation theory with respect to B field
   DQ        =  0.001000  dq finite difference perturbation B field
   LLRAUG    =     F  two centre corrections for induced B field



--------------------------------------------------------------------------------------------------------


 Static calculation
 charge density and potential will be updated during run
 non-spin polarized calculation
 Variant of blocked Davidson
 Davidson routine will perform the subspace rotation
 perform sub-space diagonalisation
    after iterative eigenvector-optimisation
 modified Broyden-mixing scheme, WC =      100.0
 initial mixing is a Kerker type mixing with AMIX =  0.4000 and BMIX =      1.0000
 Hartree-type preconditioning will be used
 using additional bands           32
 reciprocal scheme for non local part
 use partial core corrections
 calculate Harris-corrections to forces 
   (improved forces if not selfconsistent)
 use gradient corrections 
 use of overlap-Matrix (Vanderbilt PP)
 Methfessel and Paxton  Order N= 1 SIGMA  =   0.20


--------------------------------------------------------------------------------------------------------


  energy-cutoff  :      280.00
  volume of cell :       18.32
      direct lattice vectors                 reciprocal lattice vectors
     2.283400000  0.000000000  0.000000000     0.437943418  0.252846750  0.000000000
    -1.141700000  1.977482407  0.000000000     0.000000000  0.505693500  0.000000000
     0.000000000  0.000000000  4.058180000     0.000000000  0.000000000  0.246415881

  length of vectors
     2.283400000  2.283400000  4.058180000     0.505693500  0.505693500  0.246415881


 
 k-points in units of 2pi/SCALE and weight: KPOINTS created by Atomic Simulation Env
   0.00000000  0.00000000  0.00000000       0.001
   0.03981304  0.02298607  0.00000000       0.005
   0.07962608  0.04597214  0.00000000       0.005
   0.11943911  0.06895820  0.00000000       0.005
   0.15925215  0.09194427  0.00000000       0.005
   0.19906519  0.11493034  0.00000000       0.005
   0.03981304  0.06895820  0.00000000       0.005
   0.07962608  0.09194427  0.00000000       0.009
   0.11943911  0.11493034  0.00000000       0.009
   0.15925215  0.13791641  0.00000000       0.009
   0.19906519  0.16090248  0.00000000       0.005
   0.07962608  0.13791641  0.00000000       0.005
   0.11943911  0.16090248  0.00000000       0.009
   0.15925215  0.18388855  0.00000000       0.009
   0.11943911  0.20687461  0.00000000       0.005
   0.15925215  0.22986068  0.00000000       0.005
   0.00000000  0.00000000  0.02240144       0.002
   0.03981304  0.02298607  0.02240144       0.009
   0.07962608  0.04597214  0.02240144       0.009
   0.11943911  0.06895820  0.02240144       0.009
   0.15925215  0.09194427  0.02240144       0.009
   0.19906519  0.11493034  0.02240144       0.009
   0.03981304  0.06895820  0.02240144       0.009
   0.07962608  0.09194427  0.02240144       0.018
   0.11943911  0.11493034  0.02240144       0.018
   0.15925215  0.13791641  0.02240144       0.018
   0.19906519  0.16090248  0.02240144       0.009
   0.07962608  0.13791641  0.02240144       0.009
   0.11943911  0.16090248  0.02240144       0.018
   0.15925215  0.18388855  0.02240144       0.018
   0.11943911  0.20687461  0.02240144       0.009
   0.15925215  0.22986068  0.02240144       0.009
   0.00000000  0.00000000  0.04480289       0.002
   0.03981304  0.02298607  0.04480289       0.009
   0.07962608  0.04597214  0.04480289       0.009
   0.11943911  0.06895820  0.04480289       0.009
   0.15925215  0.09194427  0.04480289       0.009
   0.19906519  0.11493034  0.04480289       0.009
   0.03981304  0.06895820  0.04480289       0.009
   0.07962608  0.09194427  0.04480289       0.018
   0.11943911  0.11493034  0.04480289       0.018
   0.15925215  0.13791641  0.04480289       0.018
   0.19906519  0.16090248  0.04480289       0.009
   0.07962608  0.13791641  0.04480289       0.009
   0.11943911  0.16090248  0.04480289       0.018
   0.15925215  0.18388855  0.04480289       0.018
   0.11943911  0.20687461  0.04480289       0.009
   0.15925215  0.22986068  0.04480289       0.009
   0.00000000  0.00000000  0.06720433       0.002
   0.03981304  0.02298607  0.06720433       0.009
   0.07962608  0.04597214  0.06720433       0.009
   0.11943911  0.06895820  0.06720433       0.009
   0.15925215  0.09194427  0.06720433       0.009
   0.19906519  0.11493034  0.06720433       0.009
   0.03981304  0.06895820  0.06720433       0.009
   0.07962608  0.09194427  0.06720433       0.018
   0.11943911  0.11493034  0.06720433       0.018
   0.15925215  0.13791641  0.06720433       0.018
   0.19906519  0.16090248  0.06720433       0.009
   0.07962608  0.13791641  0.06720433       0.009
   0.11943911  0.16090248  0.06720433       0.018
   0.15925215  0.18388855  0.06720433       0.018
   0.11943911  0.20687461  0.06720433       0.009
   0.15925215  0.22986068  0.06720433       0.009
   0.00000000  0.00000000  0.08960577       0.002
   0.03981304  0.02298607  0.08960577       0.009
   0.07962608  0.04597214  0.08960577       0.009
   0.11943911  0.06895820  0.08960577       0.009
   0.15925215  0.09194427  0.08960577       0.009
   0.19906519  0.11493034  0.08960577       0.009
   0.03981304  0.06895820  0.08960577       0.009
   0.07962608  0.09194427  0.08960577       0.018
   0.11943911  0.11493034  0.08960577       0.018
   0.15925215  0.13791641  0.08960577       0.018
   0.19906519  0.16090248  0.08960577       0.009
   0.07962608  0.13791641  0.08960577       0.009
   0.11943911  0.16090248  0.08960577       0.018
   0.15925215  0.18388855  0.08960577       0.018
   0.11943911  0.20687461  0.08960577       0.009
   0.15925215  0.22986068  0.08960577       0.009
   0.00000000  0.00000000  0.11200722       0.002
   0.03981304  0.02298607  0.11200722       0.009
   0.07962608  0.04597214  0.11200722       0.009
   0.11943911  0.06895820  0.11200722       0.009
   0.15925215  0.09194427  0.11200722       0.009
   0.19906519  0.11493034  0.11200722       0.009
   0.03981304  0.06895820  0.11200722       0.009
   0.07962608  0.09194427  0.11200722       0.018
   0.11943911  0.11493034  0.11200722       0.018
   0.15925215  0.13791641  0.11200722       0.018
   0.19906519  0.16090248  0.11200722       0.009
   0.07962608  0.13791641  0.11200722       0.009
   0.11943911  0.16090248  0.11200722       0.018
   0.15925215  0.18388855  0.11200722       0.018
   0.11943911  0.20687461  0.11200722       0.009
   0.15925215  0.22986068  0.11200722       0.009
 
 k-points in reciprocal lattice and weights: KPOINTS created by Atomic Simulation Env
   0.00000000  0.00000000  0.00000000       0.001
   0.09090909 -0.00000000  0.00000000       0.005
   0.18181818 -0.00000000  0.00000000       0.005
   0.27272727 -0.00000000  0.00000000       0.005
   0.36363636 -0.00000000  0.00000000       0.005
   0.45454545 -0.00000000  0.00000000       0.005
   0.09090909  0.09090909  0.00000000       0.005
   0.18181818  0.09090909  0.00000000       0.009
   0.27272727  0.09090909  0.00000000       0.009
   0.36363636  0.09090909  0.00000000       0.009
   0.45454545  0.09090909  0.00000000       0.005
   0.18181818  0.18181818  0.00000000       0.005
   0.27272727  0.18181818  0.00000000       0.009
   0.36363636  0.18181818  0.00000000       0.009
   0.27272727  0.27272727  0.00000000       0.005
   0.36363636  0.27272727  0.00000000       0.005
   0.00000000  0.00000000  0.09090909       0.002
   0.09090909 -0.00000000  0.09090909       0.009
   0.18181818 -0.00000000  0.09090909       0.009
   0.27272727 -0.00000000  0.09090909       0.009
   0.36363636 -0.00000000  0.09090909       0.009
   0.45454545 -0.00000000  0.09090909       0.009
   0.09090909  0.09090909  0.09090909       0.009
   0.18181818  0.09090909  0.09090909       0.018
   0.27272727  0.09090909  0.09090909       0.018
   0.36363636  0.09090909  0.09090909       0.018
   0.45454545  0.09090909  0.09090909       0.009
   0.18181818  0.18181818  0.09090909       0.009
   0.27272727  0.18181818  0.09090909       0.018
   0.36363636  0.18181818  0.09090909       0.018
   0.27272727  0.27272727  0.09090909       0.009
   0.36363636  0.27272727  0.09090909       0.009
   0.00000000  0.00000000  0.18181818       0.002
   0.09090909 -0.00000000  0.18181818       0.009
   0.18181818 -0.00000000  0.18181818       0.009
   0.27272727 -0.00000000  0.18181818       0.009
   0.36363636 -0.00000000  0.18181818       0.009
   0.45454545 -0.00000000  0.18181818       0.009
   0.09090909  0.09090909  0.18181818       0.009
   0.18181818  0.09090909  0.18181818       0.018
   0.27272727  0.09090909  0.18181818       0.018
   0.36363636  0.09090909  0.18181818       0.018
   0.45454545  0.09090909  0.18181818       0.009
   0.18181818  0.18181818  0.18181818       0.009
   0.27272727  0.18181818  0.18181818       0.018
   0.36363636  0.18181818  0.18181818       0.018
   0.27272727  0.27272727  0.18181818       0.009
   0.36363636  0.27272727  0.18181818       0.009
   0.00000000  0.00000000  0.27272727       0.002
   0.09090909 -0.00000000  0.27272727       0.009
   0.18181818 -0.00000000  0.27272727       0.009
   0.27272727 -0.00000000  0.27272727       0.009
   0.36363636 -0.00000000  0.27272727       0.009
   0.45454545 -0.00000000  0.27272727       0.009
   0.09090909  0.09090909  0.27272727       0.009
   0.18181818  0.09090909  0.27272727       0.018
   0.27272727  0.09090909  0.27272727       0.018
   0.36363636  0.09090909  0.27272727       0.018
   0.45454545  0.09090909  0.27272727       0.009
   0.18181818  0.18181818  0.27272727       0.009
   0.27272727  0.18181818  0.27272727       0.018
   0.36363636  0.18181818  0.27272727       0.018
   0.27272727  0.27272727  0.27272727       0.009
   0.36363636  0.27272727  0.27272727       0.009
   0.00000000  0.00000000  0.36363636       0.002
   0.09090909 -0.00000000  0.36363636       0.009
   0.18181818 -0.00000000  0.36363636       0.009
   0.27272727 -0.00000000  0.36363636       0.009
   0.36363636 -0.00000000  0.36363636       0.009
   0.45454545 -0.00000000  0.36363636       0.009
   0.09090909  0.09090909  0.36363636       0.009
   0.18181818  0.09090909  0.36363636       0.018
   0.27272727  0.09090909  0.36363636       0.018
   0.36363636  0.09090909  0.36363636       0.018
   0.45454545  0.09090909  0.36363636       0.009
   0.18181818  0.18181818  0.36363636       0.009
   0.27272727  0.18181818  0.36363636       0.018
   0.36363636  0.18181818  0.36363636       0.018
   0.27272727  0.27272727  0.36363636       0.009
   0.36363636  0.27272727  0.36363636       0.009
   0.00000000  0.00000000  0.45454545       0.002
   0.09090909 -0.00000000  0.45454545       0.009
   0.18181818 -0.00000000  0.45454545       0.009
   0.27272727 -0.00000000  0.45454545       0.009
   0.36363636 -0.00000000  0.45454545       0.009
   0.45454545 -0.00000000  0.45454545       0.009
   0.09090909  0.09090909  0.45454545       0.009
   0.18181818  0.09090909  0.45454545       0.018
   0.27272727  0.09090909  0.45454545       0.018
   0.36363636  0.09090909  0.45454545       0.018
   0.45454545  0.09090909  0.45454545       0.009
   0.18181818  0.18181818  0.45454545       0.009
   0.27272727  0.18181818  0.45454545       0.018
   0.36363636  0.18181818  0.45454545       0.018
   0.27272727  0.27272727  0.45454545       0.009
   0.36363636  0.27272727  0.45454545       0.009
 
 position of ions in fractional coordinates (direct lattice) 
   0.00000000  0.00000000  0.00000000
   0.33333333  0.66666667  0.50000000
 
 position of ions in cartesian coordinates  (Angst):
   0.00000000  0.00000000  0.00000000
   0.00000000  1.31832160  2.02909000
 


--------------------------------------------------------------------------------------------------------


 k-point   1 :   0.0000 0.0000 0.0000  plane waves:     209
 k-point   2 :   0.0909-0.0000 0.0000  plane waves:     193
 k-point   3 :   0.1818-0.0000 0.0000  plane waves:     197
 k-point   4 :   0.2727-0.0000 0.0000  plane waves:     189
 k-point   5 :   0.3636-0.0000 0.0000  plane waves:     196
 k-point   6 :   0.4545-0.0000 0.0000  plane waves:     200
 k-point   7 :   0.0909 0.0909 0.0000  plane waves:     197
 k-point   8 :   0.1818 0.0909 0.0000  plane waves:     194
 k-point   9 :   0.2727 0.0909 0.0000  plane waves:     195
 k-point  10 :   0.3636 0.0909 0.0000  plane waves:     193
 k-point  11 :   0.4545 0.0909 0.0000  plane waves:     196
 k-point  12 :   0.1818 0.1818 0.0000  plane waves:     189
 k-point  13 :   0.2727 0.1818 0.0000  plane waves:     197
 k-point  14 :   0.3636 0.1818 0.0000  plane waves:     197
 k-point  15 :   0.2727 0.2727 0.0000  plane waves:     199
 k-point  16 :   0.3636 0.2727 0.0000  plane waves:     199
 k-point  17 :   0.0000 0.0000 0.0909  plane waves:     197
 k-point  18 :   0.0909-0.0000 0.0909  plane waves:     193
 k-point  19 :   0.1818-0.0000 0.0909  plane waves:     195
 k-point  20 :   0.2727-0.0000 0.0909  plane waves:     194
 k-point  21 :   0.3636-0.0000 0.0909  plane waves:     196
 k-point  22 :   0.4545-0.0000 0.0909  plane waves:     198
 k-point  23 :   0.0909 0.0909 0.0909  plane waves:     194
 k-point  24 :   0.1818 0.0909 0.0909  plane waves:     194
 k-point  25 :   0.2727 0.0909 0.0909  plane waves:     192
 k-point  26 :   0.3636 0.0909 0.0909  plane waves:     198
 k-point  27 :   0.4545 0.0909 0.0909  plane waves:     197
 k-point  28 :   0.1818 0.1818 0.0909  plane waves:     193
 k-point  29 :   0.2727 0.1818 0.0909  plane waves:     195
 k-point  30 :   0.3636 0.1818 0.0909  plane waves:     200
 k-point  31 :   0.2727 0.2727 0.0909  plane waves:     199
 k-point  32 :   0.3636 0.2727 0.0909  plane waves:     200
 k-point  33 :   0.0000 0.0000 0.1818  plane waves:     191
 k-point  34 :   0.0909-0.0000 0.1818  plane waves:     189
 k-point  35 :   0.1818-0.0000 0.1818  plane waves:     197
 k-point  36 :   0.2727-0.0000 0.1818  plane waves:     195
 k-point  37 :   0.3636-0.0000 0.1818  plane waves:     195
 k-point  38 :   0.4545-0.0000 0.1818  plane waves:     197
 k-point  39 :   0.0909 0.0909 0.1818  plane waves:     190
 k-point  40 :   0.1818 0.0909 0.1818  plane waves:     193
 k-point  41 :   0.2727 0.0909 0.1818  plane waves:     195
 k-point  42 :   0.3636 0.0909 0.1818  plane waves:     198
 k-point  43 :   0.4545 0.0909 0.1818  plane waves:     195
 k-point  44 :   0.1818 0.1818 0.1818  plane waves:     193
 k-point  45 :   0.2727 0.1818 0.1818  plane waves:     194
 k-point  46 :   0.3636 0.1818 0.1818  plane waves:     201
 k-point  47 :   0.2727 0.2727 0.1818  plane waves:     200
 k-point  48 :   0.3636 0.2727 0.1818  plane waves:     200
 k-point  49 :   0.0000 0.0000 0.2727  plane waves:     185
 k-point  50 :   0.0909-0.0000 0.2727  plane waves:     188
 k-point  51 :   0.1818-0.0000 0.2727  plane waves:     190
 k-point  52 :   0.2727-0.0000 0.2727  plane waves:     192
 k-point  53 :   0.3636-0.0000 0.2727  plane waves:     192
 k-point  54 :   0.4545-0.0000 0.2727  plane waves:     197
 k-point  55 :   0.0909 0.0909 0.2727  plane waves:     188
 k-point  56 :   0.1818 0.0909 0.2727  plane waves:     192
 k-point  57 :   0.2727 0.0909 0.2727  plane waves:     195
 k-point  58 :   0.3636 0.0909 0.2727  plane waves:     197
 k-point  59 :   0.4545 0.0909 0.2727  plane waves:     194
 k-point  60 :   0.1818 0.1818 0.2727  plane waves:     195
 k-point  61 :   0.2727 0.1818 0.2727  plane waves:     200
 k-point  62 :   0.3636 0.1818 0.2727  plane waves:     202
 k-point  63 :   0.2727 0.2727 0.2727  plane waves:     197
 k-point  64 :   0.3636 0.2727 0.2727  plane waves:     198
 k-point  65 :   0.0000 0.0000 0.3636  plane waves:     191
 k-point  66 :   0.0909-0.0000 0.3636  plane waves:     188
 k-point  67 :   0.1818-0.0000 0.3636  plane waves:     187
 k-point  68 :   0.2727-0.0000 0.3636  plane waves:     187
 k-point  69 :   0.3636-0.0000 0.3636  plane waves:     195
 k-point  70 :   0.4545-0.0000 0.3636  plane waves:     197
 k-point  71 :   0.0909 0.0909 0.3636  plane waves:     190
 k-point  72 :   0.1818 0.0909 0.3636  plane waves:     189
 k-point  73 :   0.2727 0.0909 0.3636  plane waves:     193
 k-point  74 :   0.3636 0.0909 0.3636  plane waves:     198
 k-point  75 :   0.4545 0.0909 0.3636  plane waves:     194
 k-point  76 :   0.1818 0.1818 0.3636  plane waves:     194
 k-point  77 :   0.2727 0.1818 0.3636  plane waves:     199
 k-point  78 :   0.3636 0.1818 0.3636  plane waves:     196
 k-point  79 :   0.2727 0.2727 0.3636  plane waves:     203
 k-point  80 :   0.3636 0.2727 0.3636  plane waves:     203
 k-point  81 :   0.0000 0.0000 0.4545  plane waves:     191
 k-point  82 :   0.0909-0.0000 0.4545  plane waves:     190
 k-point  83 :   0.1818-0.0000 0.4545  plane waves:     187
 k-point  84 :   0.2727-0.0000 0.4545  plane waves:     189
 k-point  85 :   0.3636-0.0000 0.4545  plane waves:     197
 k-point  86 :   0.4545-0.0000 0.4545  plane waves:     194
 k-point  87 :   0.0909 0.0909 0.4545  plane waves:     186
 k-point  88 :   0.1818 0.0909 0.4545  plane waves:     189
 k-point  89 :   0.2727 0.0909 0.4545  plane waves:     197
 k-point  90 :   0.3636 0.0909 0.4545  plane waves:     197
 k-point  91 :   0.4545 0.0909 0.4545  plane waves:     194
 k-point  92 :   0.1818 0.1818 0.4545  plane waves:     195
 k-point  93 :   0.2727 0.1818 0.4545  plane waves:     196
 k-point  94 :   0.3636 0.1818 0.4545  plane waves:     194
 k-point  95 :   0.2727 0.2727 0.4545  plane waves:     198
 k-point  96 :   0.3636 0.2727 0.4545  plane waves:     202

 maximum number of plane-waves:       209
 maximum index in each direction: 
   IXMAX=    3   IYMAX=    3   IZMAX=    5
   IXMIN=   -3   IYMIN=   -3   IZMIN=   -5


 total amount of memory used by VASP MPI-rank0    48790. kBytes
=======================================================================

   base      :      30000. kBytes
   nonl-proj :       2895. kBytes
   grid      :        812. kBytes
   one-center:         31. kBytes
   wavefun   :      15052. kBytes
 
     INWAV:  cpu time    0.0000: real time    0.0000
 Broyden mixing: mesh for mixing (old mesh)
   NGX =  7   NGY =  7   NGZ = 11
  (NGX  = 20   NGY  = 20   NGZ  = 36)
  gives a total of    539 points

 initial charge density was supplied:
 charge density of overlapping atoms calculated
 number of electron      16.0000000 magnetization 
 keeping initial charge density in first step


--------------------------------------------------------------------------------------------------------


 Maximum index for augmentation-charges         3384 (set IRDMAX)


--------------------------------------------------------------------------------------------------------


 First call to EWALD:  gamma=   0.672
 Maximum number of real-space cells 3x 3x 2
 Maximum number of reciprocal cells 2x 2x 4

    FEWALD:  cpu time    0.0009: real time    0.0009


--------------------------------------- Iteration      1(   1)  ---------------------------------------


    POTLOK:  cpu time    0.0036: real time    0.0036
    SETDIJ:  cpu time    0.0023: real time    0.0023
     EDDAV:  cpu time    0.7894: real time    0.8083
       DOS:  cpu time    0.0052: real time    0.0052
    --------------------------------------------
      LOOP:  cpu time    0.8004: real time    0.8193

 eigenvalue-minimisations  :  9400
 total energy-change (2. order) : 0.6064951E+02  (-0.2496511E+03)
 number of electron      16.0000000 magnetization 
 augmentation part       16.0000000 magnetization 

 Free energy of the ion-electron system (eV)
  ---------------------------------------------------
  alpha Z        PSCENC =       150.86853775
  Ewald energy   TEWEN  =     -1270.65653348
  -Hartree energ DENC   =      -192.07748275
  -exchange      EXHF   =         0.00000000
  -V(xc)+E(xc)   XCENC  =         9.19625102
  PAW double counting   =      1109.69170683    -1125.09647265
  entropy T*S    EENTRO =         0.00077772
  eigenvalues    EBANDS =       190.14781393
  atomic energy  EATOM  =      1188.57490811
  Solvation  Ediel_sol  =         0.00000000
  ---------------------------------------------------
  free energy    TOTEN  =        60.64950648 eV

  energy without entropy =       60.64872876  energy(sigma->0) =       60.64924724


--------------------------------------------------------------------------------------------------------




--------------------------------------- Iteration      1(   2)  ---------------------------------------


     EDDAV:  cpu time    0.6829: real time    0.6830
       DOS:  cpu time    0.0060: real time    0.0060
    --------------------------------------------
      LOOP:  cpu time    0.6890: real time    0.6890

 eigenvalue-minimisations  :  7888
 total energy-change (2. order) :-0.7515032E+02  (-0.6420293E+02)
 number of electron      16.0000000 magnetization 
 augmentation part       16.0000000 magnetization 

 Free energy of the ion-electron system (eV)
  ---------------------------------------------------
  alpha Z        PSCENC =       150.86853775
  Ewald energy   TEWEN  =     -1270.65653348
  -Hartree energ DENC   =      -192.07748275
  -exchange      EXHF   =         0.00000000
  -V(xc)+E(xc)   XCENC  =         9.19625102
  PAW double counting   =      1109.69170683    -1125.09647265
  entropy T*S    EENTRO =         0.00144561
  eigenvalues    EBANDS =       114.99682543
  atomic energy  EATOM  =      1188.57490811
  Solvation  Ediel_sol  =         0.00000000
  ---------------------------------------------------
  free energy    TOTEN  =       -14.50081412 eV

  energy without entropy =      -14.50225974  energy(sigma->0) =      -14.50129599


--------------------------------------------------------------------------------------------------------




--------------------------------------- Iteration      1(   3)  ---------------------------------------


     EDDAV:  cpu time    0.7846: real time    0.7846
       DOS:  cpu time    0.0064: real time    0.0064
    --------------------------------------------
      LOOP:  cpu time    0.7910: real time    0.7910

 eigenvalue-minimisations  :  9584
 total energy-change (2. order) :-0.4100680E+01  (-0.3930230E+01)
 number of electron      16.0000000 magnetization 
 augmentation part       16.0000000 magnetization 

 Free energy of the ion-electron system (eV)
  ---------------------------------------------------
  alpha Z        PSCENC =       150.86853775
  Ewald energy   TEWEN  =     -1270.65653348
  -Hartree energ DENC   =      -192.07748275
  -exchange      EXHF   =         0.00000000
  -V(xc)+E(xc)   XCENC  =         9.19625102
  PAW double counting   =      1109.69170683    -1125.09647265
  entropy T*S    EENTRO =         0.00048731
  eigenvalues    EBANDS =       110.89710359
  atomic energy  EATOM  =      1188.57490811
  Solvation  Ediel_sol  =         0.00000000
  ---------------------------------------------------
  free energy    TOTEN  =       -18.60149427 eV

  energy without entropy =      -18.60198157  energy(sigma->0) =      -18.60165670


--------------------------------------------------------------------------------------------------------




--------------------------------------- Iteration      1(   4)  ---------------------------------------


     EDDAV:  cpu time    0.7350: real time    0.7351
       DOS:  cpu time    0.0065: real time    0.0065
    --------------------------------------------
      LOOP:  cpu time    0.7415: real time    0.7416

 eigenvalue-minimisations  :  8920
 total energy-change (2. order) :-0.1508199E-01  (-0.1507497E-01)
 number of electron      16.0000000 magnetization 
 augmentation part       16.0000000 magnetization 

 Free energy of the ion-electron system (eV)
  ---------------------------------------------------
  alpha Z        PSCENC =       150.86853775
  Ewald energy   TEWEN  =     -1270.65653348
  -Hartree energ DENC   =      -192.07748275
  -exchange      EXHF   =         0.00000000
  -V(xc)+E(xc)   XCENC  =         9.19625102
  PAW double counting   =      1109.69170683    -1125.09647265
  entropy T*S    EENTRO =         0.00050601
  eigenvalues    EBANDS =       110.88200290
  atomic energy  EATOM  =      1188.57490811
  Solvation  Ediel_sol  =         0.00000000
  ---------------------------------------------------
  free energy    TOTEN  =       -18.61657626 eV

  energy without entropy =      -18.61708227  energy(sigma->0) =      -18.61674493


--------------------------------------------------------------------------------------------------------




--------------------------------------- Iteration      1(   5)  ---------------------------------------


     EDDAV:  cpu time    0.7544: real time    0.7545
       DOS:  cpu time    0.0062: real time    0.0062
    CHARGE:  cpu time    0.0201: real time    0.0201
    MIXING:  cpu time    0.0002: real time    0.0002
    --------------------------------------------
      LOOP:  cpu time    0.7809: real time    0.7809

 eigenvalue-minimisations  :  9264
 total energy-change (2. order) :-0.1078111E-04  (-0.1077911E-04)
 number of electron      15.9999988 magnetization 
 augmentation part        7.1728246 magnetization 

 Broyden mixing:
  rms(total) = 0.19094E+01    rms(broyden)= 0.19094E+01
  rms(prec ) = 0.29616E+01
  weight for this iteration     100.00

 Free energy of the ion-electron system (eV)
  ---------------------------------------------------
  alpha Z        PSCENC =       150.86853775
  Ewald energy   TEWEN  =     -1270.65653348
  -Hartree energ DENC   =      -192.07748275
  -exchange      EXHF   =         0.00000000
  -V(xc)+E(xc)   XCENC  =         9.19625102
  PAW double counting   =      1109.69170683    -1125.09647265
  entropy T*S    EENTRO =         0.00050603
  eigenvalues    EBANDS =       110.88199210
  atomic energy  EATOM  =      1188.57490811
  Solvation  Ediel_sol  =         0.00000000
  ---------------------------------------------------
  free energy    TOTEN  =       -18.61658704 eV

  energy without entropy =      -18.61709306  energy(sigma->0) =      -18.61675571


--------------------------------------------------------------------------------------------------------




--------------------------------------- Iteration      1(   6)  ---------------------------------------


    POTLOK:  cpu time    0.0033: real time    0.0033
    SETDIJ:  cpu time    0.0021: real time    0.0021
     EDDAV:  cpu time    0.8999: real time    0.8999
       DOS:  cpu time    0.0067: real time    0.0067
    CHARGE:  cpu time    0.0196: real time    0.0196
    MIXING:  cpu time    0.0002: real time    0.0002
    --------------------------------------------
      LOOP:  cpu time    0.9318: real time    0.9318

 eigenvalue-minimisations  : 11272
 total energy-change (2. order) : 0.2657845E+01  (-0.1437649E+00)
 number of electron      15.9999986 magnetization 
 augmentation part        8.3559152 magnetization 

 Broyden mixing:
  rms(total) = 0.15586E+00    rms(broyden)= 0.15576E+00
  rms(prec ) = 0.21522E+00
  weight for this iteration     100.00

 eigenvalues of (default mixing * dielectric matrix)
  average eigenvalue GAMMA=   1.0099
  1.0099

 Free energy of the ion-electron system (eV)
  ---------------------------------------------------
  alpha Z        PSCENC =       150.86853775
  Ewald energy   TEWEN  =     -1270.65653348
  -Hartree energ DENC   =      -160.95443243
  -exchange      EXHF   =         0.00000000
  -V(xc)+E(xc)   XCENC  =         7.66748285
  PAW double counting   =      1322.17178164    -1334.24395547
  entropy T*S    EENTRO =         0.00165597
  eigenvalues    EBANDS =        80.61181318
  atomic energy  EATOM  =      1188.57490811
  Solvation  Ediel_sol  =         0.00000000
  ---------------------------------------------------
  free energy    TOTEN  =       -15.95874188 eV

  energy without entropy =      -15.96039785  energy(sigma->0) =      -15.95929387


--------------------------------------------------------------------------------------------------------




--------------------------------------- Iteration      1(   7)  ---------------------------------------


    POTLOK:  cpu time    0.0034: real time    0.0034
    SETDIJ:  cpu time    0.0022: real time    0.0022
     EDDAV:  cpu time    0.7990: real time    0.7991
       DOS:  cpu time    0.0066: real time    0.0066
    CHARGE:  cpu time    0.0194: real time    0.0194
    MIXING:  cpu time    0.0002: real time    0.0002
    --------------------------------------------
      LOOP:  cpu time    0.8308: real time    0.8309

 eigenvalue-minimisations  :  9880
 total energy-change (2. order) : 0.1254007E+00  (-0.6689931E-02)
 number of electron      15.9999986 magnetization 
 augmentation part        8.1771417 magnetization 

 Broyden mixing:
  rms(total) = 0.14450E+00    rms(broyden)= 0.14450E+00
  rms(prec ) = 0.21589E+00
  weight for this iteration     100.00

 eigenvalues of (default mixing * dielectric matrix)
  average eigenvalue GAMMA=   1.1442
  0.8152  1.4732

 Free energy of the ion-electron system (eV)
  ---------------------------------------------------
  alpha Z        PSCENC =       150.86853775
  Ewald energy   TEWEN  =     -1270.65653348
  -Hartree energ DENC   =      -162.59629399
  -exchange      EXHF   =         0.00000000
  -V(xc)+E(xc)   XCENC  =         7.77612098
  PAW double counting   =      1427.69248014    -1443.16437516
  entropy T*S    EENTRO =         0.00149152
  eigenvalues    EBANDS =        85.67032297
  atomic energy  EATOM  =      1188.57490811
  Solvation  Ediel_sol  =         0.00000000
  ---------------------------------------------------
  free energy    TOTEN  =       -15.83334115 eV

  energy without entropy =      -15.83483267  energy(sigma->0) =      -15.83383832


--------------------------------------------------------------------------------------------------------




--------------------------------------- Iteration      1(   8)  ---------------------------------------


    POTLOK:  cpu time    0.0034: real time    0.0034
    SETDIJ:  cpu time    0.0022: real time    0.0022
     EDDAV:  cpu time    0.8360: real time    0.8361
       DOS:  cpu time    0.0065: real time    0.0065
    CHARGE:  cpu time    0.0191: real time    0.0191
    MIXING:  cpu time    0.0002: real time    0.0002
    --------------------------------------------
      LOOP:  cpu time    0.8675: real time    0.8675

 eigenvalue-minimisations  : 10304
 total energy-change (2. order) : 0.3444935E-01  (-0.2343773E-03)
 number of electron      15.9999986 magnetization 
 augmentation part        8.2020748 magnetization 

 Broyden mixing:
  rms(total) = 0.55683E-01    rms(broyden)= 0.55683E-01
  rms(prec ) = 0.80001E-01
  weight for this iteration     100.00

 eigenvalues of (default mixing * dielectric matrix)
  average eigenvalue GAMMA=   1.5221
  2.6594  1.0620  0.8448

 Free energy of the ion-electron system (eV)
  ---------------------------------------------------
  alpha Z        PSCENC =       150.86853775
  Ewald energy   TEWEN  =     -1270.65653348
  -Hartree energ DENC   =      -160.20050910
  -exchange      EXHF   =         0.00000000
  -V(xc)+E(xc)   XCENC  =         7.68002914
  PAW double counting   =      1529.77776172    -1547.10757454
  entropy T*S    EENTRO =         0.00153882
  eigenvalues    EBANDS =        85.26294977
  atomic energy  EATOM  =      1188.57490811
  Solvation  Ediel_sol  =         0.00000000
  ---------------------------------------------------
  free energy    TOTEN  =       -15.79889180 eV

  energy without entropy =      -15.80043062  energy(sigma->0) =      -15.79940474


--------------------------------------------------------------------------------------------------------




--------------------------------------- Iteration      1(   9)  ---------------------------------------


    POTLOK:  cpu time    0.0034: real time    0.0034
    SETDIJ:  cpu time    0.0022: real time    0.0022
     EDDAV:  cpu time    0.8527: real time    0.8527
       DOS:  cpu time    0.0066: real time    0.0066
    CHARGE:  cpu time    0.0194: real time    0.0194
    MIXING:  cpu time    0.0002: real time    0.0002
    --------------------------------------------
      LOOP:  cpu time    0.8845: real time    0.8846

 eigenvalue-minimisations  : 10656
 total energy-change (2. order) : 0.7378801E-02  (-0.7819102E-04)
 number of electron      15.9999986 magnetization 
 augmentation part        8.2116433 magnetization 

 Broyden mixing:
  rms(total) = 0.58262E-02    rms(broyden)= 0.58251E-02
  rms(prec ) = 0.75942E-02
  weight for this iteration     100.00

 eigenvalues of (default mixing * dielectric matrix)
  average eigenvalue GAMMA=   1.5811
  2.6861  0.9868  0.8499  1.8016

 Free energy of the ion-electron system (eV)
  ---------------------------------------------------
  alpha Z        PSCENC =       150.86853775
  Ewald energy   TEWEN  =     -1270.65653348
  -Hartree energ DENC   =      -158.58888777
  -exchange      EXHF   =         0.00000000
  -V(xc)+E(xc)   XCENC  =         7.61922618
  PAW double counting   =      1615.88028036    -1634.69618398
  entropy T*S    EENTRO =         0.00154518
  eigenvalues    EBANDS =        85.20559466
  atomic energy  EATOM  =      1188.57490811
  Solvation  Ediel_sol  =         0.00000000
  ---------------------------------------------------
  free energy    TOTEN  =       -15.79151300 eV

  energy without entropy =      -15.79305818  energy(sigma->0) =      -15.79202806


--------------------------------------------------------------------------------------------------------




--------------------------------------- Iteration      1(  10)  ---------------------------------------


    POTLOK:  cpu time    0.0034: real time    0.0034
    SETDIJ:  cpu time    0.0022: real time    0.0022
     EDDAV:  cpu time    0.7029: real time    0.7029
       DOS:  cpu time    0.0067: real time    0.0067
    CHARGE:  cpu time    0.0198: real time    0.0198
    MIXING:  cpu time    0.0003: real time    0.0003
    --------------------------------------------
      LOOP:  cpu time    0.7352: real time    0.7352

 eigenvalue-minimisations  :  8496
 total energy-change (2. order) :-0.1605112E-04  (-0.2391812E-05)
 number of electron      15.9999986 magnetization 
 augmentation part        8.2115093 magnetization 

 Broyden mixing:
  rms(total) = 0.24812E-02    rms(broyden)= 0.24800E-02
  rms(prec ) = 0.35790E-02
  weight for this iteration     100.00

 eigenvalues of (default mixing * dielectric matrix)
  average eigenvalue GAMMA=   1.6474
  2.6160  2.4490  0.8482  1.0040  1.3199

 Free energy of the ion-electron system (eV)
  ---------------------------------------------------
  alpha Z        PSCENC =       150.86853775
  Ewald energy   TEWEN  =     -1270.65653348
  -Hartree energ DENC   =      -158.65326308
  -exchange      EXHF   =         0.00000000
  -V(xc)+E(xc)   XCENC  =         7.62298022
  PAW double counting   =      1617.82211385    -1636.57019387
  entropy T*S    EENTRO =         0.00154257
  eigenvalues    EBANDS =        85.19837887
  atomic energy  EATOM  =      1188.57490811
  Solvation  Ediel_sol  =         0.00000000
  ---------------------------------------------------
  free energy    TOTEN  =       -15.79152905 eV

  energy without entropy =      -15.79307162  energy(sigma->0) =      -15.79204324


--------------------------------------------------------------------------------------------------------




--------------------------------------- Iteration      1(  11)  ---------------------------------------


    POTLOK:  cpu time    0.0034: real time    0.0034
    SETDIJ:  cpu time    0.0022: real time    0.0022
     EDDAV:  cpu time    0.7274: real time    0.7274
       DOS:  cpu time    0.0064: real time    0.0064
    CHARGE:  cpu time    0.0191: real time    0.0191
    MIXING:  cpu time    0.0002: real time    0.0002
    --------------------------------------------
      LOOP:  cpu time    0.7587: real time    0.7587

 eigenvalue-minimisations  :  8608
 total energy-change (2. order) : 0.1602412E-04  (-0.2799117E-07)
 number of electron      15.9999986 magnetization 
 augmentation part        8.2112175 magnetization 

 Broyden mixing:
  rms(total) = 0.21196E-03    rms(broyden)= 0.21190E-03
  rms(prec ) = 0.36553E-03
  weight for this iteration     100.00

 eigenvalues of (default mixing * dielectric matrix)
  average eigenvalue GAMMA=   1.5726
  2.5826  2.5826  0.8481  1.0049  1.0049  1.4122

 Free energy of the ion-electron system (eV)
  ---------------------------------------------------
  alpha Z        PSCENC =       150.86853775
  Ewald energy   TEWEN  =     -1270.65653348
  -Hartree energ DENC   =      -158.71956021
  -exchange      EXHF   =         0.00000000
  -V(xc)+E(xc)   XCENC  =         7.62604714
  PAW double counting   =      1616.83983663    -1635.52337612
  entropy T*S    EENTRO =         0.00154242
  eigenvalues    EBANDS =        85.19708472
  atomic energy  EATOM  =      1188.57490811
  Solvation  Ediel_sol  =         0.00000000
  ---------------------------------------------------
  free energy    TOTEN  =       -15.79151303 eV

  energy without entropy =      -15.79305545  energy(sigma->0) =      -15.79202717


--------------------------------------------------------------------------------------------------------




--------------------------------------- Iteration      1(  12)  ---------------------------------------


    POTLOK:  cpu time    0.0033: real time    0.0033
    SETDIJ:  cpu time    0.0022: real time    0.0022
     EDDAV:  cpu time    0.5837: real time    0.5838
       DOS:  cpu time    0.0066: real time    0.0065
    CHARGE:  cpu time    0.0198: real time    0.0198
    MIXING:  cpu time    0.0002: real time    0.0002
    --------------------------------------------
      LOOP:  cpu time    0.6158: real time    0.6159

 eigenvalue-minimisations  :  6336
 total energy-change (2. order) : 0.1626657E-05  (-0.8806430E-08)
 number of electron      15.9999986 magnetization 
 augmentation part        8.2111803 magnetization 

 Broyden mixing:
  rms(total) = 0.11778E-03    rms(broyden)= 0.11771E-03
  rms(prec ) = 0.13034E-03
  weight for this iteration     100.00

 eigenvalues of (default mixing * dielectric matrix)
  average eigenvalue GAMMA=   1.6043
  2.5407  2.5407  1.9228  0.8482  0.9944  1.0149  1.3682

 Free energy of the ion-electron system (eV)
  ---------------------------------------------------
  alpha Z        PSCENC =       150.86853775
  Ewald energy   TEWEN  =     -1270.65653348
  -Hartree energ DENC   =      -158.72948706
  -exchange      EXHF   =         0.00000000
  -V(xc)+E(xc)   XCENC  =         7.62648939
  PAW double counting   =      1616.70650713    -1635.38043953
  entropy T*S    EENTRO =         0.00154250
  eigenvalues    EBANDS =        85.19696378
  atomic energy  EATOM  =      1188.57490811
  Solvation  Ediel_sol  =         0.00000000
  ---------------------------------------------------
  free energy    TOTEN  =       -15.79151140 eV

  energy without entropy =      -15.79305390  energy(sigma->0) =      -15.79202557


--------------------------------------------------------------------------------------------------------




--------------------------------------- Iteration      1(  13)  ---------------------------------------


    POTLOK:  cpu time    0.0033: real time    0.0034
    SETDIJ:  cpu time    0.0022: real time    0.0022
     EDDAV:  cpu time    0.5220: real time    0.5220
       DOS:  cpu time    0.0063: real time    0.0063
    --------------------------------------------
      LOOP:  cpu time    0.5339: real time    0.5339

 eigenvalue-minimisations  :  5272
 total energy-change (2. order) :-0.4011595E-06  (-0.8868285E-09)
 number of electron      15.9999986 magnetization 
 augmentation part        8.2111803 magnetization 

 Free energy of the ion-electron system (eV)
  ---------------------------------------------------
  alpha Z        PSCENC =       150.86853775
  Ewald energy   TEWEN  =     -1270.65653348
  -Hartree energ DENC   =      -158.72787633
  -exchange      EXHF   =         0.00000000
  -V(xc)+E(xc)   XCENC  =         7.62641128
  PAW double counting   =      1616.78287786    -1635.45871513
  entropy T*S    EENTRO =         0.00154249
  eigenvalues    EBANDS =        85.19733564
  atomic energy  EATOM  =      1188.57490811
  Solvation  Ediel_sol  =         0.00000000
  ---------------------------------------------------
  free energy    TOTEN  =       -15.79151180 eV

  energy without entropy =      -15.79305429  energy(sigma->0) =      -15.79202597


--------------------------------------------------------------------------------------------------------




 average (electrostatic) potential at core
  the test charge radii are     1.0103
  (the norm of the test charge is              1.0000)
       1 -41.4735       2 -41.4736
 
 
 
 E-fermi :   8.1726     XC(G=0): -14.4211     alpha+bet :-16.9180

 Fermi energy:         8.1726003934

 k-point     1 :       0.0000    0.0000    0.0000
  band No.  band energies     occupation 
      1      -1.3412      2.00000
      2       2.5446      2.00000
      3       5.5485      2.00000
      4       6.3370      2.00000
      5       6.3371      2.00000
      6       6.6867      2.00000
      7       6.6868      2.00000
      8       7.2785      2.00000
      9       7.8514      2.04556
     10       7.8514      2.04556
     11       9.0483     -0.00000
     12       9.0483     -0.00000
     13      16.3868      0.00000
     14      32.5133      0.00000
     15      32.6597      0.00000
     16      35.8559      0.00000
     17      39.1576      0.00000
     18      39.1576      0.00000
     19      39.8467      0.00000
     20      39.8469      0.00000
     21      40.1986      0.00000
     22      42.2537      0.00000
     23      42.2537      0.00000
     24      43.3086      0.00000
     25      46.3748      0.00000
     26      46.3748      0.00000
     27      47.3987      0.00000
     28      50.8507      0.00000
     29      50.8512      0.00000
     30      52.7544      0.00000
     31      52.7546      0.00000
     32      55.4578      0.00000
     33      63.0932      0.00000
     34      63.8889      0.00000
     35      64.1654      0.00000
     36      64.1662      0.00000
     37      65.3534      0.00000
     38      67.3179      0.00000
     39      67.3189      0.00000
     40      69.4516      0.00000

 k-point     2 :       0.0909   -0.0000    0.0000
  band No.  band energies     occupation 
      1      -0.9790      2.00000
      2       2.8222      2.00000
      3       5.5804      2.00000
      4       6.2498      2.00000
      5       6.3662      2.00000
      6       6.5530      2.00000
      7       6.5635      2.00000
      8       6.8981      2.00000
      9       7.6660      2.00200
     10       7.7205      2.00631
     11       9.0861     -0.00000
     12      10.2432     -0.00000
     13      16.4092      0.00000
     14      31.6156      0.00000
     15      32.9059      0.00000
     16      34.4539      0.00000
     17      36.1718      0.00000
     18      37.9651      0.00000
     19      38.2077      0.00000
     20      40.0928      0.00000
     21      41.7076      0.00000
     22      42.9082      0.00000
     23      43.0289      0.00000
     24      43.6772      0.00000
     25      47.5739      0.00000
     26      47.8687      0.00000
     27      48.2691      0.00000
     28      48.5767      0.00000
     29      51.7954      0.00000
     30      54.2561      0.00000
     31      55.2280      0.00000
     32      57.2546      0.00000
     33      61.7094      0.00000
     34      63.3140      0.00000
     35      63.4845      0.00000
     36      63.8119      0.00000
     37      64.3867      0.00000
     38      67.9958      0.00000
     39      69.4723      0.00000
     40      69.7292      0.00000

 k-point     3 :       0.1818   -0.0000    0.0000
  band No.  band energies     occupation 
      1       0.0362      2.00000
      2       3.4628      2.00000
      3       5.1690      2.00000
      4       5.4080      2.00000
      5       6.0250      2.00000
      6       6.6827      2.00000
      7       7.1912      2.00000
      8       7.2300      2.00000
      9       7.4119      2.00000
     10       7.4801      2.00001
     11       9.1452     -0.00000
     12      12.2218     -0.00000
     13      16.4950      0.00000
     14      27.9890      0.00000
     15      33.1212      0.00000
     16      33.1491      0.00000
     17      33.2796      0.00000
     18      34.0806      0.00000
     19      38.8980      0.00000
     20      39.6686      0.00000
     21      40.3523      0.00000
     22      40.8729      0.00000
     23      44.1234      0.00000
     24      45.1701      0.00000
     25      48.0990      0.00000
     26      48.9217      0.00000
     27      50.3176      0.00000
     28      52.6729      0.00000
     29      55.0560      0.00000
     30      57.0684      0.00000
     31      57.8975      0.00000
     32      59.9921      0.00000
     33      60.4235      0.00000
     34      61.4188      0.00000
     35      61.6165      0.00000
     36      62.7597      0.00000
     37      65.5192      0.00000
     38      68.8340      0.00000
     39      69.4417      0.00000
     40      69.7157      0.00000

 k-point     4 :       0.2727   -0.0000    0.0000
  band No.  band energies     occupation 
      1       1.4392      2.00000
      2       3.7141      2.00000
      3       4.2239      2.00000
      4       5.3984      2.00000
      5       5.8352      2.00000
      6       6.6859      2.00000
      7       7.0617      2.00000
      8       7.5679      2.00016
      9       8.0860      1.66244
     10       8.2966      0.14224
     11       9.1762     -0.00000
     12      14.4470      0.00000
     13      16.7014      0.00000
     14      23.8866      0.00000
     15      29.5960      0.00000
     16      30.5160      0.00000
     17      31.5550      0.00000
     18      34.0753      0.00000
     19      37.2319      0.00000
     20      39.9929      0.00000
     21      40.2431      0.00000
     22      40.6809      0.00000
     23      41.6381      0.00000
     24      45.1735      0.00000
     25      51.6978      0.00000
     26      53.0992      0.00000
     27      53.9966      0.00000
     28      55.2713      0.00000
     29      56.1135      0.00000
     30      57.5795      0.00000
     31      59.0608      0.00000
     32      60.9528      0.00000
     33      61.1826      0.00000
     34      61.5677      0.00000
     35      62.7199      0.00000
     36      65.5040      0.00000
     37      65.7563      0.00000
     38      69.4511      0.00000
     39      69.5754      0.00000
     40      69.6930      0.00000

 k-point     5 :       0.3636   -0.0000    0.0000
  band No.  band energies     occupation 
      1       2.5898      2.00000
      2       3.3868      2.00000
      3       3.5878      2.00000
      4       5.6115      2.00000
      5       6.2072      2.00000
      6       6.3450      2.00000
      7       6.7698      2.00000
      8       8.9900     -0.00000
      9       9.0093     -0.00000
     10       9.1222     -0.00000
     11       9.1752     -0.00000
     12      16.5655      0.00000
     13      16.8052      0.00000
     14      20.8715      0.00000
     15      26.1923      0.00000
     16      28.5135      0.00000
     17      28.7095      0.00000
     18      33.2503      0.00000
     19      36.1293      0.00000
     20      39.4450      0.00000
     21      39.8078      0.00000
     22      41.5922      0.00000
     23      42.0241      0.00000
     24      45.2501      0.00000
     25      52.7517      0.00000
     26      54.3287      0.00000
     27      55.1139      0.00000
     28      58.3432      0.00000
     29      58.5274      0.00000
     30      58.6319      0.00000
     31      60.4347      0.00000
     32      62.0891      0.00000
     33      62.4411      0.00000
     34      62.8800      0.00000
     35      64.2908      0.00000
     36      65.8379      0.00000
     37      69.1454      0.00000
     38      69.3109      0.00000
     39      69.5119      0.00000
     40      70.1283      0.00000

 k-point     6 :       0.4545   -0.0000    0.0000
  band No.  band energies     occupation 
      1       2.9036      2.00000
      2       3.1809      2.00000
      3       3.2703      2.00000
      4       5.9308      2.00000
      5       6.2603      2.00000
      6       6.6080      2.00000
      7       6.6196      2.00000
      8       9.1672     -0.00000
      9       9.5541     -0.00000
     10       9.6779     -0.00000
     11      10.9087     -0.00000
     12      14.6592      0.00000
     13      19.0210      0.00000
     14      20.7779      0.00000
     15      23.4686      0.00000
     16      25.9428      0.00000
     17      27.3859      0.00000
     18      32.6012      0.00000
     19      35.7685      0.00000
     20      38.2105      0.00000
     21      39.6254      0.00000
     22      42.5787      0.00000
     23      44.3737      0.00000
     24      44.8976      0.00000
     25      49.3811      0.00000
     26      55.1172      0.00000
     27      56.1121      0.00000
     28      59.7733      0.00000
     29      60.2553      0.00000
     30      61.3199      0.00000
     31      62.7756      0.00000
     32      62.8046      0.00000
     33      62.9960      0.00000
     34      65.1588      0.00000
     35      65.9019      0.00000
     36      67.9711      0.00000
     37      68.3483      0.00000
     38      68.6010      0.00000
     39      70.8265      0.00000
     40      71.3902      0.00000

 k-point     7 :       0.0909    0.0909    0.0000
  band No.  band energies     occupation 
      1      -0.2867      2.00000
      2       3.3058      2.00000
      3       5.4380      2.00000
      4       5.4860      2.00000
      5       6.2950      2.00000
      6       6.3035      2.00000
      7       7.0237      2.00000
      8       7.2060      2.00000
      9       7.3506      2.00000
     10       7.6697      2.00217
     11       9.0938     -0.00000
     12      11.6716     -0.00000
     13      16.4666      0.00000
     14      29.6916      0.00000
     15      31.2699      0.00000
     16      33.4994      0.00000
     17      35.0035      0.00000
     18      36.9548      0.00000
     19      37.1189      0.00000
     20      38.7669      0.00000
     21      39.7567      0.00000
     22      44.5861      0.00000
     23      45.0041      0.00000
     24      45.9640      0.00000
     25      46.4635      0.00000
     26      47.0658      0.00000
     27      47.2845      0.00000
     28      53.1733      0.00000
     29      55.4291      0.00000
     30      56.1411      0.00000
     31      56.1427      0.00000
     32      59.4952      0.00000
     33      60.3410      0.00000
     34      61.8508      0.00000
     35      62.8257      0.00000
     36      62.8384      0.00000
     37      64.3734      0.00000
     38      69.1102      0.00000
     39      69.1349      0.00000
     40      70.3617      0.00000

 k-point     8 :       0.1818    0.0909    0.0000
  band No.  band energies     occupation 
      1       0.9566      2.00000
      2       3.8993      2.00000
      3       4.5689      2.00000
      4       5.1123      2.00000
      5       5.9419      2.00000
      6       6.6860      2.00000
      7       6.8152      2.00000
      8       7.3705      2.00000
      9       7.8473      2.04371
     10       8.1964      0.80043
     11       9.0861     -0.00000
     12      13.6718      0.00000
     13      16.6627      0.00000
     14      25.9831      0.00000
     15      28.7595      0.00000
     16      31.4288      0.00000
     17      33.5983      0.00000
     18      34.5504      0.00000
     19      37.7611      0.00000
     20      37.8266      0.00000
     21      39.1535      0.00000
     22      43.9782      0.00000
     23      43.9834      0.00000
     24      45.6200      0.00000
     25      48.6230      0.00000
     26      49.3563      0.00000
     27      51.5703      0.00000
     28      55.7947      0.00000
     29      57.6516      0.00000
     30      57.8800      0.00000
     31      58.6526      0.00000
     32      60.4893      0.00000
     33      60.7805      0.00000
     34      61.6651      0.00000
     35      62.7054      0.00000
     36      62.9512      0.00000
     37      65.1394      0.00000
     38      68.9521      0.00000
     39      69.7539      0.00000
     40      70.7954      0.00000

 k-point     9 :       0.2727    0.0909    0.0000
  band No.  band energies     occupation 
      1       2.3469      2.00000
      2       3.7701      2.00000
      3       3.8719      2.00000
      4       5.2417      2.00000
      5       6.0424      2.00000
      6       6.2541      2.00000
      7       6.9433      2.00000
      8       7.7273      2.00720
      9       8.7495     -0.00035
     10       9.0677     -0.00000
     11       9.2975     -0.00000
     12      15.9376      0.00000
     13      16.9876      0.00000
     14      22.1725      0.00000
     15      26.9431      0.00000
     16      27.9634      0.00000
     17      31.1896      0.00000
     18      32.5025      0.00000
     19      37.1576      0.00000
     20      38.4321      0.00000
     21      39.2168      0.00000
     22      43.2391      0.00000
     23      43.4508      0.00000
     24      46.5576      0.00000
     25      50.6976      0.00000
     26      53.2360      0.00000
     27      54.6194      0.00000
     28      54.9253      0.00000
     29      56.9630      0.00000
     30      59.2107      0.00000
     31      59.7792      0.00000
     32      62.0331      0.00000
     33      62.7256      0.00000
     34      63.1531      0.00000
     35      63.7335      0.00000
     36      65.3428      0.00000
     37      68.3519      0.00000
     38      68.8519      0.00000
     39      69.2671      0.00000
     40      70.9535      0.00000

 k-point    10 :       0.3636    0.0909    0.0000
  band No.  band energies     occupation 
      1       3.0845      2.00000
      2       3.4365      2.00000
      3       3.4504      2.00000
      4       5.7526      2.00000
      5       5.9836      2.00000
      6       6.4860      2.00000
[...]
     18      29.5905      0.00000
     19      35.1592      0.00000
     20      35.9285      0.00000
     21      39.7325      0.00000
     22      40.2328      0.00000
     23      45.4109      0.00000
     24      46.4806      0.00000
     25      52.3833      0.00000
     26      54.1679      0.00000
     27      56.5297      0.00000
     28      57.4916      0.00000
     29      59.4139      0.00000
     30      60.8261      0.00000
     31      62.3721      0.00000
     32      62.4522      0.00000
     33      64.5312      0.00000
     34      64.7302      0.00000
     35      66.5584      0.00000
     36      66.7948      0.00000
     37      67.4880      0.00000
     38      68.3143      0.00000
     39      71.1690      0.00000
     40      71.7264      0.00000

 k-point    91 :       0.4545    0.0909    0.4545
  band No.  band energies     occupation 
      1       2.7849      2.00000
      2       2.9440      2.00000
      3       4.2719      2.00000
      4       4.3668      2.00000
      5       6.9754      2.00000
      6       7.4263      2.00000
      7       8.1875      0.87394
      8       8.5388     -0.02655
      9       9.2408     -0.00000
     10       9.2791     -0.00000
     11      11.8560     -0.00000
     12      12.3963     -0.00000
     13      18.9217      0.00000
     14      18.9783      0.00000
     15      27.4315      0.00000
     16      28.0482      0.00000
     17      29.0819      0.00000
     18      29.4940      0.00000
     19      34.8208      0.00000
     20      35.1060      0.00000
     21      39.0885      0.00000
     22      39.1396      0.00000
     23      45.5227      0.00000
     24      46.6207      0.00000
     25      52.5913      0.00000
     26      54.3686      0.00000
     27      58.8362      0.00000
     28      60.1104      0.00000
     29      60.7423      0.00000
     30      61.0431      0.00000
     31      61.2419      0.00000
     32      61.5291      0.00000
     33      64.8928      0.00000
     34      65.5711      0.00000
     35      67.0703      0.00000
     36      67.5694      0.00000
     37      68.7858      0.00000
     38      68.9524      0.00000
     39      72.4546      0.00000
     40      72.5298      0.00000

 k-point    92 :       0.1818    0.1818    0.4545
  band No.  band energies     occupation 
      1       2.9944      2.00000
      2       3.2381      2.00000
      3       4.9910      2.00000
      4       5.0273      2.00000
      5       5.5374      2.00000
      6       5.5759      2.00000
      7       7.3776      2.00000
      8       7.6466      2.00127
      9       8.9861     -0.00000
     10       9.1629     -0.00000
     11       9.7248     -0.00000
     12      10.2952     -0.00000
     13      25.1954      0.00000
     14      25.3766      0.00000
     15      25.9539      0.00000
     16      26.9168      0.00000
     17      27.4599      0.00000
     18      28.5391      0.00000
     19      39.2522      0.00000
     20      40.4051      0.00000
     21      41.2350      0.00000
     22      42.4574      0.00000
     23      44.2939      0.00000
     24      44.4619      0.00000
     25      51.0624      0.00000
     26      51.5332      0.00000
     27      54.7211      0.00000
     28      55.8277      0.00000
     29      57.8017      0.00000
     30      58.6711      0.00000
     31      60.4004      0.00000
     32      60.7796      0.00000
     33      62.1186      0.00000
     34      62.1962      0.00000
     35      63.9997      0.00000
     36      64.1250      0.00000
     37      67.1540      0.00000
     38      69.0948      0.00000
     39      69.7709      0.00000
     40      70.2250      0.00000

 k-point    93 :       0.2727    0.1818    0.4545
  band No.  band energies     occupation 
      1       3.2989      2.00000
      2       3.4074      2.00000
      3       4.7283      2.00000
      4       4.9431      2.00000
      5       5.9329      2.00000
      6       6.1051      2.00000
      7       7.2632      2.00000
      8       7.5237      2.00004
      9       9.1046     -0.00000
     10       9.4106     -0.00000
     11      11.4169     -0.00000
     12      11.9643     -0.00000
     13      22.0652      0.00000
     14      22.6413      0.00000
     15      24.9504      0.00000
     16      25.7207      0.00000
     17      27.6613      0.00000
     18      29.4202      0.00000
     19      36.9958      0.00000
     20      38.5856      0.00000
     21      39.8810      0.00000
     22      41.4444      0.00000
     23      45.1255      0.00000
     24      45.6404      0.00000
     25      52.5891      0.00000
     26      53.1178      0.00000
     27      55.9621      0.00000
     28      57.8070      0.00000
     29      59.6681      0.00000
     30      61.0745      0.00000
     31      62.0452      0.00000
     32      62.4274      0.00000
     33      63.3467      0.00000
     34      63.3724      0.00000
     35      64.7697      0.00000
     36      65.3955      0.00000
     37      67.1746      0.00000
     38      68.7318      0.00000
     39      70.7496      0.00000
     40      71.1819      0.00000

 k-point    94 :       0.3636    0.1818    0.4545
  band No.  band energies     occupation 
      1       3.3018      2.00000
      2       3.4722      2.00000
      3       4.5942      2.00000
      4       4.7973      2.00000
      5       6.0653      2.00000
      6       6.4310      2.00000
      7       7.6424      2.00115
      8       7.7675      2.01471
      9       9.0770     -0.00000
     10       9.2767     -0.00000
     11      13.2676     -0.00000
     12      13.7279      0.00000
     13      19.3676      0.00000
     14      19.7442      0.00000
     15      24.3092      0.00000
     16      25.0714      0.00000
     17      29.2761      0.00000
     18      30.4292      0.00000
     19      35.3712      0.00000
     20      36.4598      0.00000
     21      38.8340      0.00000
     22      40.4438      0.00000
     23      45.8953      0.00000
     24      46.3249      0.00000
     25      55.8721      0.00000
     26      56.4019      0.00000
     27      56.7575      0.00000
     28      58.1882      0.00000
     29      60.2332      0.00000
     30      60.6612      0.00000
     31      60.9715      0.00000
     32      61.7529      0.00000
     33      63.9091      0.00000
     34      64.1654      0.00000
     35      66.4837      0.00000
     36      66.7980      0.00000
     37      68.7064      0.00000
     38      68.9269      0.00000
     39      69.9965      0.00000
     40      70.8694      0.00000

 k-point    95 :       0.2727    0.2727    0.4545
  band No.  band energies     occupation 
      1       3.7438      2.00000
      2       3.8221      2.00000
      3       4.8583      2.00000
      4       5.0981      2.00000
      5       5.5698      2.00000
      6       5.8084      2.00000
      7       7.1318      2.00000
      8       7.3539      2.00000
      9       9.0940     -0.00000
     10       9.3124     -0.00000
     11      13.7598      0.00000
     12      14.3006      0.00000
     13      20.3977      0.00000
     14      20.8611      0.00000
     15      22.4413      0.00000
     16      22.8737      0.00000
     17      29.4906      0.00000
     18      31.1498      0.00000
     19      35.3761      0.00000
     20      36.8317      0.00000
     21      38.5673      0.00000
     22      39.7513      0.00000
     23      48.1729      0.00000
     24      48.6231      0.00000
     25      52.9423      0.00000
     26      53.0119      0.00000
     27      58.6947      0.00000
     28      59.9764      0.00000
     29      60.4231      0.00000
     30      60.8036      0.00000
     31      62.2492      0.00000
     32      62.3254      0.00000
     33      62.4304      0.00000
     34      62.7372      0.00000
     35      65.7981      0.00000
     36      66.1610      0.00000
     37      68.4926      0.00000
     38      68.7854      0.00000
     39      69.2676      0.00000
     40      69.4341      0.00000

 k-point    96 :       0.3636    0.2727    0.4545
  band No.  band energies     occupation 
      1       3.9761      2.00000
      2       4.1264      2.00000
      3       4.7755      2.00000
      4       4.8704      2.00000
      5       5.5785      2.00000
      6       5.7254      2.00000
      7       7.1902      2.00000
      8       7.3559      2.00000
      9       9.0705     -0.00000
     10       9.1494     -0.00000
     11      15.6975      0.00000
     12      15.8541      0.00000
     13      18.6354      0.00000
     14      19.0025      0.00000
     15      21.7815      0.00000
     16      22.2227      0.00000
     17      31.2186      0.00000
     18      32.0993      0.00000
     19      34.4547      0.00000
     20      34.6680      0.00000
     21      38.3074      0.00000
     22      39.1606      0.00000
     23      49.4782      0.00000
     24      50.1332      0.00000
     25      54.2982      0.00000
     26      54.7289      0.00000
     27      57.4722      0.00000
     28      57.8295      0.00000
     29      60.1638      0.00000
     30      60.8400      0.00000
     31      62.1187      0.00000
     32      62.4347      0.00000
     33      63.5084      0.00000
     34      63.5886      0.00000
     35      64.3847      0.00000
     36      65.8594      0.00000
     37      67.4833      0.00000
     38      68.7271      0.00000
     39      71.1098      0.00000
     40      71.3824      0.00000


--------------------------------------------------------------------------------------------------------


 soft charge-density along one line, spin component           1
         0         1         2         3         4         5         6         7         8         9
x     7.7888    0.0000    0.0686   -0.1188   -0.0517   -0.0895    0.0217   -0.0000    0.0011   -0.0019
x     0.0000    0.0000
y     7.7888    0.0000    0.0686    0.1188   -0.0517    0.0895    0.0217    0.0000    0.0011    0.0019
y     0.0000    0.0000
z     7.7888    0.0000    0.0000   -0.0000    0.4133    0.0000    0.0000    0.0000   -0.1498    0.0000
z     0.0000    0.0000    0.0216   -0.0000    0.0000    0.0000    0.0057   -0.0000    0.0000    0.0000
 total charge-density along one line
x    16.0000    0.0000    1.4118   -2.4454    0.2620    0.4537    0.0084    0.0000    0.0020   -0.0035
x    -0.0003   -0.0006    0.0006   -0.0000   -0.0001    0.0001    0.0001    0.0001   -0.0001    0.0000
x     0.0000    0.0000
y    16.0000    0.0000    1.4118    2.4454    0.2620   -0.4537    0.0084   -0.0000    0.0020    0.0035
y    -0.0003    0.0006    0.0006    0.0000   -0.0001   -0.0001    0.0001   -0.0001   -0.0001   -0.0000
y     0.0000   -0.0000
z    16.0000    0.0000    0.0000    0.0000    5.9064   -0.0000    0.0000    0.0000    1.2456   -0.0000
z     0.0000   -0.0000    0.0301   -0.0000    0.0000   -0.0000    0.0067   -0.0000    0.0000    0.0000
z     0.0002   -0.0000   -0.0000   -0.0000   -0.0001    0.0000   -0.0000   -0.0000    0.0001    0.0000
z    -0.0000    0.0000   -0.0000    0.0000    0.0000    0.0000    0.0001   -0.0000
 
 pseudopotential strength for first ion, spin component:           1
 -3.699  -0.000  -0.000  -0.000  -0.000  -4.284  -0.000  -0.000
 -0.000  -3.682  -0.000  -0.000   0.000  -0.000  -4.266  -0.000
 -0.000  -0.000  -3.690  -0.000  -0.000  -0.000  -0.000  -4.275
 -0.000  -0.000  -0.000  -3.682  -0.000  -0.000  -0.000  -0.000
 -0.000   0.000  -0.000  -0.000  -3.699  -0.000   0.000  -0.000
 -4.284  -0.000  -0.000  -0.000  -0.000  -4.826  -0.000  -0.000
 -0.000  -4.266  -0.000  -0.000   0.000  -0.000  -4.808  -0.000
 -0.000  -0.000  -4.275  -0.000  -0.000  -0.000  -0.000  -4.817
 -0.000  -0.000  -0.000  -4.266  -0.000  -0.000  -0.000  -0.000
 -0.000   0.000  -0.000  -0.000  -4.284  -0.000   0.000  -0.000
  0.000   0.000   0.000   0.000  -0.000   0.000   0.000  -0.000
  0.000   0.000   0.001   0.000  -0.000   0.000   0.000   0.000
 -0.000  -0.000  -0.000   0.000  -0.001  -0.000  -0.000  -0.000
  0.000  -0.000  -0.000  -0.000   0.000   0.000  -0.000  -0.000
 -0.001   0.000   0.000   0.000  -0.000  -0.001   0.000   0.000
 -0.000  -0.000  -0.000   0.000  -0.001  -0.000  -0.000  -0.000
  0.000  -0.000  -0.000  -0.000   0.000   0.000  -0.000  -0.000
 -0.001   0.000   0.000  -0.000  -0.000  -0.001   0.000   0.000
 total augmentation occupancy for first ion, spin component:           1
  1.812   0.000   0.000   0.000   0.000  -1.387   0.000  -0.000   0.000  -0.000  -0.000   0.000   0.000   0.000   0.039  -0.000
  0.000   2.317  -0.000  -0.000   0.000   0.000  -1.626   0.000   0.000   0.000   0.000  -0.000  -0.000   0.000   0.000   0.000
  0.000  -0.000   1.443   0.000  -0.000  -0.000  -0.000  -1.060   0.000   0.000   0.048  -0.013   0.000   0.000   0.000  -0.000
  0.000  -0.000   0.000   2.317   0.000   0.000   0.000   0.000  -1.626   0.000  -0.000  -0.000   0.000   0.000   0.000   0.000
 -0.000   0.000  -0.000   0.000   1.812  -0.000   0.000   0.000   0.000  -1.387  -0.000   0.000   0.039   0.000  -0.000  -0.002
 -1.387   0.000  -0.000   0.000  -0.000   2.346  -0.000   0.000   0.000   0.000   0.000  -0.000  -0.000   0.000  -0.053   0.000
  0.000  -1.626   0.000   0.000   0.000   0.000   2.281   0.000  -0.000   0.000  -0.000   0.000  -0.000   0.000   0.000  -0.000
 -0.000   0.000  -1.060   0.000   0.000   0.000  -0.000   2.042   0.000  -0.000  -0.128   0.007   0.000   0.000  -0.000  -0.000
  0.000   0.000  -0.000  -1.626   0.000  -0.000  -0.000  -0.000   2.281   0.000  -0.000  -0.000   0.000   0.000   0.000   0.000
 -0.000   0.000   0.000  -0.000  -1.387   0.000   0.000  -0.000  -0.000   2.346   0.000  -0.000  -0.053   0.000   0.000   0.002
 -0.000   0.000   0.048  -0.000  -0.000   0.000   0.000  -0.128  -0.000   0.000   3.006  -0.358   0.000   0.000  -0.000  -0.000
 -0.000  -0.000  -0.013   0.000   0.000  -0.000   0.000   0.007  -0.000  -0.000  -0.358   0.048   0.000   0.000   0.000   0.000
  0.000  -0.000   0.000   0.000   0.039  -0.000   0.000   0.000  -0.000  -0.053   0.000  -0.000   0.413   0.000  -0.000  -0.031
  0.000   0.000   0.000   0.000   0.000   0.000   0.000   0.000   0.000  -0.000   0.000   0.000   0.000   0.387   0.000   0.000
  0.039  -0.000   0.000   0.000  -0.000  -0.053   0.000  -0.000   0.000   0.000  -0.000   0.000  -0.000   0.000   0.413   0.000
 -0.000   0.000   0.000   0.000  -0.002   0.000  -0.000  -0.000   0.000   0.002  -0.000   0.000  -0.031  -0.000   0.000   0.003
  0.000   0.000   0.000  -0.000   0.000  -0.000  -0.000   0.000  -0.000  -0.000   0.000   0.000   0.000  -0.035   0.000   0.000
 -0.002   0.000  -0.000   0.000   0.000   0.002  -0.000   0.000  -0.000  -0.000   0.000   0.000   0.000   0.000  -0.031  -0.000


------------------------ aborting loop because EDIFF is reached ----------------------------------------


    CHARGE:  cpu time    0.0196: real time    0.0196
    FORLOC:  cpu time    0.0002: real time    0.0002
    FORNL :  cpu time    0.0982: real time    0.0982
    STRESS:  cpu time    0.1372: real time    0.1372
    FORCOR:  cpu time    0.0034: real time    0.0034
    FORHAR:  cpu time    0.0008: real time    0.0008
    MIXING:  cpu time    0.0002: real time    0.0002

  FORCE on cell =-STRESS in cart. coord.  units (eV):
  Direction    XX          YY          ZZ          XY          YZ          ZX
  --------------------------------------------------------------------------------------
  Alpha Z   150.86854   150.86854   150.86854
  Ewald    -406.39343  -406.39343  -457.87042     0.00000     0.00000     0.00000
  Hartree    58.98425    58.98426    40.75892    -0.00000    -0.00000    -0.00000
  E(xc)     -79.81231   -79.81231   -79.50130     0.00011    -0.00000    -0.00000
  Local     104.52688   104.52704   170.51748    -0.00064     0.00000     0.00000
  n-local   -49.98376   -49.42273   -52.44922    -4.91358     1.43671     0.95564
  augment    75.03933    75.03910    75.62582     0.00074    -0.00000    -0.00000
  Kinetic   157.11255   150.63171   151.30155     1.53938    -0.92677     0.19435
  Fock        0.00000     0.00000     0.00000     0.00000     0.00000     0.00000
  -------------------------------------------------------------------------------------
  Total       7.38211     7.38211    -0.74863    -0.00000    -0.00000    -0.00000
  in kB     645.45399   645.45399   -65.45610    -0.00000    -0.00000    -0.00000
  external pressure =      408.48 kB  Pullay stress =        0.00 kB


 VOLUME and BASIS-vectors are now :
 -----------------------------------------------------------------------------
  energy-cutoff  :      280.00
  volume of cell :       18.32
      direct lattice vectors                 reciprocal lattice vectors
     2.283400000  0.000000000  0.000000000     0.437943418  0.252846750  0.000000000
    -1.141700000  1.977482407  0.000000000     0.000000000  0.505693500  0.000000000
     0.000000000  0.000000000  4.058180000     0.000000000  0.000000000  0.246415881

  length of vectors
     2.283400000  2.283400000  4.058180000     0.505693500  0.505693500  0.246415881


 FORCES acting on ions
    electron-ion (+dipol)            ewald-force                    non-local-force                 convergence-correction
 -----------------------------------------------------------------------------------------------
   0.845E-06 -.387E-06 0.849E-14   0.534E-12 -.318E-12 -.271E-13   0.515E-17 -.147E-16 0.625E-20   -.128E-08 0.742E-09 -.463E-13
   -.177E-05 0.234E-05 0.247E-12   -.530E-12 0.313E-12 0.271E-13   -.583E-17 0.128E-16 -.259E-19   0.128E-08 -.740E-09 0.516E-13
 -----------------------------------------------------------------------------------------------
   -.920E-06 0.196E-05 0.255E-12   0.345E-14 -.558E-14 -.114E-16   -.675E-18 -.189E-17 -.196E-19   0.272E-12 0.253E-11 0.532E-14
 
 
 POSITION                                       TOTAL-FORCE (eV/Angst)
 -----------------------------------------------------------------------------------
      0.00000      0.00000      0.00000        -0.000000      0.000000      0.000000
      0.00000      1.31832      2.02909         0.000000     -0.000000     -0.000000
 -----------------------------------------------------------------------------------
    total drift:                               -0.000001      0.000002      0.000000


--------------------------------------------------------------------------------------------------------



  FREE ENERGIE OF THE ION-ELECTRON SYSTEM (eV)
  ---------------------------------------------------
  free  energy   TOTEN  =       -15.79151180 eV

  energy  without entropy=      -15.79305429  energy(sigma->0) =      -15.79202597
 


--------------------------------------------------------------------------------------------------------


    POTLOK:  cpu time    0.0055: real time    0.0055


--------------------------------------------------------------------------------------------------------


 writing wavefunctions
     LOOP+:  cpu time   10.2650: real time   10.2845
    4ORBIT:  cpu time    0.0000: real time    0.0000

 total amount of memory used by VASP MPI-rank0    48790. kBytes
=======================================================================

   base      :      30000. kBytes
   nonl-proj :       2895. kBytes
   grid      :        812. kBytes
   one-center:         31. kBytes
   wavefun   :      15052. kBytes
 
  
  
 General timing and accounting informations for this job:
 ========================================================
  
                  Total CPU time used (sec):       10.431
                            User time (sec):       10.379
                          System time (sec):        0.052
                         Elapsed time (sec):       10.439
  
                   Maximum memory used (kb):       53816.
                   Average memory used (kb):          N/A
  
                          Minor page faults:         7005
                          Major page faults:            0
                 Voluntary context switches:           26
