       N       E                     dE             d eps       ncg     rms          rms(c)
DAV:   1     0.606675635851E+02    0.60668E+02   -0.26977E+03  9032   0.320E+02
DAV:   2    -0.147893298511E+02   -0.75457E+02   -0.64271E+02  7912   0.949E+01
DAV:   3    -0.192350357006E+02   -0.44457E+01   -0.42008E+01  9496   0.241E+01
DAV:   4    -0.192566709020E+02   -0.21635E-01   -0.21620E-01  9152   0.176E+00
DAV:   5    -0.192567013996E+02   -0.30498E-04   -0.30496E-04  9192   0.629E-02    0.165E+01
DAV:   6    -0.163665317531E+02    0.28902E+01   -0.19632E+00 11160   0.258E+01    0.295E+00
DAV:   7    -0.161293237536E+02    0.23721E+00   -0.14943E-01 10136   0.611E+00    0.101E+00
DAV:   8    -0.161039441449E+02    0.25380E-01   -0.41702E-03 10152   0.424E-01    0.473E-01
DAV:   9    -0.160930653982E+02    0.10879E-01   -0.90634E-04 11240   0.173E-01    0.607E-02
DAV:  10    -0.160930938164E+02   -0.28418E-04   -0.37888E-05  8976   0.240E-02    0.265E-02
DAV:  11    -0.160930879661E+02    0.58503E-05   -0.46554E-07  9160   0.624E-03    0.179E-03
DAV:  12    -0.160930874641E+02    0.50199E-06   -0.48190E-08  5904   0.120E-03
   1 F= -.16093087E+02 E0= -.16094119E+02  d E =0.309502E-02
