 vasp.6.2.0 18Jan21 (build Mar 17 2021 09:06:54) complex                        
  
 executed on             LinuxIFC date 2021.09.09  12:08:59
 serial version


--------------------------------------------------------------------------------------------------------


 INCAR:
   ENCUT = 280.000000
   SIGMA = 0.200000
   EDIFF = 1.00e-06
   GGA = PE
   PREC = normal
   IBRION = 1
   ICHARG = 1
   ISIF = 2
   ISMEAR = 1
   KPAR = 1
   NBANDS = 40
   NSW = 0
   NCORE = 1
   LCHARG = .TRUE.

 POTCAR:    PAW_PBE Fe 06Sep2000                  
 POTCAR:    PAW_PBE Fe 06Sep2000                  
   SHA256 =  cd5a22d9368cc8b5cc476bea79732366149640da08ac9009b0e1b7fc627eea28 Fe/POTCAR             
   COPYR  = (c) Copyright 06Sep2000 Georg Kresse                                                    
   COPYR  = This file is part of the software VASP. Any use, copying, and all other rights are regul
   COPYR  = If you do not have a valid VASP license, you may not use, copy or distribute this file. 
   VRHFIN =Fe:  d7 s1                                                                               
   LEXCH  = PE                                                                                      
   EATOM  =   594.3153 eV,   43.6809 Ry                                                             
                                                                                                    
   TITEL  = PAW_PBE Fe 06Sep2000                                                                    
   LULTRA =        F    use ultrasoft PP ?                                                          
   IUNSCR =        1    unscreen: 0-lin 1-nonlin 2-no                                               
   RPACOR =    2.000    partial core radius                                                         
   POMASS =   55.847; ZVAL   =    8.000    mass and valenz                                          
   RCORE  =    2.300    outmost cutoff radius                                                       
   RWIGS  =    2.460; RWIGS  =    1.302    wigner-seitz radius (au A)                               
   ENMAX  =  267.882; ENMIN  =  200.911 eV                                                          
   RCLOC  =    1.701    cutoff for local pot                                                        
   LCOR   =        T    correct aug charges                                                         
   LPAW   =        T    paw PP                                                                      
   EAUG   =  511.368                                                                                
   DEXC   =    0.000                                                                                
   RMAX   =    2.356    core radius for proj-oper                                                   
   RAUG   =    1.300    factor for augmentation sphere                                              
   RDEP   =    2.442    radius for radial grids                                                     
   RDEPT  =    1.890    core radius for aug-charge                                                  
                                                                                                    
   Atomic configuration                                                                             
    9 entries                                                                                       
     n  l   j            E        occ.                                                              
     1  0  0.50     -6993.8440   2.0000                                                             
     2  0  0.50      -814.6047   2.0000                                                             
     2  1  1.50      -693.3689   6.0000                                                             
     3  0  0.50       -89.4732   2.0000                                                             
     3  1  1.50       -55.6373   6.0000                                                             
     3  2  2.50        -3.8151   7.0000                                                             
     4  0  0.50        -4.2551   1.0000                                                             
     4  1  1.50        -3.4015   0.0000                                                             
     4  3  2.50        -1.3606   0.0000                                                             
   Description                                                                                      
     l       E           TYP  RCUT    TYP  RCUT                                                     
     2     -3.8151135     23  2.300                                                                 
     2     -5.1756961     23  2.300                                                                 
     0     -4.2550963     23  2.300                                                                 
     0      7.2035603     23  2.300                                                                 
     1     -2.7211652     23  2.300                                                                 
     1     18.4316424     23  2.300                                                                 
  local pseudopotential read in
  partial core-charges read in
  partial kinetic energy density read in
  atomic valenz-charges read in
  non local Contribution for L=           2  read in
    real space projection operators read in
  non local Contribution for L=           2  read in
    real space projection operators read in
  non local Contribution for L=           0  read in
    real space projection operators read in
  non local Contribution for L=           0  read in
    real space projection operators read in
  non local Contribution for L=           1  read in
    real space projection operators read in
  non local Contribution for L=           1  read in
    real space projection operators read in
    PAW grid and wavefunctions read in
 
   number of l-projection  operators is LMAX  =           6
   number of lm-projection operators is LMMAX =          18
 
  PAW_PBE Fe 06Sep2000                  :
 energy of atom  1       EATOM= -594.3153
 kinetic energy error for atom=    0.0278 (will be added to EATOM!!)
 
 
 POSCAR: Fe
  positions in cartesian coordinates
  No initial velocities read in
 exchange correlation table for  LEXCH =        8
   RHO(1)=    0.500       N(1)  =     2000
   RHO(2)=  100.500       N(2)  =     4000
 


--------------------------------------------------------------------------------------------------------


 ion  position               nearest neighbor table
   1  0.000  0.000  0.000-   2 2.53   2 2.53   2 2.53   2 2.53   2 2.53   2 2.53
   2  0.333  0.667  0.500-   1 2.53   1 2.53   1 2.53   1 2.53   1 2.53   1 2.53
 
  LATTYP: Found a hexagonal cell.
 ALAT       =     2.3999000000
 C/A-ratio  =     1.7596566524
  
  Lattice vectors:
  
 A1 = (   2.3999000000,   0.0000000000,   0.0000000000)
 A2 = (  -1.1999500000,   2.0783743665,   0.0000000000)
 A3 = (   0.0000000000,   0.0000000000,   4.2230000000)


Analysis of symmetry for initial positions (statically):
=====================================================================
 Subroutine PRICEL returns:
 Original cell was already a primitive cell.
 

 Routine SETGRP: Setting up the symmetry group for a 
 hexagonal supercell.


 Subroutine GETGRP returns: Found 24 space group operations
 (whereof 12 operations were pure point group operations)
 out of a pool of 24 trial point group operations.


The static configuration has the point symmetry D_3h.
 The point group associated with its full space group is D_6h.


Analysis of symmetry for dynamics (positions and initial velocities):
=====================================================================
 Subroutine PRICEL returns:
 Original cell was already a primitive cell.
 

 Routine SETGRP: Setting up the symmetry group for a 
 hexagonal supercell.


 Subroutine GETGRP returns: Found 24 space group operations
 (whereof 12 operations were pure point group operations)
 out of a pool of 24 trial point group operations.


The dynamic configuration has the point symmetry D_3h.
 The point group associated with its full space group is D_6h.


 Subroutine INISYM returns: Found 24 space group operations
 (whereof 12 operations are pure point group operations),
 and found     1 'primitive' translations


----------------------------------------------------------------------------------------

                                     Primitive cell                                     

  volume of cell :      21.0639

  direct lattice vectors                    reciprocal lattice vectors
     2.399900000  0.000000000  0.000000000     0.416684029  0.240572636  0.000000000
    -1.199950000  2.078374367  0.000000000     0.000000000  0.481145272  0.000000000
     0.000000000  0.000000000  4.223000000     0.000000000  0.000000000  0.236798484

  length of vectors
     2.399900000  2.399900000  4.223000000     0.481145272  0.481145272  0.236798484

  position of ions in fractional coordinates (direct lattice)
     0.000000000  0.000000000  0.000000000
     0.333333333  0.666666667  0.500000000

  ion indices of the primitive-cell ions
   primitive index   ion index
                 1           1
                 2           2

----------------------------------------------------------------------------------------

 
 
 KPOINTS: KPOINTS created by Atomic Simulation Env

Automatic generation of k-mesh.
 Grid dimensions read from file:
 generate k-points for:   11   11   11

 Generating k-lattice:

  Cartesian coordinates                     Fractional coordinates (reciprocal lattice)
     0.037880366  0.021870240  0.000000000     0.090909091  0.000000000  0.000000000
     0.000000000  0.043740479  0.000000000     0.000000000  0.090909091  0.000000000
     0.000000000  0.000000000  0.021527135     0.000000000  0.000000000  0.090909091

  Length of vectors
     0.043740479  0.043740479  0.021527135

  Shift w.r.t. Gamma in fractional coordinates (k-lattice)
     0.000000000  0.000000000  0.000000000

 
 Subroutine IBZKPT returns following result:
 ===========================================
 
 Found     96 irreducible k-points:
 
 Following reciprocal coordinates:
            Coordinates               Weight
  0.000000  0.000000  0.000000      1.000000
  0.090909  0.000000  0.000000      6.000000
  0.181818  0.000000  0.000000      6.000000
  0.272727 -0.000000  0.000000      6.000000
  0.363636 -0.000000  0.000000      6.000000
  0.454545  0.000000  0.000000      6.000000
  0.090909  0.090909  0.000000      6.000000
  0.181818  0.090909  0.000000     12.000000
  0.272727  0.090909  0.000000     12.000000
  0.363636  0.090909  0.000000     12.000000
  0.454545  0.090909  0.000000      6.000000
  0.181818  0.181818  0.000000      6.000000
  0.272727  0.181818  0.000000     12.000000
  0.363636  0.181818  0.000000     12.000000
  0.272727  0.272727  0.000000      6.000000
  0.363636  0.272727  0.000000      6.000000
  0.000000  0.000000  0.090909      2.000000
  0.090909  0.000000  0.090909     12.000000
  0.181818  0.000000  0.090909     12.000000
  0.272727 -0.000000  0.090909     12.000000
  0.363636 -0.000000  0.090909     12.000000
  0.454545  0.000000  0.090909     12.000000
  0.090909  0.090909  0.090909     12.000000
  0.181818  0.090909  0.090909     24.000000
  0.272727  0.090909  0.090909     24.000000
  0.363636  0.090909  0.090909     24.000000
  0.454545  0.090909  0.090909     12.000000
  0.181818  0.181818  0.090909     12.000000
  0.272727  0.181818  0.090909     24.000000
  0.363636  0.181818  0.090909     24.000000
  0.272727  0.272727  0.090909     12.000000
  0.363636  0.272727  0.090909     12.000000
  0.000000  0.000000  0.181818      2.000000
  0.090909  0.000000  0.181818     12.000000
  0.181818  0.000000  0.181818     12.000000
  0.272727 -0.000000  0.181818     12.000000
  0.363636 -0.000000  0.181818     12.000000
  0.454545  0.000000  0.181818     12.000000
  0.090909  0.090909  0.181818     12.000000
  0.181818  0.090909  0.181818     24.000000
  0.272727  0.090909  0.181818     24.000000
  0.363636  0.090909  0.181818     24.000000
  0.454545  0.090909  0.181818     12.000000
  0.181818  0.181818  0.181818     12.000000
  0.272727  0.181818  0.181818     24.000000
  0.363636  0.181818  0.181818     24.000000
  0.272727  0.272727  0.181818     12.000000
  0.363636  0.272727  0.181818     12.000000
  0.000000  0.000000  0.272727      2.000000
  0.090909  0.000000  0.272727     12.000000
  0.181818  0.000000  0.272727     12.000000
  0.272727 -0.000000  0.272727     12.000000
  0.363636 -0.000000  0.272727     12.000000
  0.454545  0.000000  0.272727     12.000000
  0.090909  0.090909  0.272727     12.000000
  0.181818  0.090909  0.272727     24.000000
  0.272727  0.090909  0.272727     24.000000
  0.363636  0.090909  0.272727     24.000000
  0.454545  0.090909  0.272727     12.000000
  0.181818  0.181818  0.272727     12.000000
  0.272727  0.181818  0.272727     24.000000
  0.363636  0.181818  0.272727     24.000000
  0.272727  0.272727  0.272727     12.000000
  0.363636  0.272727  0.272727     12.000000
  0.000000  0.000000  0.363636      2.000000
  0.090909  0.000000  0.363636     12.000000
  0.181818  0.000000  0.363636     12.000000
  0.272727 -0.000000  0.363636     12.000000
  0.363636 -0.000000  0.363636     12.000000
  0.454545  0.000000  0.363636     12.000000
  0.090909  0.090909  0.363636     12.000000
  0.181818  0.090909  0.363636     24.000000
  0.272727  0.090909  0.363636     24.000000
  0.363636  0.090909  0.363636     24.000000
  0.454545  0.090909  0.363636     12.000000
  0.181818  0.181818  0.363636     12.000000
  0.272727  0.181818  0.363636     24.000000
  0.363636  0.181818  0.363636     24.000000
  0.272727  0.272727  0.363636     12.000000
  0.363636  0.272727  0.363636     12.000000
  0.000000  0.000000  0.454545      2.000000
  0.090909  0.000000  0.454545     12.000000
  0.181818  0.000000  0.454545     12.000000
  0.272727 -0.000000  0.454545     12.000000
  0.363636 -0.000000  0.454545     12.000000
  0.454545  0.000000  0.454545     12.000000
  0.090909  0.090909  0.454545     12.000000
  0.181818  0.090909  0.454545     24.000000
  0.272727  0.090909  0.454545     24.000000
  0.363636  0.090909  0.454545     24.000000
  0.454545  0.090909  0.454545     12.000000
  0.181818  0.181818  0.454545     12.000000
  0.272727  0.181818  0.454545     24.000000
  0.363636  0.181818  0.454545     24.000000
  0.272727  0.272727  0.454545     12.000000
  0.363636  0.272727  0.454545     12.000000
 
 Following cartesian coordinates:
            Coordinates               Weight
  0.000000  0.000000  0.000000      1.000000
  0.037880  0.021870  0.000000      6.000000
  0.075761  0.043740  0.000000      6.000000
  0.113641  0.065611  0.000000      6.000000
  0.151521  0.087481  0.000000      6.000000
  0.189402  0.109351  0.000000      6.000000
  0.037880  0.065611  0.000000      6.000000
  0.075761  0.087481  0.000000     12.000000
  0.113641  0.109351  0.000000     12.000000
  0.151521  0.131221  0.000000     12.000000
  0.189402  0.153092  0.000000      6.000000
  0.075761  0.131221  0.000000      6.000000
  0.113641  0.153092  0.000000     12.000000
  0.151521  0.174962  0.000000     12.000000
  0.113641  0.196832  0.000000      6.000000
  0.151521  0.218702  0.000000      6.000000
  0.000000  0.000000  0.021527      2.000000
  0.037880  0.021870  0.021527     12.000000
  0.075761  0.043740  0.021527     12.000000
  0.113641  0.065611  0.021527     12.000000
  0.151521  0.087481  0.021527     12.000000
  0.189402  0.109351  0.021527     12.000000
  0.037880  0.065611  0.021527     12.000000
  0.075761  0.087481  0.021527     24.000000
  0.113641  0.109351  0.021527     24.000000
  0.151521  0.131221  0.021527     24.000000
  0.189402  0.153092  0.021527     12.000000
  0.075761  0.131221  0.021527     12.000000
  0.113641  0.153092  0.021527     24.000000
  0.151521  0.174962  0.021527     24.000000
  0.113641  0.196832  0.021527     12.000000
  0.151521  0.218702  0.021527     12.000000
  0.000000  0.000000  0.043054      2.000000
  0.037880  0.021870  0.043054     12.000000
  0.075761  0.043740  0.043054     12.000000
  0.113641  0.065611  0.043054     12.000000
  0.151521  0.087481  0.043054     12.000000
  0.189402  0.109351  0.043054     12.000000
  0.037880  0.065611  0.043054     12.000000
  0.075761  0.087481  0.043054     24.000000
  0.113641  0.109351  0.043054     24.000000
  0.151521  0.131221  0.043054     24.000000
  0.189402  0.153092  0.043054     12.000000
  0.075761  0.131221  0.043054     12.000000
  0.113641  0.153092  0.043054     24.000000
  0.151521  0.174962  0.043054     24.000000
  0.113641  0.196832  0.043054     12.000000
  0.151521  0.218702  0.043054     12.000000
  0.000000  0.000000  0.064581      2.000000
  0.037880  0.021870  0.064581     12.000000
  0.075761  0.043740  0.064581     12.000000
  0.113641  0.065611  0.064581     12.000000
  0.151521  0.087481  0.064581     12.000000
  0.189402  0.109351  0.064581     12.000000
  0.037880  0.065611  0.064581     12.000000
  0.075761  0.087481  0.064581     24.000000
  0.113641  0.109351  0.064581     24.000000
  0.151521  0.131221  0.064581     24.000000
  0.189402  0.153092  0.064581     12.000000
  0.075761  0.131221  0.064581     12.000000
  0.113641  0.153092  0.064581     24.000000
  0.151521  0.174962  0.064581     24.000000
  0.113641  0.196832  0.064581     12.000000
  0.151521  0.218702  0.064581     12.000000
  0.000000  0.000000  0.086109      2.000000
  0.037880  0.021870  0.086109     12.000000
  0.075761  0.043740  0.086109     12.000000
  0.113641  0.065611  0.086109     12.000000
  0.151521  0.087481  0.086109     12.000000
  0.189402  0.109351  0.086109     12.000000
  0.037880  0.065611  0.086109     12.000000
  0.075761  0.087481  0.086109     24.000000
  0.113641  0.109351  0.086109     24.000000
  0.151521  0.131221  0.086109     24.000000
  0.189402  0.153092  0.086109     12.000000
  0.075761  0.131221  0.086109     12.000000
  0.113641  0.153092  0.086109     24.000000
  0.151521  0.174962  0.086109     24.000000
  0.113641  0.196832  0.086109     12.000000
  0.151521  0.218702  0.086109     12.000000
  0.000000  0.000000  0.107636      2.000000
  0.037880  0.021870  0.107636     12.000000
  0.075761  0.043740  0.107636     12.000000
  0.113641  0.065611  0.107636     12.000000
  0.151521  0.087481  0.107636     12.000000
  0.189402  0.109351  0.107636     12.000000
  0.037880  0.065611  0.107636     12.000000
  0.075761  0.087481  0.107636     24.000000
  0.113641  0.109351  0.107636     24.000000
  0.151521  0.131221  0.107636     24.000000
  0.189402  0.153092  0.107636     12.000000
  0.075761  0.131221  0.107636     12.000000
  0.113641  0.153092  0.107636     24.000000
  0.151521  0.174962  0.107636     24.000000
  0.113641  0.196832  0.107636     12.000000
  0.151521  0.218702  0.107636     12.000000
 


--------------------------------------------------------------------------------------------------------




 Dimension of arrays:
   k-points           NKPTS =     96   k-points in BZ     NKDIM =     96   number of bands    NBANDS=     40
   number of dos      NEDOS =    301   number of ions     NIONS =      2
   non local maximal  LDIM  =      6   non local SUM 2l+1 LMDIM =     18
   total plane-waves  NPLWV =   1800
   max r-space proj   IRMAX =      1   max aug-charges    IRDMAX=   3243
   dimension x,y,z NGX =    10 NGY =   10 NGZ =   18
   dimension x,y,z NGXF=    20 NGYF=   20 NGZF=   36
   support grid    NGXF=    20 NGYF=   20 NGZF=   36
   ions per type =               2
   NGX,Y,Z   is equivalent  to a cutoff of   6.93,  6.93,  7.09 a.u.
   NGXF,Y,Z  is equivalent  to a cutoff of  13.85, 13.85, 14.17 a.u.

 SYSTEM =  unknown system                          
 POSCAR =  Fe                                      

 Startparameter for this run:
   NWRITE =      2    write-flag & timer
   PREC   = normal    normal or accurate (medium, high low for compatibility)
   ISTART =      0    job   : 0-new  1-cont  2-samecut
   ICHARG =      1    charge: 1-file 2-atom 10-const
   ISPIN  =      1    spin polarized calculation?
   LNONCOLLINEAR =      F non collinear calculations
   LSORBIT =      F    spin-orbit coupling
   INIWAV =      1    electr: 0-lowe 1-rand  2-diag
   LASPH  =      F    aspherical Exc in radial PAW
   METAGGA=      F    non-selfconsistent MetaGGA calc.

 Electronic Relaxation 1
   ENCUT  =  280.0 eV  20.58 Ry    4.54 a.u.   3.27  3.27  5.76*2*pi/ulx,y,z
   ENINI  =  280.0     initial cutoff
   ENAUG  =  511.4 eV  augmentation charge cutoff
   NELM   =     60;   NELMIN=  2; NELMDL= -5     # of ELM steps 
   EDIFF  = 0.1E-05   stopping-criterion for ELM
   LREAL  =      F    real-space projection
   NLSPLINE    = F    spline interpolate recip. space projectors
   LCOMPAT=      F    compatible to vasp.4.4
   GGA_COMPAT  = T    GGA compatible to vasp.4.4-vasp.4.6
   LMAXPAW     = -100 max onsite density
   LMAXMIX     =    2 max onsite mixed and CHGCAR
   VOSKOWN=      0    Vosko Wilk Nusair interpolation
   ROPT   =    0.00000
 Ionic relaxation
   EDIFFG = 0.1E-04   stopping-criterion for IOM
   NSW    =      0    number of steps for IOM
   NBLOCK =      1;   KBLOCK =      1    inner block; outer block 
   IBRION =     -1    ionic relax: 0-MD 1-quasi-New 2-CG
   NFREE  =      0    steps in history (QN), initial steepest desc. (CG)
   ISIF   =      2    stress and relaxation
   IWAVPR =      0    prediction:  0-non 1-charg 2-wave 3-comb
   ISYM   =      2    0-nonsym 1-usesym 2-fastsym
   LCORR  =      T    Harris-Foulkes like correction to forces

   POTIM  = 0.5000    time-step for ionic-motion
   TEIN   =    0.0    initial temperature
   TEBEG  =    0.0;   TEEND  =   0.0 temperature during run
   SMASS  =  -3.00    Nose mass-parameter (am)
   estimated Nose-frequenzy (Omega)   =  0.10E-29 period in steps = 0.13E+47 mass=  -0.132E-27a.u.
   SCALEE = 1.0000    scale energy and forces
   NPACO  =    256;   APACO  = 16.0  distance and # of slots for P.C.
   PSTRESS=    0.0 pullay stress

  Mass of Ions in am
   POMASS =  55.85
  Ionic Valenz
   ZVAL   =   8.00
  Atomic Wigner-Seitz radii
   RWIGS  =  -1.00
  virtual crystal weights 
   VCA    =   1.00
   NELECT =      16.0000    total number of electrons
   NUPDOWN=      -1.0000    fix difference up-down

 DOS related values:
   EMIN   =  10.00;   EMAX   =-10.00  energy-range for DOS
   EFERMI =   0.00
   ISMEAR =     1;   SIGMA  =   0.20  broadening in eV -4-tet -1-fermi 0-gaus

 Electronic relaxation 2 (details)
   IALGO  =     38    algorithm
   LDIAG  =      T    sub-space diagonalisation (order eigenvalues)
   LSUBROT=      F    optimize rotation matrix (better conditioning)
   TURBO    =      0    0=normal 1=particle mesh
   IRESTART =      0    0=no restart 2=restart with 2 vectors
   NREBOOT  =      0    no. of reboots
   NMIN     =      0    reboot dimension
   EREF     =   0.00    reference energy to select bands
   IMIX   =      4    mixing-type and parameters
     AMIX     =   0.40;   BMIX     =  1.00
     AMIX_MAG =   1.60;   BMIX_MAG =  1.00
     AMIN     =   0.10
     WC   =   100.;   INIMIX=   1;  MIXPRE=   1;  MAXMIX= -45

 Intra band minimization:
   WEIMIN = 0.0000     energy-eigenvalue tresh-hold
   EBREAK =  0.62E-08  absolut break condition
   DEPER  =   0.30     relativ break condition  

   TIME   =   0.40     timestep for ELM

  volume/ion in A,a.u.               =      10.53        71.07
  Fermi-wavevector in a.u.,A,eV,Ry     =   1.493719  2.822719 30.357259  2.231196
  Thomas-Fermi vector in A             =   2.606083
 
 Write flags
   LWAVE        =      T    write WAVECAR
   LDOWNSAMPLE  =      F    k-point downsampling of WAVECAR
   LCHARG       =      T    write CHGCAR
   LVTOT        =      F    write LOCPOT, total local potential
   LVHAR        =      F    write LOCPOT, Hartree potential only
   LELF         =      F    write electronic localiz. function (ELF)
   LORBIT       =      0    0 simple, 1 ext, 2 COOP (PROOUT), +10 PAW based schemes


 Dipole corrections
   LMONO  =      F    monopole corrections only (constant potential shift)
   LDIPOL =      F    correct potential (dipole corrections)
   IDIPOL =      0    1-x, 2-y, 3-z, 4-all directions 
   EPSILON=  1.0000000 bulk dielectric constant

 Exchange correlation treatment:
   GGA     =    PE    GGA type
   LEXCH   =     8    internal setting for exchange type
   VOSKOWN=      0    Vosko Wilk Nusair interpolation
   LHFCALC =     F    Hartree Fock is set to
   LHFONE  =     F    Hartree Fock one center treatment
   AEXX    =    0.0000 exact exchange contribution

 Linear response parameters
   LEPSILON=     F    determine dielectric tensor
   LRPA    =     F    only Hartree local field effects (RPA)
   LNABLA  =     F    use nabla operator in PAW spheres
   LVEL    =     F    velocity operator in full k-point grid
   LINTERFAST=   F  fast interpolation
   KINTER  =     0    interpolate to denser k-point grid
   CSHIFT  =0.1000    complex shift for real part using Kramers Kronig
   OMEGAMAX=  -1.0    maximum frequency
   DEG_THRESHOLD= 0.2000000E-02 threshold for treating states as degnerate
   RTIME   =   -0.100 relaxation time in fs
  (WPLASMAI=    0.000 imaginary part of plasma frequency in eV, 0.658/RTIME)
   DFIELD  = 0.0000000 0.0000000 0.0000000 field for delta impulse in time
 
 Orbital magnetization related:
   ORBITALMAG=     F  switch on orbital magnetization
   LCHIMAG   =     F  perturbation theory with respect to B field
   DQ        =  0.001000  dq finite difference perturbation B field
   LLRAUG    =     F  two centre corrections for induced B field



--------------------------------------------------------------------------------------------------------


 Static calculation
 charge density and potential will be updated during run
 non-spin polarized calculation
 Variant of blocked Davidson
 Davidson routine will perform the subspace rotation
 perform sub-space diagonalisation
    after iterative eigenvector-optimisation
 modified Broyden-mixing scheme, WC =      100.0
 initial mixing is a Kerker type mixing with AMIX =  0.4000 and BMIX =      1.0000
 Hartree-type preconditioning will be used
 using additional bands           32
 reciprocal scheme for non local part
 use partial core corrections
 calculate Harris-corrections to forces 
   (improved forces if not selfconsistent)
 use gradient corrections 
 use of overlap-Matrix (Vanderbilt PP)
 Methfessel and Paxton  Order N= 1 SIGMA  =   0.20


--------------------------------------------------------------------------------------------------------


  energy-cutoff  :      280.00
  volume of cell :       21.06
      direct lattice vectors                 reciprocal lattice vectors
     2.399900000  0.000000000  0.000000000     0.416684029  0.240572636  0.000000000
    -1.199950000  2.078374367  0.000000000     0.000000000  0.481145272  0.000000000
     0.000000000  0.000000000  4.223000000     0.000000000  0.000000000  0.236798484

  length of vectors
     2.399900000  2.399900000  4.223000000     0.481145272  0.481145272  0.236798484


 
 k-points in units of 2pi/SCALE and weight: KPOINTS created by Atomic Simulation Env
   0.00000000  0.00000000  0.00000000       0.001
   0.03788037  0.02187024  0.00000000       0.005
   0.07576073  0.04374048  0.00000000       0.005
   0.11364110  0.06561072  0.00000000       0.005
   0.15152146  0.08748096  0.00000000       0.005
   0.18940183  0.10935120  0.00000000       0.005
   0.03788037  0.06561072  0.00000000       0.005
   0.07576073  0.08748096  0.00000000       0.009
   0.11364110  0.10935120  0.00000000       0.009
   0.15152146  0.13122144  0.00000000       0.009
   0.18940183  0.15309168  0.00000000       0.005
   0.07576073  0.13122144  0.00000000       0.005
   0.11364110  0.15309168  0.00000000       0.009
   0.15152146  0.17496192  0.00000000       0.009
   0.11364110  0.19683216  0.00000000       0.005
   0.15152146  0.21870240  0.00000000       0.005
   0.00000000  0.00000000  0.02152713       0.002
   0.03788037  0.02187024  0.02152713       0.009
   0.07576073  0.04374048  0.02152713       0.009
   0.11364110  0.06561072  0.02152713       0.009
   0.15152146  0.08748096  0.02152713       0.009
   0.18940183  0.10935120  0.02152713       0.009
   0.03788037  0.06561072  0.02152713       0.009
   0.07576073  0.08748096  0.02152713       0.018
   0.11364110  0.10935120  0.02152713       0.018
   0.15152146  0.13122144  0.02152713       0.018
   0.18940183  0.15309168  0.02152713       0.009
   0.07576073  0.13122144  0.02152713       0.009
   0.11364110  0.15309168  0.02152713       0.018
   0.15152146  0.17496192  0.02152713       0.018
   0.11364110  0.19683216  0.02152713       0.009
   0.15152146  0.21870240  0.02152713       0.009
   0.00000000  0.00000000  0.04305427       0.002
   0.03788037  0.02187024  0.04305427       0.009
   0.07576073  0.04374048  0.04305427       0.009
   0.11364110  0.06561072  0.04305427       0.009
   0.15152146  0.08748096  0.04305427       0.009
   0.18940183  0.10935120  0.04305427       0.009
   0.03788037  0.06561072  0.04305427       0.009
   0.07576073  0.08748096  0.04305427       0.018
   0.11364110  0.10935120  0.04305427       0.018
   0.15152146  0.13122144  0.04305427       0.018
   0.18940183  0.15309168  0.04305427       0.009
   0.07576073  0.13122144  0.04305427       0.009
   0.11364110  0.15309168  0.04305427       0.018
   0.15152146  0.17496192  0.04305427       0.018
   0.11364110  0.19683216  0.04305427       0.009
   0.15152146  0.21870240  0.04305427       0.009
   0.00000000  0.00000000  0.06458140       0.002
   0.03788037  0.02187024  0.06458140       0.009
   0.07576073  0.04374048  0.06458140       0.009
   0.11364110  0.06561072  0.06458140       0.009
   0.15152146  0.08748096  0.06458140       0.009
   0.18940183  0.10935120  0.06458140       0.009
   0.03788037  0.06561072  0.06458140       0.009
   0.07576073  0.08748096  0.06458140       0.018
   0.11364110  0.10935120  0.06458140       0.018
   0.15152146  0.13122144  0.06458140       0.018
   0.18940183  0.15309168  0.06458140       0.009
   0.07576073  0.13122144  0.06458140       0.009
   0.11364110  0.15309168  0.06458140       0.018
   0.15152146  0.17496192  0.06458140       0.018
   0.11364110  0.19683216  0.06458140       0.009
   0.15152146  0.21870240  0.06458140       0.009
   0.00000000  0.00000000  0.08610854       0.002
   0.03788037  0.02187024  0.08610854       0.009
   0.07576073  0.04374048  0.08610854       0.009
   0.11364110  0.06561072  0.08610854       0.009
   0.15152146  0.08748096  0.08610854       0.009
   0.18940183  0.10935120  0.08610854       0.009
   0.03788037  0.06561072  0.08610854       0.009
   0.07576073  0.08748096  0.08610854       0.018
   0.11364110  0.10935120  0.08610854       0.018
   0.15152146  0.13122144  0.08610854       0.018
   0.18940183  0.15309168  0.08610854       0.009
   0.07576073  0.13122144  0.08610854       0.009
   0.11364110  0.15309168  0.08610854       0.018
   0.15152146  0.17496192  0.08610854       0.018
   0.11364110  0.19683216  0.08610854       0.009
   0.15152146  0.21870240  0.08610854       0.009
   0.00000000  0.00000000  0.10763567       0.002
   0.03788037  0.02187024  0.10763567       0.009
   0.07576073  0.04374048  0.10763567       0.009
   0.11364110  0.06561072  0.10763567       0.009
   0.15152146  0.08748096  0.10763567       0.009
   0.18940183  0.10935120  0.10763567       0.009
   0.03788037  0.06561072  0.10763567       0.009
   0.07576073  0.08748096  0.10763567       0.018
   0.11364110  0.10935120  0.10763567       0.018
   0.15152146  0.13122144  0.10763567       0.018
   0.18940183  0.15309168  0.10763567       0.009
   0.07576073  0.13122144  0.10763567       0.009
   0.11364110  0.15309168  0.10763567       0.018
   0.15152146  0.17496192  0.10763567       0.018
   0.11364110  0.19683216  0.10763567       0.009
   0.15152146  0.21870240  0.10763567       0.009
 
 k-points in reciprocal lattice and weights: KPOINTS created by Atomic Simulation Env
   0.00000000  0.00000000  0.00000000       0.001
   0.09090909  0.00000000  0.00000000       0.005
   0.18181818  0.00000000  0.00000000       0.005
   0.27272727 -0.00000000  0.00000000       0.005
   0.36363636 -0.00000000  0.00000000       0.005
   0.45454545  0.00000000  0.00000000       0.005
   0.09090909  0.09090909  0.00000000       0.005
   0.18181818  0.09090909  0.00000000       0.009
   0.27272727  0.09090909  0.00000000       0.009
   0.36363636  0.09090909  0.00000000       0.009
   0.45454545  0.09090909  0.00000000       0.005
   0.18181818  0.18181818  0.00000000       0.005
   0.27272727  0.18181818  0.00000000       0.009
   0.36363636  0.18181818  0.00000000       0.009
   0.27272727  0.27272727  0.00000000       0.005
   0.36363636  0.27272727  0.00000000       0.005
   0.00000000  0.00000000  0.09090909       0.002
   0.09090909  0.00000000  0.09090909       0.009
   0.18181818  0.00000000  0.09090909       0.009
   0.27272727 -0.00000000  0.09090909       0.009
   0.36363636 -0.00000000  0.09090909       0.009
   0.45454545  0.00000000  0.09090909       0.009
   0.09090909  0.09090909  0.09090909       0.009
   0.18181818  0.09090909  0.09090909       0.018
   0.27272727  0.09090909  0.09090909       0.018
   0.36363636  0.09090909  0.09090909       0.018
   0.45454545  0.09090909  0.09090909       0.009
   0.18181818  0.18181818  0.09090909       0.009
   0.27272727  0.18181818  0.09090909       0.018
   0.36363636  0.18181818  0.09090909       0.018
   0.27272727  0.27272727  0.09090909       0.009
   0.36363636  0.27272727  0.09090909       0.009
   0.00000000  0.00000000  0.18181818       0.002
   0.09090909  0.00000000  0.18181818       0.009
   0.18181818  0.00000000  0.18181818       0.009
   0.27272727 -0.00000000  0.18181818       0.009
   0.36363636 -0.00000000  0.18181818       0.009
   0.45454545  0.00000000  0.18181818       0.009
   0.09090909  0.09090909  0.18181818       0.009
   0.18181818  0.09090909  0.18181818       0.018
   0.27272727  0.09090909  0.18181818       0.018
   0.36363636  0.09090909  0.18181818       0.018
   0.45454545  0.09090909  0.18181818       0.009
   0.18181818  0.18181818  0.18181818       0.009
   0.27272727  0.18181818  0.18181818       0.018
   0.36363636  0.18181818  0.18181818       0.018
   0.27272727  0.27272727  0.18181818       0.009
   0.36363636  0.27272727  0.18181818       0.009
   0.00000000  0.00000000  0.27272727       0.002
   0.09090909  0.00000000  0.27272727       0.009
   0.18181818  0.00000000  0.27272727       0.009
   0.27272727 -0.00000000  0.27272727       0.009
   0.36363636 -0.00000000  0.27272727       0.009
   0.45454545  0.00000000  0.27272727       0.009
   0.09090909  0.09090909  0.27272727       0.009
   0.18181818  0.09090909  0.27272727       0.018
   0.27272727  0.09090909  0.27272727       0.018
   0.36363636  0.09090909  0.27272727       0.018
   0.45454545  0.09090909  0.27272727       0.009
   0.18181818  0.18181818  0.27272727       0.009
   0.27272727  0.18181818  0.27272727       0.018
   0.36363636  0.18181818  0.27272727       0.018
   0.27272727  0.27272727  0.27272727       0.009
   0.36363636  0.27272727  0.27272727       0.009
   0.00000000  0.00000000  0.36363636       0.002
   0.09090909  0.00000000  0.36363636       0.009
   0.18181818  0.00000000  0.36363636       0.009
   0.27272727 -0.00000000  0.36363636       0.009
   0.36363636 -0.00000000  0.36363636       0.009
   0.45454545  0.00000000  0.36363636       0.009
   0.09090909  0.09090909  0.36363636       0.009
   0.18181818  0.09090909  0.36363636       0.018
   0.27272727  0.09090909  0.36363636       0.018
   0.36363636  0.09090909  0.36363636       0.018
   0.45454545  0.09090909  0.36363636       0.009
   0.18181818  0.18181818  0.36363636       0.009
   0.27272727  0.18181818  0.36363636       0.018
   0.36363636  0.18181818  0.36363636       0.018
   0.27272727  0.27272727  0.36363636       0.009
   0.36363636  0.27272727  0.36363636       0.009
   0.00000000  0.00000000  0.45454545       0.002
   0.09090909  0.00000000  0.45454545       0.009
   0.18181818  0.00000000  0.45454545       0.009
   0.27272727 -0.00000000  0.45454545       0.009
   0.36363636 -0.00000000  0.45454545       0.009
   0.45454545  0.00000000  0.45454545       0.009
   0.09090909  0.09090909  0.45454545       0.009
   0.18181818  0.09090909  0.45454545       0.018
   0.27272727  0.09090909  0.45454545       0.018
   0.36363636  0.09090909  0.45454545       0.018
   0.45454545  0.09090909  0.45454545       0.009
   0.18181818  0.18181818  0.45454545       0.009
   0.27272727  0.18181818  0.45454545       0.018
   0.36363636  0.18181818  0.45454545       0.018
   0.27272727  0.27272727  0.45454545       0.009
   0.36363636  0.27272727  0.45454545       0.009
 
 position of ions in fractional coordinates (direct lattice) 
   0.00000000  0.00000000  0.00000000
   0.33333333  0.66666667  0.50000000
 
 position of ions in cartesian coordinates  (Angst):
   0.00000000  0.00000000  0.00000000
   0.00000000  1.38558291  2.11150000
 


--------------------------------------------------------------------------------------------------------


 k-point   1 :   0.0000 0.0000 0.0000  plane waves:     245
 k-point   2 :   0.0909 0.0000 0.0000  plane waves:     227
 k-point   3 :   0.1818 0.0000 0.0000  plane waves:     224
 k-point   4 :   0.2727-0.0000 0.0000  plane waves:     222
 k-point   5 :   0.3636-0.0000 0.0000  plane waves:     224
 k-point   6 :   0.4545 0.0000 0.0000  plane waves:     226
 k-point   7 :   0.0909 0.0909 0.0000  plane waves:     225
 k-point   8 :   0.1818 0.0909 0.0000  plane waves:     224
 k-point   9 :   0.2727 0.0909 0.0000  plane waves:     223
 k-point  10 :   0.3636 0.0909 0.0000  plane waves:     223
 k-point  11 :   0.4545 0.0909 0.0000  plane waves:     222
 k-point  12 :   0.1818 0.1818 0.0000  plane waves:     225
 k-point  13 :   0.2727 0.1818 0.0000  plane waves:     226
 k-point  14 :   0.3636 0.1818 0.0000  plane waves:     222
 k-point  15 :   0.2727 0.2727 0.0000  plane waves:     221
 k-point  16 :   0.3636 0.2727 0.0000  plane waves:     218
 k-point  17 :   0.0000 0.0000 0.0909  plane waves:     227
 k-point  18 :   0.0909 0.0000 0.0909  plane waves:     231
 k-point  19 :   0.1818 0.0000 0.0909  plane waves:     222
 k-point  20 :   0.2727-0.0000 0.0909  plane waves:     224
 k-point  21 :   0.3636-0.0000 0.0909  plane waves:     227
 k-point  22 :   0.4545 0.0000 0.0909  plane waves:     225
 k-point  23 :   0.0909 0.0909 0.0909  plane waves:     223
 k-point  24 :   0.1818 0.0909 0.0909  plane waves:     225
 k-point  25 :   0.2727 0.0909 0.0909  plane waves:     225
 k-point  26 :   0.3636 0.0909 0.0909  plane waves:     223
 k-point  27 :   0.4545 0.0909 0.0909  plane waves:     220
 k-point  28 :   0.1818 0.1818 0.0909  plane waves:     225
 k-point  29 :   0.2727 0.1818 0.0909  plane waves:     225
 k-point  30 :   0.3636 0.1818 0.0909  plane waves:     225
 k-point  31 :   0.2727 0.2727 0.0909  plane waves:     221
 k-point  32 :   0.3636 0.2727 0.0909  plane waves:     216
 k-point  33 :   0.0000 0.0000 0.1818  plane waves:     227
 k-point  34 :   0.0909 0.0000 0.1818  plane waves:     228
 k-point  35 :   0.1818 0.0000 0.1818  plane waves:     226
 k-point  36 :   0.2727-0.0000 0.1818  plane waves:     221
 k-point  37 :   0.3636-0.0000 0.1818  plane waves:     224
 k-point  38 :   0.4545 0.0000 0.1818  plane waves:     227
 k-point  39 :   0.0909 0.0909 0.1818  plane waves:     225
 k-point  40 :   0.1818 0.0909 0.1818  plane waves:     226
 k-point  41 :   0.2727 0.0909 0.1818  plane waves:     225
 k-point  42 :   0.3636 0.0909 0.1818  plane waves:     224
 k-point  43 :   0.4545 0.0909 0.1818  plane waves:     221
 k-point  44 :   0.1818 0.1818 0.1818  plane waves:     225
 k-point  45 :   0.2727 0.1818 0.1818  plane waves:     221
 k-point  46 :   0.3636 0.1818 0.1818  plane waves:     224
 k-point  47 :   0.2727 0.2727 0.1818  plane waves:     222
 k-point  48 :   0.3636 0.2727 0.1818  plane waves:     224
 k-point  49 :   0.0000 0.0000 0.2727  plane waves:     228
 k-point  50 :   0.0909 0.0000 0.2727  plane waves:     228
 k-point  51 :   0.1818 0.0000 0.2727  plane waves:     226
 k-point  52 :   0.2727-0.0000 0.2727  plane waves:     220
 k-point  53 :   0.3636-0.0000 0.2727  plane waves:     221
 k-point  54 :   0.4545 0.0000 0.2727  plane waves:     227
 k-point  55 :   0.0909 0.0909 0.2727  plane waves:     233
 k-point  56 :   0.1818 0.0909 0.2727  plane waves:     222
 k-point  57 :   0.2727 0.0909 0.2727  plane waves:     223
 k-point  58 :   0.3636 0.0909 0.2727  plane waves:     224
 k-point  59 :   0.4545 0.0909 0.2727  plane waves:     221
 k-point  60 :   0.1818 0.1818 0.2727  plane waves:     223
 k-point  61 :   0.2727 0.1818 0.2727  plane waves:     223
 k-point  62 :   0.3636 0.1818 0.2727  plane waves:     222
 k-point  63 :   0.2727 0.2727 0.2727  plane waves:     222
 k-point  64 :   0.3636 0.2727 0.2727  plane waves:     224
 k-point  65 :   0.0000 0.0000 0.3636  plane waves:     228
 k-point  66 :   0.0909 0.0000 0.3636  plane waves:     229
 k-point  67 :   0.1818 0.0000 0.3636  plane waves:     228
 k-point  68 :   0.2727-0.0000 0.3636  plane waves:     220
 k-point  69 :   0.3636-0.0000 0.3636  plane waves:     219
 k-point  70 :   0.4545 0.0000 0.3636  plane waves:     225
 k-point  71 :   0.0909 0.0909 0.3636  plane waves:     228
 k-point  72 :   0.1818 0.0909 0.3636  plane waves:     222
 k-point  73 :   0.2727 0.0909 0.3636  plane waves:     221
 k-point  74 :   0.3636 0.0909 0.3636  plane waves:     225
 k-point  75 :   0.4545 0.0909 0.3636  plane waves:     226
 k-point  76 :   0.1818 0.1818 0.3636  plane waves:     220
 k-point  77 :   0.2727 0.1818 0.3636  plane waves:     222
 k-point  78 :   0.3636 0.1818 0.3636  plane waves:     226
 k-point  79 :   0.2727 0.2727 0.3636  plane waves:     221
 k-point  80 :   0.3636 0.2727 0.3636  plane waves:     227
 k-point  81 :   0.0000 0.0000 0.4545  plane waves:     228
 k-point  82 :   0.0909 0.0000 0.4545  plane waves:     225
 k-point  83 :   0.1818 0.0000 0.4545  plane waves:     227
 k-point  84 :   0.2727-0.0000 0.4545  plane waves:     222
 k-point  85 :   0.3636-0.0000 0.4545  plane waves:     220
 k-point  86 :   0.4545 0.0000 0.4545  plane waves:     225
 k-point  87 :   0.0909 0.0909 0.4545  plane waves:     222
 k-point  88 :   0.1818 0.0909 0.4545  plane waves:     223
 k-point  89 :   0.2727 0.0909 0.4545  plane waves:     223
 k-point  90 :   0.3636 0.0909 0.4545  plane waves:     222
 k-point  91 :   0.4545 0.0909 0.4545  plane waves:     231
 k-point  92 :   0.1818 0.1818 0.4545  plane waves:     222
 k-point  93 :   0.2727 0.1818 0.4545  plane waves:     223
 k-point  94 :   0.3636 0.1818 0.4545  plane waves:     227
 k-point  95 :   0.2727 0.2727 0.4545  plane waves:     226
 k-point  96 :   0.3636 0.2727 0.4545  plane waves:     226

 maximum number of plane-waves:       245
 maximum index in each direction: 
   IXMAX=    3   IYMAX=    3   IZMAX=    5
   IXMIN=   -3   IYMIN=   -3   IZMIN=   -6


 total amount of memory used by VASP MPI-rank0    51501. kBytes
=======================================================================

   base      :      30000. kBytes
   nonl-proj :       3394. kBytes
   grid      :        812. kBytes
   one-center:         31. kBytes
   wavefun   :      17264. kBytes
 
     INWAV:  cpu time    0.0000: real time    0.0000
 Broyden mixing: mesh for mixing (old mesh)
   NGX =  7   NGY =  7   NGZ = 11
  (NGX  = 20   NGY  = 20   NGZ  = 36)
  gives a total of    539 points

 initial charge density was supplied:
 charge density of overlapping atoms calculated
 number of electron      16.0000000 magnetization 
 keeping initial charge density in first step


--------------------------------------------------------------------------------------------------------


 Maximum index for augmentation-charges         2958 (set IRDMAX)


--------------------------------------------------------------------------------------------------------


 First call to EWALD:  gamma=   0.642
 Maximum number of real-space cells 3x 3x 2
 Maximum number of reciprocal cells 2x 2x 4

    FEWALD:  cpu time    0.0009: real time    0.0009


--------------------------------------- Iteration      1(   1)  ---------------------------------------


    POTLOK:  cpu time    0.0035: real time    0.0035
    SETDIJ:  cpu time    0.0022: real time    0.0022
     EDDAV:  cpu time    0.8157: real time    0.8341
       DOS:  cpu time    0.0056: real time    0.0056
    --------------------------------------------
      LOOP:  cpu time    0.8271: real time    0.8454

 eigenvalue-minimisations  :  9032
 total energy-change (2. order) : 0.6066756E+02  (-0.2697715E+03)
 number of electron      16.0000000 magnetization 
 augmentation part       16.0000000 magnetization 

 Free energy of the ion-electron system (eV)
  ---------------------------------------------------
  alpha Z        PSCENC =       131.24616066
  Ewald energy   TEWEN  =     -1213.29476925
  -Hartree energ DENC   =      -212.47967449
  -exchange      EXHF   =         0.00000000
  -V(xc)+E(xc)   XCENC  =         8.28625907
  PAW double counting   =      1109.69170683    -1125.09647265
  entropy T*S    EENTRO =        -0.00010757
  eigenvalues    EBANDS =       173.73955289
  atomic energy  EATOM  =      1188.57490811
  Solvation  Ediel_sol  =         0.00000000
  ---------------------------------------------------
  free energy    TOTEN  =        60.66756359 eV

  energy without entropy =       60.66767116  energy(sigma->0) =       60.66759944


--------------------------------------------------------------------------------------------------------




--------------------------------------- Iteration      1(   2)  ---------------------------------------


     EDDAV:  cpu time    0.6915: real time    0.6915
       DOS:  cpu time    0.0063: real time    0.0063
    --------------------------------------------
      LOOP:  cpu time    0.6978: real time    0.6978

 eigenvalue-minimisations  :  7912
 total energy-change (2. order) :-0.7545689E+02  (-0.6427079E+02)
 number of electron      16.0000000 magnetization 
 augmentation part       16.0000000 magnetization 

 Free energy of the ion-electron system (eV)
  ---------------------------------------------------
  alpha Z        PSCENC =       131.24616066
  Ewald energy   TEWEN  =     -1213.29476925
  -Hartree energ DENC   =      -212.47967449
  -exchange      EXHF   =         0.00000000
  -V(xc)+E(xc)   XCENC  =         8.28625907
  PAW double counting   =      1109.69170683    -1125.09647265
  entropy T*S    EENTRO =        -0.00255869
  eigenvalues    EBANDS =        98.28511057
  atomic energy  EATOM  =      1188.57490811
  Solvation  Ediel_sol  =         0.00000000
  ---------------------------------------------------
  free energy    TOTEN  =       -14.78932985 eV

  energy without entropy =      -14.78677116  energy(sigma->0) =      -14.78847695


--------------------------------------------------------------------------------------------------------




--------------------------------------- Iteration      1(   3)  ---------------------------------------


     EDDAV:  cpu time    0.7932: real time    0.7932
       DOS:  cpu time    0.0061: real time    0.0061
    --------------------------------------------
      LOOP:  cpu time    0.7993: real time    0.7993

 eigenvalue-minimisations  :  9496
 total energy-change (2. order) :-0.4445706E+01  (-0.4200846E+01)
 number of electron      16.0000000 magnetization 
 augmentation part       16.0000000 magnetization 

 Free energy of the ion-electron system (eV)
  ---------------------------------------------------
  alpha Z        PSCENC =       131.24616066
  Ewald energy   TEWEN  =     -1213.29476925
  -Hartree energ DENC   =      -212.47967449
  -exchange      EXHF   =         0.00000000
  -V(xc)+E(xc)   XCENC  =         8.28625907
  PAW double counting   =      1109.69170683    -1125.09647265
  entropy T*S    EENTRO =         0.00072146
  eigenvalues    EBANDS =        93.83612457
  atomic energy  EATOM  =      1188.57490811
  Solvation  Ediel_sol  =         0.00000000
  ---------------------------------------------------
  free energy    TOTEN  =       -19.23503570 eV

  energy without entropy =      -19.23575717  energy(sigma->0) =      -19.23527619


--------------------------------------------------------------------------------------------------------




--------------------------------------- Iteration      1(   4)  ---------------------------------------


     EDDAV:  cpu time    0.7678: real time    0.7678
       DOS:  cpu time    0.0067: real time    0.0067
    --------------------------------------------
      LOOP:  cpu time    0.7745: real time    0.7746

 eigenvalue-minimisations  :  9152
 total energy-change (2. order) :-0.2163520E-01  (-0.2162043E-01)
 number of electron      16.0000000 magnetization 
 augmentation part       16.0000000 magnetization 

 Free energy of the ion-electron system (eV)
  ---------------------------------------------------
  alpha Z        PSCENC =       131.24616066
  Ewald energy   TEWEN  =     -1213.29476925
  -Hartree energ DENC   =      -212.47967449
  -exchange      EXHF   =         0.00000000
  -V(xc)+E(xc)   XCENC  =         8.28625907
  PAW double counting   =      1109.69170683    -1125.09647265
  entropy T*S    EENTRO =         0.00076639
  eigenvalues    EBANDS =        93.81444444
  atomic energy  EATOM  =      1188.57490811
  Solvation  Ediel_sol  =         0.00000000
  ---------------------------------------------------
  free energy    TOTEN  =       -19.25667090 eV

  energy without entropy =      -19.25743730  energy(sigma->0) =      -19.25692637


--------------------------------------------------------------------------------------------------------




--------------------------------------- Iteration      1(   5)  ---------------------------------------


     EDDAV:  cpu time    0.7673: real time    0.7673
       DOS:  cpu time    0.0062: real time    0.0062
    CHARGE:  cpu time    0.0195: real time    0.0195
    MIXING:  cpu time    0.0002: real time    0.0002
    --------------------------------------------
      LOOP:  cpu time    0.7932: real time    0.7932

 eigenvalue-minimisations  :  9192
 total energy-change (2. order) :-0.3049754E-04  (-0.3049574E-04)
 number of electron      15.9999862 magnetization 
 augmentation part        7.0531764 magnetization 

 Broyden mixing:
  rms(total) = 0.16476E+01    rms(broyden)= 0.16476E+01
  rms(prec ) = 0.28884E+01
  weight for this iteration     100.00

 Free energy of the ion-electron system (eV)
  ---------------------------------------------------
  alpha Z        PSCENC =       131.24616066
  Ewald energy   TEWEN  =     -1213.29476925
  -Hartree energ DENC   =      -212.47967449
  -exchange      EXHF   =         0.00000000
  -V(xc)+E(xc)   XCENC  =         8.28625907
  PAW double counting   =      1109.69170683    -1125.09647265
  entropy T*S    EENTRO =         0.00076644
  eigenvalues    EBANDS =        93.81441389
  atomic energy  EATOM  =      1188.57490811
  Solvation  Ediel_sol  =         0.00000000
  ---------------------------------------------------
  free energy    TOTEN  =       -19.25670140 eV

  energy without entropy =      -19.25746784  energy(sigma->0) =      -19.25695688


--------------------------------------------------------------------------------------------------------




--------------------------------------- Iteration      1(   6)  ---------------------------------------


    POTLOK:  cpu time    0.0033: real time    0.0033
    SETDIJ:  cpu time    0.0021: real time    0.0021
     EDDAV:  cpu time    0.9123: real time    0.9124
       DOS:  cpu time    0.0067: real time    0.0067
    CHARGE:  cpu time    0.0194: real time    0.0194
    MIXING:  cpu time    0.0002: real time    0.0002
    --------------------------------------------
      LOOP:  cpu time    0.9440: real time    0.9441

 eigenvalue-minimisations  : 11160
 total energy-change (2. order) : 0.2890170E+01  (-0.1963194E+00)
 number of electron      15.9999827 magnetization 
 augmentation part        8.5358125 magnetization 

 Broyden mixing:
  rms(total) = 0.29451E+00    rms(broyden)= 0.29440E+00
  rms(prec ) = 0.51342E+00
  weight for this iteration     100.00

 eigenvalues of (default mixing * dielectric matrix)
  average eigenvalue GAMMA=   0.8962
  0.8962

 Free energy of the ion-electron system (eV)
  ---------------------------------------------------
  alpha Z        PSCENC =       131.24616066
  Ewald energy   TEWEN  =     -1213.29476925
  -Hartree energ DENC   =      -177.02298546
  -exchange      EXHF   =         0.00000000
  -V(xc)+E(xc)   XCENC  =         6.55792097
  PAW double counting   =      1236.78867789    -1247.45207876
  entropy T*S    EENTRO =         0.00304046
  eigenvalues    EBANDS =        58.23259363
  atomic energy  EATOM  =      1188.57490811
  Solvation  Ediel_sol  =         0.00000000
  ---------------------------------------------------
  free energy    TOTEN  =       -16.36653175 eV

  energy without entropy =      -16.36957221  energy(sigma->0) =      -16.36754524


--------------------------------------------------------------------------------------------------------




--------------------------------------- Iteration      1(   7)  ---------------------------------------


    POTLOK:  cpu time    0.0034: real time    0.0034
    SETDIJ:  cpu time    0.0021: real time    0.0021
     EDDAV:  cpu time    0.8300: real time    0.8300
       DOS:  cpu time    0.0067: real time    0.0067
    CHARGE:  cpu time    0.0193: real time    0.0193
    MIXING:  cpu time    0.0002: real time    0.0002
    --------------------------------------------
      LOOP:  cpu time    0.8617: real time    0.8617

 eigenvalue-minimisations  : 10136
 total energy-change (2. order) : 0.2372080E+00  (-0.1494265E-01)
 number of electron      15.9999835 magnetization 
 augmentation part        8.1846029 magnetization 

 Broyden mixing:
  rms(total) = 0.10121E+00    rms(broyden)= 0.10121E+00
  rms(prec ) = 0.20257E+00
  weight for this iteration     100.00

 eigenvalues of (default mixing * dielectric matrix)
  average eigenvalue GAMMA=   0.9462
  1.1665  0.7260

 Free energy of the ion-electron system (eV)
  ---------------------------------------------------
  alpha Z        PSCENC =       131.24616066
  Ewald energy   TEWEN  =     -1213.29476925
  -Hartree energ DENC   =      -182.19514608
  -exchange      EXHF   =         0.00000000
  -V(xc)+E(xc)   XCENC  =         6.84192386
  PAW double counting   =      1309.30616107    -1323.60359037
  entropy T*S    EENTRO =         0.00303642
  eigenvalues    EBANDS =        66.99199184
  atomic energy  EATOM  =      1188.57490811
  Solvation  Ediel_sol  =         0.00000000
  ---------------------------------------------------
  free energy    TOTEN  =       -16.12932375 eV

  energy without entropy =      -16.13236017  energy(sigma->0) =      -16.13033589


--------------------------------------------------------------------------------------------------------




--------------------------------------- Iteration      1(   8)  ---------------------------------------


    POTLOK:  cpu time    0.0033: real time    0.0033
    SETDIJ:  cpu time    0.0021: real time    0.0021
     EDDAV:  cpu time    0.8360: real time    0.8360
       DOS:  cpu time    0.0069: real time    0.0068
    CHARGE:  cpu time    0.0202: real time    0.0202
    MIXING:  cpu time    0.0002: real time    0.0002
    --------------------------------------------
      LOOP:  cpu time    0.8687: real time    0.8687

 eigenvalue-minimisations  : 10152
 total energy-change (2. order) : 0.2537961E-01  (-0.4170206E-03)
 number of electron      15.9999834 magnetization 
 augmentation part        8.2162677 magnetization 

 Broyden mixing:
  rms(total) = 0.47257E-01    rms(broyden)= 0.47256E-01
  rms(prec ) = 0.93430E-01
  weight for this iteration     100.00

 eigenvalues of (default mixing * dielectric matrix)
  average eigenvalue GAMMA=   1.4384
  0.7703  1.0418  2.5030

 Free energy of the ion-electron system (eV)
  ---------------------------------------------------
  alpha Z        PSCENC =       131.24616066
  Ewald energy   TEWEN  =     -1213.29476925
  -Hartree energ DENC   =      -180.15567420
  -exchange      EXHF   =         0.00000000
  -V(xc)+E(xc)   XCENC  =         6.76135831
  PAW double counting   =      1363.23469441    -1378.77033124
  entropy T*S    EENTRO =         0.00310352
  eigenvalues    EBANDS =        66.29660555
  atomic energy  EATOM  =      1188.57490811
  Solvation  Ediel_sol  =         0.00000000
  ---------------------------------------------------
  free energy    TOTEN  =       -16.10394414 eV

  energy without entropy =      -16.10704766  energy(sigma->0) =      -16.10497865


--------------------------------------------------------------------------------------------------------




--------------------------------------- Iteration      1(   9)  ---------------------------------------


    POTLOK:  cpu time    0.0034: real time    0.0034
    SETDIJ:  cpu time    0.0021: real time    0.0021
     EDDAV:  cpu time    0.9114: real time    0.9114
       DOS:  cpu time    0.0065: real time    0.0065
    CHARGE:  cpu time    0.0201: real time    0.0201
    MIXING:  cpu time    0.0002: real time    0.0002
    --------------------------------------------
      LOOP:  cpu time    0.9437: real time    0.9437

 eigenvalue-minimisations  : 11240
 total energy-change (2. order) : 0.1087875E-01  (-0.9063433E-04)
 number of electron      15.9999833 magnetization 
 augmentation part        8.2330642 magnetization 

 Broyden mixing:
  rms(total) = 0.60663E-02    rms(broyden)= 0.60636E-02
  rms(prec ) = 0.63941E-02
  weight for this iteration     100.00

 eigenvalues of (default mixing * dielectric matrix)
  average eigenvalue GAMMA=   1.5004
  2.5575  0.7691  0.9998  1.6751

 Free energy of the ion-electron system (eV)
  ---------------------------------------------------
  alpha Z        PSCENC =       131.24616066
  Ewald energy   TEWEN  =     -1213.29476925
  -Hartree energ DENC   =      -178.04297811
  -exchange      EXHF   =         0.00000000
  -V(xc)+E(xc)   XCENC  =         6.68521813
  PAW double counting   =      1437.47437737    -1454.72685192
  entropy T*S    EENTRO =         0.00310035
  eigenvalues    EBANDS =        65.98776928
  atomic energy  EATOM  =      1188.57490811
  Solvation  Ediel_sol  =         0.00000000
  ---------------------------------------------------
  free energy    TOTEN  =       -16.09306540 eV

  energy without entropy =      -16.09616574  energy(sigma->0) =      -16.09409885


--------------------------------------------------------------------------------------------------------




--------------------------------------- Iteration      1(  10)  ---------------------------------------


    POTLOK:  cpu time    0.0034: real time    0.0034
    SETDIJ:  cpu time    0.0021: real time    0.0021
     EDDAV:  cpu time    0.7530: real time    0.7530
       DOS:  cpu time    0.0066: real time    0.0066
    CHARGE:  cpu time    0.0196: real time    0.0196
    MIXING:  cpu time    0.0003: real time    0.0003
    --------------------------------------------
      LOOP:  cpu time    0.7850: real time    0.7850

 eigenvalue-minimisations  :  8976
 total energy-change (2. order) :-0.2841818E-04  (-0.3788779E-05)
 number of electron      15.9999833 magnetization 
 augmentation part        8.2335757 magnetization 

 Broyden mixing:
  rms(total) = 0.26517E-02    rms(broyden)= 0.26503E-02
  rms(prec ) = 0.32363E-02
  weight for this iteration     100.00

 eigenvalues of (default mixing * dielectric matrix)
  average eigenvalue GAMMA=   1.6157
  2.5486  2.5486  0.7691  1.0105  1.2016

 Free energy of the ion-electron system (eV)
  ---------------------------------------------------
  alpha Z        PSCENC =       131.24616066
  Ewald energy   TEWEN  =     -1213.29476925
  -Hartree energ DENC   =      -178.03873279
  -exchange      EXHF   =         0.00000000
  -V(xc)+E(xc)   XCENC  =         6.68618466
  PAW double counting   =      1440.13970734    -1457.38050120
  entropy T*S    EENTRO =         0.00309479
  eigenvalues    EBANDS =        65.97085387
  atomic energy  EATOM  =      1188.57490811
  Solvation  Ediel_sol  =         0.00000000
  ---------------------------------------------------
  free energy    TOTEN  =       -16.09309382 eV

  energy without entropy =      -16.09618861  energy(sigma->0) =      -16.09412541


--------------------------------------------------------------------------------------------------------




--------------------------------------- Iteration      1(  11)  ---------------------------------------


    POTLOK:  cpu time    0.0034: real time    0.0034
    SETDIJ:  cpu time    0.0021: real time    0.0021
     EDDAV:  cpu time    0.7739: real time    0.7739
       DOS:  cpu time    0.0062: real time    0.0062
    CHARGE:  cpu time    0.0193: real time    0.0193
    MIXING:  cpu time    0.0002: real time    0.0002
    --------------------------------------------
      LOOP:  cpu time    0.8053: real time    0.8053

 eigenvalue-minimisations  :  9160
 total energy-change (2. order) : 0.5850313E-05  (-0.4655412E-07)
 number of electron      15.9999833 magnetization 
 augmentation part        8.2332902 magnetization 

 Broyden mixing:
  rms(total) = 0.17943E-03    rms(broyden)= 0.17901E-03
  rms(prec ) = 0.20894E-03
  weight for this iteration     100.00

 eigenvalues of (default mixing * dielectric matrix)
  average eigenvalue GAMMA=   1.5392
  2.5707  2.5707  0.7690  1.0033  1.0033  1.3180

 Free energy of the ion-electron system (eV)
  ---------------------------------------------------
  alpha Z        PSCENC =       131.24616066
  Ewald energy   TEWEN  =     -1213.29476925
  -Hartree energ DENC   =      -178.09416571
  -exchange      EXHF   =         0.00000000
  -V(xc)+E(xc)   XCENC  =         6.68892410
  PAW double counting   =      1440.07359496    -1457.26321770
  entropy T*S    EENTRO =         0.00309472
  eigenvalues    EBANDS =        65.97238214
  atomic energy  EATOM  =      1188.57490811
  Solvation  Ediel_sol  =         0.00000000
  ---------------------------------------------------
  free energy    TOTEN  =       -16.09308797 eV

  energy without entropy =      -16.09618269  energy(sigma->0) =      -16.09411954


--------------------------------------------------------------------------------------------------------




--------------------------------------- Iteration      1(  12)  ---------------------------------------


    POTLOK:  cpu time    0.0034: real time    0.0034
    SETDIJ:  cpu time    0.0021: real time    0.0021
     EDDAV:  cpu time    0.6083: real time    0.6083
       DOS:  cpu time    0.0068: real time    0.0068
    --------------------------------------------
      LOOP:  cpu time    0.6206: real time    0.6206

 eigenvalue-minimisations  :  5904
 total energy-change (2. order) : 0.5019879E-06  (-0.4818996E-08)
 number of electron      15.9999833 magnetization 
 augmentation part        8.2332902 magnetization 

 Free energy of the ion-electron system (eV)
  ---------------------------------------------------
  alpha Z        PSCENC =       131.24616066
  Ewald energy   TEWEN  =     -1213.29476925
  -Hartree energ DENC   =      -178.09747932
  -exchange      EXHF   =         0.00000000
  -V(xc)+E(xc)   XCENC  =         6.68910251
  PAW double counting   =      1440.17273911    -1457.35845531
  entropy T*S    EENTRO =         0.00309502
  eigenvalues    EBANDS =        65.97161100
  atomic energy  EATOM  =      1188.57490811
  Solvation  Ediel_sol  =         0.00000000
  ---------------------------------------------------
  free energy    TOTEN  =       -16.09308746 eV

  energy without entropy =      -16.09618248  energy(sigma->0) =      -16.09411914


--------------------------------------------------------------------------------------------------------




 average (electrostatic) potential at core
  the test charge radii are     1.0103
  (the norm of the test charge is              1.0000)
       1 -42.9688       2 -42.9687
 
 
 
 E-fermi :   6.5213     XC(G=0): -13.5975     alpha+bet :-14.7176

 Fermi energy:         6.5212910050

 k-point     1 :       0.0000    0.0000    0.0000
  band No.  band energies     occupation 
      1      -2.1800      2.00000
      2       1.6970      2.00000
      3       4.4365      2.00000
      4       5.0286      2.00000
      5       5.0287      2.00000
      6       5.3204      2.00000
      7       5.3206      2.00000
      8       5.8649      2.00004
      9       6.2159      2.05289
     10       6.2160      2.05290
     11       7.2251     -0.00001
     12       7.2251     -0.00001
     13      13.5013      0.00000
     14      29.6407      0.00000
     15      29.6661      0.00000
     16      32.5331      0.00000
     17      34.4305      0.00000
     18      34.4305      0.00000
     19      35.2508      0.00000
     20      35.2510      0.00000
     21      36.0170      0.00000
     22      38.2735      0.00000
     23      38.2735      0.00000
     24      39.2922      0.00000
     25      41.6532      0.00000
     26      41.6532      0.00000
     27      42.1739      0.00000
     28      45.1065      0.00000
     29      45.1069      0.00000
     30      46.8541      0.00000
     31      46.8543      0.00000
     32      49.2824      0.00000
     33      57.0894      0.00000
     34      60.5951      0.00000
     35      60.5964      0.00000
     36      61.1836      0.00000
     37      61.7859      0.00000
     38      62.4472      0.00000
     39      62.4674      0.00000
     40      62.8728      0.00000

 k-point     2 :       0.0909    0.0000    0.0000
  band No.  band energies     occupation 
      1      -1.8586      2.00000
      2       1.9358      2.00000
      3       4.4448      2.00000
      4       4.9759      2.00000
      5       5.0536      2.00000
      6       5.2121      2.00000
      7       5.2146      2.00000
      8       5.4903      2.00000
      9       6.0787      2.00758
     10       6.1121      2.01374
     11       7.2599     -0.00000
     12       8.3049     -0.00000
     13      13.5299      0.00000
     14      28.2489      0.00000
     15      30.0109      0.00000
     16      30.7550      0.00000
     17      31.7362      0.00000
     18      34.2268      0.00000
     19      34.3264      0.00000
     20      35.8605      0.00000
     21      37.6470      0.00000
     22      38.1646      0.00000
     23      38.3009      0.00000
     24      38.8482      0.00000
     25      42.5173      0.00000
     26      42.7941      0.00000
     27      42.8813      0.00000
     28      43.3211      0.00000
     29      46.5892      0.00000
     30      48.2501      0.00000
     31      49.3487      0.00000
     32      51.3275      0.00000
     33      56.6562      0.00000
     34      58.9462      0.00000
     35      59.2471      0.00000
     36      59.7621      0.00000
     37      60.6403      0.00000
     38      62.8454      0.00000
     39      63.6767      0.00000
     40      64.5165      0.00000

 k-point     3 :       0.1818    0.0000    0.0000
  band No.  band energies     occupation 
      1      -0.9458      2.00000
      2       2.5037      2.00000
      3       4.0487      2.00000
      4       4.2685      2.00000
      5       4.8052      2.00000
      6       5.3329      2.00000
      7       5.7209      2.00000
      8       5.7455      2.00000
      9       5.8637      2.00003
     10       5.9605      2.00054
     11       7.3092     -0.00000
     12      10.0660     -0.00000
     13      13.6398      0.00000
     14      24.4250      0.00000
     15      28.9780      0.00000
     16      29.5204      0.00000
     17      29.9462      0.00000
     18      31.0200      0.00000
     19      34.5078      0.00000
     20      35.5871      0.00000
     21      35.9640      0.00000
     22      36.7113      0.00000
     23      39.0758      0.00000
     24      39.8796      0.00000
     25      42.5665      0.00000
     26      43.9224      0.00000
     27      45.5142      0.00000
     28      47.6480      0.00000
     29      49.1545      0.00000
     30      51.9340      0.00000
     31      52.2413      0.00000
     32      54.8232      0.00000
     33      55.3987      0.00000
     34      55.7895      0.00000
     35      57.4905      0.00000
     36      59.1500      0.00000
     37      60.3047      0.00000
     38      62.6042      0.00000
     39      65.0274      0.00000
     40      65.0541      0.00000

 k-point     4 :       0.2727   -0.0000    0.0000
  band No.  band energies     occupation 
      1       0.3656      2.00000
      2       2.8063      2.00000
      3       3.2793      2.00000
      4       4.2105      2.00000
      5       4.6289      2.00000
      6       5.3239      2.00000
      7       5.5805      2.00000
      8       6.0307      2.00285
      9       6.4443      1.60081
     10       6.6173      0.28236
     11       7.3370     -0.00000
     12      12.0692      0.00000
     13      13.8892      0.00000
     14      20.4556      0.00000
     15      26.3385      0.00000
     16      26.6299      0.00000
     17      27.7966      0.00000
     18      30.9660      0.00000
     19      32.5657      0.00000
     20      35.7552      0.00000
     21      36.0090      0.00000
     22      36.4182      0.00000
     23      36.6803      0.00000
     24      40.3625      0.00000
     25      46.1997      0.00000
     26      47.7441      0.00000
     27      48.9442      0.00000
     28      50.0372      0.00000
     29      51.0098      0.00000
     30      52.2337      0.00000
     31      53.6753      0.00000
     32      54.7876      0.00000
     33      57.3062      0.00000
     34      57.3171      0.00000
     35      58.1794      0.00000
     36      59.5577      0.00000
     37      61.7875      0.00000
     38      62.3154      0.00000
     39      64.7071      0.00000
     40      65.5251      0.00000

 k-point     5 :       0.3636   -0.0000    0.0000
  band No.  band energies     occupation 
      1       1.5866      2.00000
      2       2.5718      2.00000
      3       2.7754      2.00000
      4       4.3580      2.00000
      5       4.9487      2.00000
      6       4.9957      2.00000
      7       5.3446      2.00000
      8       7.1680     -0.00005
      9       7.1809     -0.00003
     10       7.2761     -0.00000
     11       7.3421     -0.00000
     12      13.8674      0.00000
     13      14.2304      0.00000
     14      17.5655      0.00000
     15      23.0871      0.00000
     16      24.8408      0.00000
     17      24.9181      0.00000
     18      30.1272      0.00000
     19      31.5389      0.00000
     20      34.6990      0.00000
     21      35.5596      0.00000
     22      37.2162      0.00000
     23      37.7292      0.00000
     24      40.6664      0.00000
     25      47.6989      0.00000
     26      48.9402      0.00000
     27      49.7180      0.00000
     28      52.8376      0.00000
     29      52.9605      0.00000
     30      53.5965      0.00000
     31      55.7768      0.00000
     32      56.7774      0.00000
     33      56.8991      0.00000
     34      58.8670      0.00000
     35      60.7473      0.00000
     36      62.0218      0.00000
     37      62.4387      0.00000
     38      63.4513      0.00000
     39      65.4150      0.00000
     40      65.6805      0.00000

 k-point     6 :       0.4545    0.0000    0.0000
  band No.  band energies     occupation 
      1       2.1271      2.00000
      2       2.3292      2.00000
      3       2.5291      2.00000
      4       4.7292      2.00000
      5       4.8582      2.00000
      6       5.2125      2.00000
      7       5.2213      2.00000
      8       7.3376     -0.00000
      9       7.6133     -0.00000
     10       7.7205     -0.00000
     11       8.7779     -0.00000
     12      12.0843      0.00000
     13      16.2931      0.00000
     14      17.5465      0.00000
     15      20.4913      0.00000
     16      22.2342      0.00000
     17      23.8460      0.00000
     18      29.5259      0.00000
     19      31.2183      0.00000
     20      33.6111      0.00000
     21      35.3424      0.00000
     22      38.0377      0.00000
     23      40.0652      0.00000
     24      40.5088      0.00000
     25      44.3530      0.00000
     26      49.2092      0.00000
     27      51.1097      0.00000
     28      55.2695      0.00000
     29      55.3894      0.00000
     30      56.0839      0.00000
     31      57.0314      0.00000
     32      58.7948      0.00000
     33      59.2574      0.00000
     34      60.4157      0.00000
     35      60.9991      0.00000
     36      61.3276      0.00000
     37      63.9663      0.00000
     38      64.4843      0.00000
     39      64.5169      0.00000
     40      65.3358      0.00000

 k-point     7 :       0.0909    0.0909    0.0000
  band No.  band energies     occupation 
      1      -1.2392      2.00000
      2       2.3557      2.00000
      3       4.3051      2.00000
      4       4.3107      2.00000
      5       5.0095      2.00000
      6       5.0417      2.00000
      7       5.5840      2.00000
      8       5.7149      2.00000
      9       5.8559      2.00003
     10       6.0772      2.00736
     11       7.2681     -0.00000
     12       9.5739     -0.00000
     13      13.6017      0.00000
     14      26.1870      0.00000
     15      27.3290      0.00000
     16      30.5038      0.00000
     17      31.6205      0.00000
     18      32.8976      0.00000
     19      33.1904      0.00000
     20      34.5107      0.00000
     21      35.5056      0.00000
     22      39.6456      0.00000
     23      40.1882      0.00000
     24      40.6208      0.00000
     25      41.8160      0.00000
     26      41.8869      0.00000
     27      42.1131      0.00000
     28      48.2613      0.00000
     29      50.0954      0.00000
     30      50.1144      0.00000
     31      50.2427      0.00000
     32      54.3198      0.00000
     33      55.9019      0.00000
     34      56.6275      0.00000
     35      57.5196      0.00000
     36      59.0727      0.00000
     37      60.0918      0.00000
     38      63.1898      0.00000
     39      64.9249      0.00000
     40      65.0605      0.00000

 k-point     8 :       0.1818    0.0909    0.0000
  band No.  band energies     occupation 
      1      -0.1053      2.00000
      2       2.9036      2.00000
      3       3.5571      2.00000
      4       4.0126      2.00000
      5       4.7268      2.00000
      6       5.3086      2.00000
      7       5.4489      2.00000
      8       5.8405      2.00002
      9       6.2487      2.06607
     10       6.5300      0.92612
     11       7.2689     -0.00000
     12      11.3632     -0.00000
     13      13.8224      0.00000
     14      22.4838      0.00000
     15      25.0230      0.00000
     16      28.1724      0.00000
     17      30.3229      0.00000
     18      30.5351      0.00000
     19      33.5567      0.00000
     20      33.8217      0.00000
     21      34.7132      0.00000
     22      38.9711      0.00000
     23      39.5409      0.00000
     24      40.3433      0.00000
     25      43.5029      0.00000
     26      44.5620      0.00000
     27      46.4277      0.00000
     28      50.1676      0.00000
     29      52.5553      0.00000
     30      52.8246      0.00000
     31      53.0865      0.00000
     32      55.1756      0.00000
     33      56.2421      0.00000
     34      56.4109      0.00000
     35      57.4826      0.00000
     36      57.8429      0.00000
     37      60.9878      0.00000
     38      63.4992      0.00000
     39      65.1596      0.00000
     40      65.5527      0.00000

 k-point     9 :       0.2727    0.0909    0.0000
  band No.  band energies     occupation 
      1       1.2420      2.00000
      2       2.8815      2.00000
      3       3.0000      2.00000
      4       4.0690      2.00000
      5       4.7809      2.00000
      6       4.9717      2.00000
      7       5.4985      2.00000
      8       6.1706      2.03255
      9       6.9754     -0.00607
     10       7.2600     -0.00000
     11       7.4092     -0.00000
     12      13.4201      0.00000
     13      14.1986      0.00000
     14      18.8272      0.00000
     15      23.3652      0.00000
     16      24.7988      0.00000
     17      27.1870      0.00000
     18      29.1815      0.00000
     19      32.7004      0.00000
     20      33.8868      0.00000
     21      35.3249      0.00000
     22      38.6349      0.00000
     23      38.9875      0.00000
     24      41.6858      0.00000
     25      45.3833      0.00000
     26      48.2138      0.00000
     27      49.4748      0.00000
     28      49.8137      0.00000
     29      51.4092      0.00000
     30      53.7342      0.00000
     31      55.1477      0.00000
     32      56.4301      0.00000
     33      57.3930      0.00000
     34      58.1925      0.00000
     35      59.9476      0.00000
     36      61.9686      0.00000
     37      62.8005      0.00000
     38      63.3354      0.00000
     39      64.0120      0.00000
     40      65.8041      0.00000

 k-point    10 :       0.3636    0.0909    0.0000
  band No.  band energies     occupation 
      1       2.1482      2.00000
      2       2.5858      2.00000
      3       2.6719      2.00000
      4       4.4303      2.00000
      5       4.7632      2.00000
      6       5.1308      2.00000
      7       5.2025      2.00000
      8       7.0349     -0.00170
      9       7.2457     -0.00000
     10       7.4774     -0.00000
     11       8.5437     -0.00000
     12      13.4595      0.00000
     13      15.6048      0.00000
     14      17.3376      0.00000
     15      21.8257      0.00000
     16      22.0640      0.00000
     17      23.9902      0.00000
     18      28.3223      0.00000
     19      31.7542      0.00000
     20      33.3822      0.00000
     21      36.5517      0.00000
     22      39.0864      0.00000
     23      39.8725      0.00000
     24      41.3022      0.00000
     25      46.3170      0.00000
     26      48.1150      0.00000
     27      49.7881      0.00000
     28      51.7713      0.00000
     29      52.9971      0.00000
     30      55.4217      0.00000
     31      56.3188      0.00000
     32      58.1248      0.00000
     33      59.2392      0.00000
     34      61.0880      0.00000
     35      61.4246      0.00000
     36      62.4145      0.00000
     37      63.0523      0.00000
     38      63.9573      0.00000
     39      65.1187      0.00000
     40      65.5943      0.00000

 k-point    11 :       0.4545    0.0909    0.0000
  band No.  band energies     occupation 
      1       2.3603      2.00000
      2       2.4558      2.00000
      3       2.5649      2.00000
      4       4.6971      2.00000
      5       4.7896      2.00000
      6       5.0822      2.00000
      7       5.2357      2.00000
      8       7.2380     -0.00000
      9       7.5284     -0.00000
     10       7.5503     -0.00000
     11       9.7324     -0.00000
     12      11.7838     -0.00000
     13      17.1012      0.00000
     14      17.9975      0.00000
     15      20.0712      0.00000
     16      21.1843      0.00000
     17      22.6090      0.00000
     18      28.0207      0.00000
     19      31.3738      0.00000
[...]
     18      26.0510      0.00000
     19      31.2313      0.00000
     20      32.0418      0.00000
     21      35.0574      0.00000
     22      35.6261      0.00000
     23      40.5439      0.00000
     24      41.7189      0.00000
     25      47.2874      0.00000
     26      49.0370      0.00000
     27      51.0589      0.00000
     28      51.9174      0.00000
     29      54.3447      0.00000
     30      56.2446      0.00000
     31      58.0307      0.00000
     32      58.1946      0.00000
     33      60.2657      0.00000
     34      60.5077      0.00000
     35      61.7195      0.00000
     36      61.9538      0.00000
     37      63.1679      0.00000
     38      63.4352      0.00000
     39      65.0039      0.00000
     40      65.5677      0.00000

 k-point    91 :       0.4545    0.0909    0.4545
  band No.  band energies     occupation 
      1       2.0373      2.00000
      2       2.1718      2.00000
      3       3.3499      2.00000
      4       3.4330      2.00000
      5       5.5264      2.00000
      6       5.9045      2.00012
      7       6.5081      1.11112
      8       6.7937     -0.06614
      9       7.3903     -0.00000
     10       7.4137     -0.00000
     11       9.6703     -0.00000
     12      10.1368     -0.00000
     13      15.7785      0.00000
     14      15.8087      0.00000
     15      23.9423      0.00000
     16      24.7000      0.00000
     17      25.6045      0.00000
     18      26.0849      0.00000
     19      30.8432      0.00000
     20      31.1290      0.00000
     21      34.4850      0.00000
     22      34.6136      0.00000
     23      40.5989      0.00000
     24      41.7847      0.00000
     25      47.3789      0.00000
     26      49.1286      0.00000
     27      53.9454      0.00000
     28      55.2106      0.00000
     29      55.6909      0.00000
     30      56.1726      0.00000
     31      56.3797      0.00000
     32      57.0038      0.00000
     33      60.9416      0.00000
     34      61.0105      0.00000
     35      62.6989      0.00000
     36      62.7116      0.00000
     37      63.4233      0.00000
     38      63.6163      0.00000
     39      66.0062      0.00000
     40      66.2823      0.00000

 k-point    92 :       0.1818    0.1818    0.4545
  band No.  band energies     occupation 
      1       1.9786      2.00000
      2       2.2636      2.00000
      3       3.8603      2.00000
      4       3.9267      2.00000
      5       4.3506      2.00000
      6       4.4056      2.00000
      7       5.8637      2.00003
      8       6.0860      2.00869
      9       7.1916     -0.00002
     10       7.3197     -0.00000
     11       7.7756     -0.00000
     12       8.2721     -0.00000
     13      21.8891      0.00000
     14      22.0008      0.00000
     15      22.5612      0.00000
     16      23.4386      0.00000
     17      23.8999      0.00000
     18      24.9905      0.00000
     19      35.2710      0.00000
     20      36.3174      0.00000
     21      37.0154      0.00000
     22      38.0645      0.00000
     23      39.3797      0.00000
     24      39.5201      0.00000
     25      45.3674      0.00000
     26      45.7664      0.00000
     27      49.8159      0.00000
     28      50.7511      0.00000
     29      52.2976      0.00000
     30      53.3146      0.00000
     31      55.0747      0.00000
     32      55.6312      0.00000
     33      57.8413      0.00000
     34      57.9202      0.00000
     35      59.7936      0.00000
     36      60.1302      0.00000
     37      63.0145      0.00000
     38      63.9566      0.00000
     39      64.9206      0.00000
     40      65.2781      0.00000

 k-point    93 :       0.2727    0.1818    0.4545
  band No.  band energies     occupation 
      1       2.4094      2.00000
      2       2.5181      2.00000
      3       3.6886      2.00000
      4       3.8689      2.00000
      5       4.6412      2.00000
      6       4.7761      2.00000
      7       5.7762      2.00000
      8       5.9974      2.00133
      9       7.2856     -0.00000
     10       7.5250     -0.00000
     11       9.2033     -0.00000
     12       9.7040     -0.00000
     13      18.8096      0.00000
     14      19.3721      0.00000
     15      21.4852      0.00000
     16      22.1915      0.00000
     17      24.3344      0.00000
     18      26.0141      0.00000
     19      33.0107      0.00000
     20      34.5930      0.00000
     21      35.5766      0.00000
     22      37.0485      0.00000
     23      40.2068      0.00000
     24      40.6532      0.00000
     25      46.8110      0.00000
     26      47.3262      0.00000
     27      50.8841      0.00000
     28      52.7274      0.00000
     29      54.3440      0.00000
     30      56.1621      0.00000
     31      57.0820      0.00000
     32      57.9369      0.00000
     33      59.2385      0.00000
     34      59.4339      0.00000
     35      60.7870      0.00000
     36      60.9522      0.00000
     37      62.2769      0.00000
     38      63.4573      0.00000
     39      64.9905      0.00000
     40      65.3557      0.00000

 k-point    94 :       0.3636    0.1818    0.4545
  band No.  band energies     occupation 
      1       2.4739      2.00000
      2       2.6122      2.00000
      3       3.5946      2.00000
      4       3.7679      2.00000
      5       4.7666      2.00000
      6       5.0640      2.00000
      7       6.0738      2.00690
      8       6.1848      2.03864
      9       7.2584     -0.00000
     10       7.4170     -0.00000
     11      10.8675     -0.00000
     12      11.2897     -0.00000
     13      16.2317      0.00000
     14      16.6034      0.00000
     15      20.8858      0.00000
     16      21.6087      0.00000
     17      25.9233      0.00000
     18      27.0029      0.00000
     19      31.3469      0.00000
     20      32.3965      0.00000
     21      34.6786      0.00000
     22      36.1492      0.00000
     23      40.8120      0.00000
     24      41.1570      0.00000
     25      50.2305      0.00000
     26      50.9097      0.00000
     27      51.2829      0.00000
     28      52.9377      0.00000
     29      54.9537      0.00000
     30      55.5632      0.00000
     31      56.0371      0.00000
     32      57.5791      0.00000
     33      59.7113      0.00000
     34      60.3660      0.00000
     35      61.7700      0.00000
     36      62.5505      0.00000
     37      63.8007      0.00000
     38      63.8617      0.00000
     39      64.7257      0.00000
     40      65.0667      0.00000

 k-point    95 :       0.2727    0.2727    0.4545
  band No.  band energies     occupation 
      1       2.8588      2.00000
      2       2.9013      2.00000
      3       3.7818      2.00000
      4       3.9894      2.00000
      5       4.3489      2.00000
      6       4.5424      2.00000
      7       5.6805      2.00000
      8       5.8706      2.00004
      9       7.2713     -0.00000
     10       7.4436     -0.00000
     11      11.2664     -0.00000
     12      11.7764     -0.00000
     13      17.3538      0.00000
     14      17.7575      0.00000
     15      19.0400      0.00000
     16      19.4155      0.00000
     17      26.0616      0.00000
     18      27.6311      0.00000
     19      31.4766      0.00000
     20      32.8121      0.00000
     21      34.4333      0.00000
     22      35.4822      0.00000
     23      43.1268      0.00000
     24      43.5204      0.00000
     25      47.0816      0.00000
     26      47.1979      0.00000
     27      53.6232      0.00000
     28      54.4924      0.00000
     29      55.0160      0.00000
     30      55.8481      0.00000
     31      57.3277      0.00000
     32      57.5526      0.00000
     33      58.5636      0.00000
     34      58.6953      0.00000
     35      60.5307      0.00000
     36      61.4842      0.00000
     37      63.6428      0.00000
     38      63.8402      0.00000
     39      64.7710      0.00000
     40      64.8269      0.00000

 k-point    96 :       0.3636    0.2727    0.4545
  band No.  band energies     occupation 
      1       3.0557      2.00000
      2       3.1744      2.00000
      3       3.7243      2.00000
      4       3.8116      2.00000
      5       4.3512      2.00000
      6       4.4700      2.00000
      7       5.7337      2.00000
      8       5.8784      2.00005
      9       7.2495     -0.00000
     10       7.3126     -0.00000
     11      13.0581      0.00000
     12      13.1834      0.00000
     13      15.6955      0.00000
     14      16.0085      0.00000
     15      18.3956      0.00000
     16      18.8399      0.00000
     17      27.7608      0.00000
     18      28.4082      0.00000
     19      30.5307      0.00000
     20      30.9132      0.00000
     21      34.1429      0.00000
     22      34.9518      0.00000
     23      44.2389      0.00000
     24      44.8502      0.00000
     25      48.8947      0.00000
     26      49.3126      0.00000
     27      51.3012      0.00000
     28      51.6863      0.00000
     29      55.0814      0.00000
     30      56.2049      0.00000
     31      57.4967      0.00000
     32      58.5882      0.00000
     33      58.6970      0.00000
     34      59.3356      0.00000
     35      60.4081      0.00000
     36      61.4214      0.00000
     37      62.8813      0.00000
     38      63.0316      0.00000
     39      66.3635      0.00000
     40      66.3740      0.00000


--------------------------------------------------------------------------------------------------------


 soft charge-density along one line, spin component           1
         0         1         2         3         4         5         6         7         8         9
x     7.7667    0.0000    0.1127   -0.1951   -0.0610   -0.1056    0.0157    0.0000    0.0018   -0.0032
x     0.0000    0.0000
y     7.7667    0.0000    0.1127    0.1951   -0.0610    0.1056    0.0157   -0.0000    0.0018    0.0032
y     0.0000    0.0000
z     7.7667    0.0000    0.0000   -0.0000    0.5536    0.0000    0.0000    0.0000   -0.1752   -0.0000
z     0.0000    0.0000    0.0146    0.0000    0.0000    0.0000    0.0084   -0.0000    0.0000    0.0000
 total charge-density along one line
x    16.0000    0.0000    1.5162   -2.6262    0.3245    0.5621    0.0444    0.0000    0.0003   -0.0006
x     0.0005    0.0008   -0.0009    0.0000    0.0001   -0.0002   -0.0001   -0.0001    0.0002   -0.0000
x    -0.0000    0.0000
y    16.0000    0.0000    1.5162    2.6262    0.3245   -0.5621    0.0444   -0.0000    0.0003    0.0006
y     0.0005   -0.0008   -0.0009   -0.0000    0.0001    0.0002   -0.0001    0.0001    0.0002    0.0000
y    -0.0000   -0.0000
z    16.0000    0.0000   -0.0000    0.0000    6.2380   -0.0000   -0.0000    0.0000    1.4572   -0.0000
z    -0.0000   -0.0000    0.0646    0.0000   -0.0000   -0.0000    0.0001    0.0000   -0.0000    0.0000
z     0.0033   -0.0000    0.0000    0.0000   -0.0015    0.0000    0.0000    0.0000    0.0008    0.0000
z     0.0000   -0.0000   -0.0005    0.0000   -0.0000    0.0000    0.0004   -0.0000
 
 pseudopotential strength for first ion, spin component:           1
 -4.656   0.000  -0.000  -0.000  -0.000  -5.213   0.000  -0.000
  0.000  -4.650  -0.000  -0.000   0.000   0.000  -5.208  -0.000
 -0.000  -0.000  -4.658  -0.000  -0.000  -0.000  -0.000  -5.216
 -0.000  -0.000  -0.000  -4.650   0.000  -0.000  -0.000  -0.000
 -0.000   0.000  -0.000   0.000  -4.656  -0.000   0.000  -0.000
 -5.213   0.000  -0.000  -0.000  -0.000  -5.729   0.000  -0.000
  0.000  -5.208  -0.000  -0.000   0.000   0.000  -5.723  -0.000
 -0.000  -0.000  -5.216  -0.000  -0.000  -0.000  -0.000  -5.731
 -0.000  -0.000  -0.000  -5.208   0.000  -0.000  -0.000  -0.000
 -0.000   0.000  -0.000   0.000  -5.213  -0.000   0.000  -0.000
  0.000   0.000   0.001   0.000  -0.000   0.000   0.000   0.001
  0.000   0.000   0.002   0.000  -0.000   0.000   0.000   0.002
 -0.000   0.000   0.000   0.000  -0.001  -0.000   0.000   0.000
  0.000  -0.000   0.000   0.000   0.000   0.000  -0.000   0.000
 -0.001   0.000   0.000   0.000  -0.000  -0.001   0.000   0.000
 -0.000   0.000   0.000   0.000  -0.001  -0.000   0.000   0.000
  0.000  -0.000   0.000  -0.000   0.000   0.000  -0.000   0.000
 -0.001   0.000   0.000   0.000  -0.000  -0.001   0.000   0.000
 total augmentation occupancy for first ion, spin component:           1
  1.566   0.000   0.000   0.000   0.000  -0.837   0.000  -0.000   0.000  -0.000  -0.000  -0.000   0.000   0.000   0.031  -0.000
 -0.000   2.035   0.000  -0.000   0.000   0.000  -1.078   0.000   0.000   0.000   0.000   0.000  -0.000   0.000  -0.000  -0.000
  0.000   0.000   1.290  -0.000  -0.000  -0.000  -0.000  -0.607  -0.000   0.000   0.037  -0.010  -0.000   0.000   0.000   0.000
  0.000  -0.000   0.000   2.035   0.000   0.000   0.000  -0.000  -1.078   0.000  -0.000   0.000  -0.000   0.000  -0.000   0.000
  0.000  -0.000  -0.000  -0.000   1.566  -0.000   0.000   0.000   0.000  -0.837   0.000  -0.000   0.031   0.000  -0.000  -0.002
 -0.837   0.000  -0.000   0.000  -0.000   1.472  -0.000   0.000  -0.000   0.000  -0.000   0.000  -0.000   0.000  -0.045   0.000
  0.000  -1.078  -0.000   0.000   0.000   0.000   1.456   0.000  -0.000   0.000   0.000  -0.000   0.000   0.000   0.000   0.000
 -0.000   0.000  -0.607   0.000   0.000   0.000   0.000   1.271   0.000  -0.000  -0.113   0.011   0.000   0.000  -0.000  -0.000
  0.000   0.000   0.000  -1.078   0.000  -0.000  -0.000  -0.000   1.456   0.000   0.000   0.000   0.000  -0.000  -0.000   0.000
 -0.000   0.000   0.000   0.000  -0.837   0.000   0.000  -0.000   0.000   1.472  -0.000   0.000  -0.045   0.000   0.000   0.003
 -0.000   0.000   0.037   0.000   0.000  -0.000   0.000  -0.113  -0.000  -0.000   2.562  -0.289   0.000   0.000   0.000   0.000
 -0.000  -0.000  -0.010   0.000  -0.000   0.000  -0.000   0.011   0.000   0.000  -0.289   0.037   0.000   0.000   0.000   0.000
  0.000   0.000  -0.000  -0.000   0.031  -0.000   0.000   0.000   0.000  -0.045   0.000   0.000   0.334  -0.000  -0.000  -0.027
  0.000   0.000   0.000  -0.000  -0.000  -0.000  -0.000   0.000   0.000  -0.000   0.000   0.000  -0.000   0.310   0.000   0.000
  0.031  -0.000  -0.000   0.000  -0.000  -0.045   0.000  -0.000   0.000   0.000   0.000   0.000  -0.000   0.000   0.334   0.000
 -0.000  -0.000   0.000   0.000  -0.002   0.000   0.000  -0.000   0.000   0.003   0.000   0.000  -0.027  -0.000   0.000   0.002
 -0.000   0.000   0.000   0.000   0.000  -0.000  -0.000   0.000   0.000   0.000   0.000   0.000   0.000  -0.028  -0.000  -0.000
 -0.002   0.000  -0.000   0.000   0.000   0.003   0.000   0.000   0.000  -0.000   0.000   0.000   0.000  -0.000  -0.027  -0.000


------------------------ aborting loop because EDIFF is reached ----------------------------------------


    CHARGE:  cpu time    0.0213: real time    0.0213
    FORLOC:  cpu time    0.0002: real time    0.0002
    FORNL :  cpu time    0.1036: real time    0.1036
    STRESS:  cpu time    0.1573: real time    0.1573
    FORCOR:  cpu time    0.0034: real time    0.0034
    FORHAR:  cpu time    0.0007: real time    0.0007
    MIXING:  cpu time    0.0002: real time    0.0002

  FORCE on cell =-STRESS in cart. coord.  units (eV):
  Direction    XX          YY          ZZ          XY          YZ          ZX
  --------------------------------------------------------------------------------------
  Alpha Z   131.24616   131.24616   131.24616
  Ewald    -390.24594  -390.24594  -432.80355     0.00000    -0.00000     0.00000
  Hartree    64.87924    64.87924    48.33812    -0.00000    -0.00000    -0.00000
  E(xc)     -78.26592   -78.26601   -78.02860     0.00033    -0.00000    -0.00000
  Local     101.29355   101.29380   158.44560    -0.00094    -0.00000     0.00000
  n-local   -53.52165   -52.66877   -55.14246    -3.64290     1.40503     0.92322
  augment    75.90430    75.90347    76.11169     0.00133     0.00000     0.00000
  Kinetic   152.16545   145.87881   146.98605     1.38096    -0.95686     0.19631
  Fock        0.00000     0.00000     0.00000     0.00000     0.00000     0.00000
  -------------------------------------------------------------------------------------
  Total       0.73798     0.73798    -4.84699    -0.00000     0.00000    -0.00000
  in kB      56.13288    56.13288  -368.67558    -0.00000     0.00000    -0.00000
  external pressure =      -85.47 kB  Pullay stress =        0.00 kB


 VOLUME and BASIS-vectors are now :
 -----------------------------------------------------------------------------
  energy-cutoff  :      280.00
  volume of cell :       21.06
      direct lattice vectors                 reciprocal lattice vectors
     2.399900000  0.000000000  0.000000000     0.416684029  0.240572636  0.000000000
    -1.199950000  2.078374367  0.000000000     0.000000000  0.481145272  0.000000000
     0.000000000  0.000000000  4.223000000     0.000000000  0.000000000  0.236798484

  length of vectors
     2.399900000  2.399900000  4.223000000     0.481145272  0.481145272  0.236798484


 FORCES acting on ions
    electron-ion (+dipol)            ewald-force                    non-local-force                 convergence-correction
 -----------------------------------------------------------------------------------------------
   0.537E-06 -.132E-05 0.190E-13   0.564E-12 -.327E-12 -.235E-13   0.600E-17 0.451E-18 -.345E-19   -.382E-08 0.205E-08 -.398E-13
   0.474E-05 0.763E-05 0.272E-12   -.564E-12 0.331E-12 0.235E-13   -.185E-17 -.292E-17 -.196E-20   0.392E-08 -.211E-08 0.614E-13
 -----------------------------------------------------------------------------------------------
   0.528E-05 0.631E-05 0.291E-12   0.482E-16 0.458E-14 -.255E-17   0.415E-17 -.247E-17 -.364E-19   0.105E-09 -.625E-10 0.216E-13
 
 
 POSITION                                       TOTAL-FORCE (eV/Angst)
 -----------------------------------------------------------------------------------
      0.00000      0.00000      0.00000        -0.000000      0.000000     -0.000000
      0.00000      1.38558      2.11150         0.000000     -0.000000      0.000000
 -----------------------------------------------------------------------------------
    total drift:                                0.000005      0.000006      0.000000


--------------------------------------------------------------------------------------------------------



  FREE ENERGIE OF THE ION-ELECTRON SYSTEM (eV)
  ---------------------------------------------------
  free  energy   TOTEN  =       -16.09308746 eV

  energy  without entropy=      -16.09618248  energy(sigma->0) =      -16.09411914
 


--------------------------------------------------------------------------------------------------------


    POTLOK:  cpu time    0.0055: real time    0.0055


--------------------------------------------------------------------------------------------------------


 writing wavefunctions
     LOOP+:  cpu time   10.0544: real time   10.0729
    4ORBIT:  cpu time    0.0000: real time    0.0000

 total amount of memory used by VASP MPI-rank0    51501. kBytes
=======================================================================

   base      :      30000. kBytes
   nonl-proj :       3394. kBytes
   grid      :        812. kBytes
   one-center:         31. kBytes
   wavefun   :      17264. kBytes
 
  
  
 General timing and accounting informations for this job:
 ========================================================
  
                  Total CPU time used (sec):       10.257
                            User time (sec):       10.217
                          System time (sec):        0.040
                         Elapsed time (sec):       10.264
  
                   Maximum memory used (kb):       55252.
                   Average memory used (kb):          N/A
  
                          Minor page faults:         7676
                          Major page faults:            0
                 Voluntary context switches:           26
