unknown system                          
   1.00000000000000     
     2.260100    0.000000    0.000000
    -1.130050    1.957304    0.000000
     0.000000    0.000000    4.056540
   Fe
     2
Direct
  0.000000  0.000000  0.000000
  0.333333  0.666667  0.500000
 
   20   20   36
  150.61      143.16      123.02      95.684      67.389      43.046      25.376      14.942      10.432      9.2151    
  8.9128      9.2151      10.432      14.942      25.376      43.046      67.389      95.685      123.02      143.16    
  143.16      143.16      129.40      105.81      78.333      52.518      32.109      18.689      11.837      9.5025    
  8.9061      8.9059      9.5024      11.837      18.688      32.108      52.517      78.336      105.82      129.41    
  123.03      129.38      123.02      105.81      82.362      58.024      37.121      22.109      13.466      9.9009    
  8.9172      8.6268      8.9169      9.9010      13.467      22.108      37.119      58.023      82.364      105.82    
  95.682      105.75      105.75      95.684      78.333      58.024      38.976      24.150      14.782      10.351    
  8.9378      8.4162      8.4160      8.9377      10.351      14.783      24.150      38.974      58.021      78.330    
  67.382      78.247      82.244      78.253      67.389      52.518      37.121      24.150      15.287      10.656    
  8.9625      8.2861      8.0431      8.2860      8.9625      10.656      15.289      24.153      37.121      52.514    
  43.045      52.445      57.897      57.898      52.448      43.046      32.109      22.109      14.782      10.656    
  8.9761      8.2271      7.8245      7.8245      8.2268      8.9752      10.655      14.785      22.113      32.112    
  25.381      32.079      37.043      38.875      37.041      32.075      25.376      18.689      13.466      10.351    
  8.9625      8.2271      7.7539      7.5943      7.7542      8.2264      8.9603      10.349      13.467      18.692    
  14.941      18.696      22.101      24.124      24.122      22.097      18.693      14.942      11.837      9.9009    
  8.9378      8.2861      7.8245      7.5943      7.5948      7.8253      8.2859      8.9355      9.8969      11.834    
  10.427      11.860      13.507      14.827      15.331      14.826      13.507      11.863      10.432      9.5025    
  8.9172      8.4162      8.0431      7.8245      7.7542      7.8253      8.0450      8.4183      8.9172      9.4991    
  9.2150      9.5324      9.9599      10.433      10.750      10.751      10.436      9.9639      9.5357      9.2151    
  8.9061      8.6268      8.4160      8.2860      8.2268      8.2264      8.2859      8.4183      8.6310      8.9094    
  8.9177      8.9440      8.9858      9.0346      9.0811      9.1039      9.0833      9.0368      8.9855      8.9405    
  8.9128      8.9059      8.9169      8.9377      8.9625      8.9752      8.9603      8.9355      8.9172      8.9094    
  9.2150      8.9440      8.7013      8.5237      8.4208      8.3785      8.3789      8.4209      8.5215      8.6971    
  8.9407      9.2151      9.5024      9.9010      10.351      10.656      10.655      10.349      9.8970      9.4991    
  10.427      9.5324      8.9858      8.5237      8.1854      7.9917      7.9303      7.9909      8.1835      8.5216    
  8.9858      9.5359      10.432      11.837      13.467      14.783      15.289      14.785      13.467      11.834    
  14.941      11.860      9.9599      9.0346      8.4208      7.9917      7.7800      7.7795      7.9909      8.4210    
  9.0368      9.9638      11.863      14.942      18.688      22.108      24.150      24.153      22.113      18.692    
  25.381      18.696      13.507      10.433      9.0811      8.3785      7.9303      7.7795      7.9301      8.3792    
  9.0833      10.435      13.507      18.693      25.376      32.108      37.119      38.974      37.121      32.112    
  43.045      32.079      22.101      14.827      10.750      9.1039      8.3789      7.9909      7.9909      8.3792    
  9.1047      10.750      14.825      22.097      32.076      43.046      52.517      58.023      58.021      52.514    
  67.382      52.445      37.043      24.124      15.331      10.751      9.0833      8.4209      8.1835      8.4210    
  9.0833      10.750      15.329      24.122      37.043      52.449      67.389      78.336      82.364      78.330    
  95.682      78.247      57.897      38.875      24.122      14.826      10.436      9.0368      8.5215      8.5216    
  9.0368      10.435      14.825      24.122      38.876      57.900      78.250      95.685      105.82      105.82    
  123.03      105.75      82.244      57.898      37.041      22.096      13.507      9.9639      8.9855      8.6971    
  8.9858      9.9638      13.507      22.097      37.043      57.900      82.242      105.75      123.02      129.41    
  143.16      129.38      105.75      78.253      52.448      32.075      18.693      11.863      9.5357      8.9405    
  8.9407      9.5359      11.863      18.693      32.076      52.449      78.250      105.75      129.37      143.16    
  143.17      136.09      116.95      90.948      64.022      40.883      24.156      14.363      10.198      9.0727    
  8.7755      9.0727      10.198      14.363      24.156      40.883      64.022      90.948      116.95      136.09    
  136.09      136.09      123.01      100.58      74.428      49.869      30.506      17.854      11.475      9.3375    
  8.7623      8.7621      9.3374      11.475      17.854      30.504      49.869      74.430      100.59      123.02    
  116.96      123.00      116.95      100.58      78.258      55.098      35.243      21.056      12.970      9.6895    
  8.7694      8.4855      8.7691      9.6895      12.970      21.055      35.241      55.096      78.260      100.59    
  90.946      100.53      100.53      90.948      74.428      55.098      36.998      22.972      14.185      10.089    
  8.7879      8.2790      8.2788      8.7878      10.090      14.186      22.972      36.996      55.095      74.425    
  64.015      74.362      78.169      74.367      64.022      49.869      35.243      22.972      14.652      10.362    
  8.8084      8.1523      7.9170      8.1522      8.8084      10.363      14.654      22.974      35.243      49.866    
  40.882      49.821      55.010      55.011      49.824      40.883      30.506      21.056      14.185      10.362    
  8.8193      8.0952      7.7061      7.7062      8.0950      8.8185      10.362      14.187      21.060      30.508    
  24.160      30.500      35.209      36.948      35.207      30.496      24.156      17.854      12.970      10.089    
  8.8084      8.0952      7.6383      7.4847      7.6385      8.0946      8.8064      10.087      12.970      17.857    
  14.363      17.883      21.090      22.999      22.997      21.085      17.880      14.363      11.475      9.6895    
  8.7879      8.1523      7.7061      7.4847      7.4852      7.7069      8.1522      8.7858      9.6857      11.472    
  10.193      11.516      13.047      14.279      14.751      14.278      13.047      11.520      10.198      9.3375    
  8.7694      8.2790      7.9170      7.7062      7.6385      7.7069      7.9188      8.2809      8.7694      9.3342    
  9.0726      9.3838      9.7802      10.216      10.508      10.509      10.218      9.7840      9.3869      9.0727    
  8.7623      8.4855      8.2788      8.1522      8.0950      8.0946      8.1521      8.2809      8.4895      8.7654    
  8.7802      8.8151      8.8668      8.9245      8.9737      8.9961      8.9757      8.9265      8.8665      8.8119    
  8.7755      8.7621      8.7691      8.7878      8.8084      8.8185      8.8064      8.7858      8.7694      8.7654    
  9.0726      8.8151      8.5876      8.4237      8.3306      8.2933      8.2937      8.3307      8.4216      8.5837    
  8.8121      9.0727      9.3374      9.6895      10.090      10.363      10.362      10.087      9.6858      9.3342    
  10.193      9.3838      8.8668      8.4237      8.1015      7.9181      7.8601      7.9173      8.0998      8.4217    
  8.8668      9.3870      10.198      11.475      12.970      14.186      14.654      14.187      12.970      11.472    
  14.363      11.516      9.7802      8.9245      8.3306      7.9181      7.7152      7.7148      7.9173      8.3308    
  8.9265      9.7839      11.520      14.363      17.854      21.055      22.972      22.974      21.060      17.857    
  24.160      17.883      13.047      10.216      8.9737      8.2933      7.8601      7.7148      7.8598      8.2939    
  8.9757      10.218      13.047      17.880      24.156      30.504      35.241      36.996      35.243      30.508    
  40.883      30.500      21.090      14.279      10.508      8.9961      8.2937      7.9173      7.9173      8.2939    
  8.9969      10.508      14.277      21.086      30.497      40.883      49.869      55.096      55.095      49.866    
  64.015      49.821      35.209      22.999      14.751      10.509      8.9757      8.3307      8.0998      8.3308    
  8.9757      10.508      14.749      22.997      35.209      49.825      64.022      74.430      78.260      74.425    
  90.946      74.362      55.010      36.948      22.997      14.278      10.218      8.9265      8.4216      8.4217    
  8.9265      10.218      14.277      22.997      36.950      55.013      74.365      90.948      100.59      100.59    
  116.96      100.53      78.169      55.011      35.207      21.085      13.047      9.7840      8.8665      8.5837    
  8.8668      9.7839      13.047      21.086      35.209      55.013      78.167      100.53      116.95      123.02    
  136.09      123.00      100.53      74.367      49.824      30.496      17.880      11.520      9.3869      8.8119    
  8.8121      9.3870      11.520      17.880      30.497      49.825      74.365      100.53      122.99      136.09    
  123.04      116.97      100.51      78.100      54.897      35.054      20.906      12.856      9.5936      8.6817    
  8.4012      8.6818      9.5937      12.856      20.906      35.054      54.897      78.100      100.51      116.97    
  116.97      116.97      105.72      86.389      63.835      42.708      26.207      15.654      10.539      8.8972    
  8.3686      8.3685      8.8971      10.540      15.654      26.206      42.708      63.837      86.393      105.72    
  100.51      105.71      100.51      86.389      67.127      47.175      30.193      18.262      11.679      9.1383    
  8.3623      8.0984      8.3620      9.1383      11.679      18.261      30.191      47.174      67.129      86.393    
  78.098      86.377      86.378      78.100      63.835      47.175      31.674      19.835      12.623      9.4121    
  8.3726      7.9016      7.9014      8.3725      9.4125      12.623      19.835      31.673      47.172      63.832    
  54.892      63.827      67.116      63.831      54.897      42.708      30.193      19.835      12.989      9.6031    
  8.3864      7.7829      7.5696      7.7829      8.3864      9.6036      12.991      19.837      30.193      42.705    
  35.053      42.728      47.198      47.199      42.730      35.054      26.207      18.262      12.623      9.6031    
  8.3925      7.7300      7.3791      7.3792      7.7299      8.3919      9.6030      12.625      18.265      26.210    
  20.909      26.269      30.280      31.767      30.278      26.265      20.906      15.654      11.679      9.4121    
  8.3864      7.7300      7.3183      7.1815      7.3186      7.7295      8.3847      9.4105      11.679      15.656    
  12.856      15.743      18.411      20.011      20.010      18.407      15.740      12.856      10.539      9.1383    
  8.3726      7.7829      7.3791      7.1815      7.1819      7.3798      7.7828      8.3708      9.1352      10.537    
  9.5895      10.634      11.858      12.856      13.240      12.855      11.858      10.636      9.5936      8.8972    
  8.3623      7.9016      7.5696      7.3792      7.3186      7.3798      7.5710      7.9032      8.3623      8.8945    
  8.6816      8.9902      9.3197      9.6636      9.8934      9.8940      9.6656      9.3227      8.9928      8.6817    
  8.3686      8.0984      7.9014      7.7829      7.7299      7.7295      7.7828      7.9032      8.1017      8.3712    
  8.4051      8.4647      8.5430      8.6246      8.6877      8.7124      8.6894      8.6263      8.5428      8.4620    
  8.4012      8.3685      8.3620      8.3725      8.3864      8.3919      8.3847      8.3708      8.3623      8.3712    
  8.6816      8.4647      8.2809      8.1559      8.0905      8.0672      8.0675      8.0906      8.1541      8.2776    
  8.4621      8.6818      8.8971      9.1383      9.4125      9.6036      9.6030      9.4105      9.1352      8.8945    
  9.5895      8.9902      8.5431      8.1559      7.8804      7.7263      7.6783      7.7258      7.8790      8.1543    
  8.5431      8.9929      9.5937      10.540      11.679      12.623      12.991      12.625      11.679      10.537    
  12.856      10.634      9.3197      8.6246      8.0905      7.7263      7.5493      7.5490      7.7257      8.0907    
  8.6263      9.3227      10.636      12.856      15.654      18.261      19.835      19.837      18.265      15.656    
  20.909      15.743      11.858      9.6636      8.6877      8.0672      7.6783      7.5490      7.6780      8.0676    
  8.6894      9.6652      11.858      15.740      20.906      26.206      30.191      31.673      30.193      26.210    
  35.053      26.269      18.411      12.856      9.8934      8.7124      8.0675      7.7258      7.7257      8.0676    
  8.7130      9.8935      12.854      18.407      26.266      35.054      42.708      47.174      47.172      42.705    
  54.892      42.728      30.280      20.011      13.240      9.8940      8.6894      8.0906      7.8790      8.0907    
  8.6894      9.8935      13.239      20.010      30.280      42.731      54.897      63.837      67.129      63.832    
  78.098      63.827      47.198      31.767      20.010      12.855      9.6656      8.6263      8.1541      8.1543    
  8.6263      9.6652      12.854      20.010      31.768      47.200      63.829      78.100      86.394      86.393    
  100.51      86.377      67.116      47.199      30.278      18.407      11.858      9.3227      8.5428      8.2777    
  8.5430      9.3227      11.858      18.407      30.280      47.200      67.115      86.373      100.51      105.72    
  116.97      105.71      86.378      63.831      42.730      26.265      15.740      10.636      8.9928      8.4620    
  8.4621      8.9929      10.636      15.740      26.266      42.731      63.829      86.373      105.71      116.97    
  95.681      90.942      78.091      60.581      42.509      27.245      16.672      10.977      8.8441      8.1335    
  7.8832      8.1335      8.8441      10.977      16.672      27.245      42.509      60.581      78.091      90.942    
  90.944      90.942      82.151      67.033      49.416      33.046      20.526      12.850      9.3916      8.2934    
  7.8205      7.8204      8.2933      9.3917      12.850      20.526      33.046      49.417      67.037      82.156    
  78.094      82.167      78.091      67.033      51.965      36.454      23.469      14.651      10.078      8.4319    
  7.7897      7.5591      7.7894      8.4319      10.078      14.651      23.468      36.453      51.966      67.036    
  60.580      67.072      67.072      60.581      49.416      36.454      24.569      15.757      10.667      8.5653    
  7.7819      7.3726      7.3724      7.7817      8.5655      10.667      15.757      24.568      36.452      49.414    
  42.505      49.487      52.064      49.490      42.509      33.046      23.469      15.757      10.900      8.6597    
  7.7844      7.2611      7.0809      7.2611      7.7844      8.6599      10.901      15.758      23.469      33.044    
  27.244      33.160      36.629      36.631      33.162      27.245      20.526      14.651      10.667      8.6597    
  7.7866      7.2113      6.9166      6.9167      7.2114      7.7862      8.6596      10.668      14.654      20.528    
  16.675      20.679      23.723      24.858      23.721      20.677      16.672      12.850      10.078      8.5653    
  7.7844      7.2113      6.8645      6.7512      6.8648      7.2111      7.7833      8.5642      10.078      12.852    
  10.977      13.022      14.959      16.138      16.136      14.956      13.020      10.977      9.3916      8.4319    
  7.7819      7.2611      6.9166      6.7512      6.7514      6.9170      7.2610      7.7806      8.4297      9.3897    
  8.8410      9.5597      10.399      11.094      11.364      11.093      10.399      9.5617      8.8441      8.2934    
  7.7897      7.3726      7.0809      6.9167      6.8648      6.9170      7.0818      7.3737      7.7897      8.2914    
  8.1334      8.4539      8.7436      8.9968      9.1577      9.1581      8.9981      8.7457      8.4558      8.1335    
  7.8205      7.5591      7.3724      7.2611      7.2114      7.2111      7.2610      7.3737      7.5615      7.8224    
  7.8860      7.9798      8.0929      8.2043      8.2873      8.3186      8.2884      8.2054      8.0926      7.9778    
  7.8832      7.8204      7.7894      7.7817      7.7844      7.7862      7.7832      7.7806      7.7897      7.8224    
  8.1333      7.9798      7.8606      7.7908      7.7641      7.7599      7.7602      7.7642      7.7896      7.8582    
  7.9779      8.1335      8.2933      8.4319      8.5655      8.6599      8.6596      8.5642      8.4297      8.2914    
  8.8410      8.4539      8.0929      7.7908      7.5841      7.4728      7.4391      7.4726      7.5832      7.7897    
  8.0929      8.4559      8.8441      9.3917      10.078      10.667      10.901      10.668      10.078      9.3897    
  10.977      9.5597      8.7436      8.2043      7.7641      7.4728      7.3341      7.3339      7.4725      7.7642    
  8.2055      8.7457      9.5615      10.977      12.850      14.651      15.757      15.758      14.654      12.852    
  16.675      13.022      10.399      8.9968      8.2873      7.7599      7.4391      7.3339      7.4388      7.7602    
  8.2884      8.9979      10.399      13.020      16.672      20.526      23.468      24.568      23.469      20.528    
  27.244      20.679      14.959      11.094      9.1577      8.3186      7.7602      7.4726      7.4724      7.7602    
  8.3190      9.1578      11.093      14.956      20.678      27.245      33.046      36.453      36.452      33.044    
  42.505      33.160      23.723      16.138      11.364      9.1581      8.2884      7.7642      7.5832      7.7642    
  8.2884      9.1578      11.363      16.137      23.723      33.162      42.509      49.417      51.966      49.414    
  60.580      49.487      36.629      24.858      16.136      11.093      8.9981      8.2054      7.7896      7.7897    
  8.2055      8.9979      11.093      16.137      24.859      36.631      49.489      60.581      67.037      67.036    
  78.094      67.072      52.064      36.631      23.721      14.956      10.399      8.7457      8.0926      7.8582    
  8.0929      8.7457      10.399      14.956      23.723      36.631      52.063      67.069      78.091      82.156    
  90.944      82.167      67.072      49.490      33.162      20.677      13.020      9.5617      8.4558      7.9778    
  7.9779      8.4559      9.5615      13.020      20.678      33.162      49.489      67.069      82.163      90.942    
  67.277      63.918      54.814      42.456      29.848      19.483      12.671      9.3186      8.1238      7.5363    
  7.3286      7.5364      8.1238      9.3187      12.671      19.483      29.848      42.456      54.814      63.918    
  63.919      63.918      57.677      46.969      34.588      23.308      15.021      10.298      8.3747      7.6267    
  7.2311      7.2310      7.6266      8.3748      10.298      15.021      23.308      34.589      46.971      57.680    
  54.816      57.712      54.814      46.969      36.347      25.585      16.865      11.291      8.6664      7.7048    
  7.1670      6.9798      7.1667      7.7047      8.6666      11.291      16.865      25.585      36.348      46.971    
  42.455      47.058      47.059      42.456      34.588      25.585      17.564      11.919      8.9286      7.7570    
  7.1308      6.8001      6.8000      7.1306      7.7571      8.9288      11.919      17.563      25.584      34.587    
  29.846      34.739      36.556      34.741      29.848      23.308      16.865      11.919      9.0355      7.7840    
  7.1140      6.6906      6.5491      6.6906      7.1140      7.7841      9.0359      11.920      16.865      23.307    
  19.483      23.515      25.912      25.913      23.516      19.483      15.021      11.291      8.9286      7.7840    
  7.1093      6.6404      6.4091      6.4093      6.6406      7.1091      7.7839      8.9293      11.293      15.022    
  12.673      15.265      17.284      18.046      17.284      15.264      12.671      10.298      8.6664      7.7570    
  7.1140      6.6404      6.3649      6.2765      6.3651      6.6403      7.1133      7.7564      8.6666      10.299    
  9.3185      10.552      11.756      12.504      12.503      11.755      10.551      9.3186      8.3747      7.7048    
  7.1308      6.6906      6.4091      6.2765      6.2766      6.4093      6.6904      7.1301      7.7035      8.3735    
  8.1219      8.6185      9.1335      9.5525      9.7156      9.5520      9.1335      8.6198      8.1238      7.6267    
  7.1670      6.8001      6.5491      6.4092      6.3651      6.4093      6.5495      6.8007      7.1670      7.6254    
  7.5362      7.8585      8.1535      8.3772      8.4995      8.4997      8.3779      8.1548      7.8596      7.5363    
  7.2311      6.9798      6.8000      6.6906      6.6406      6.6403      6.6904      6.8007      6.9813      7.2323    
  7.3304      7.4580      7.6014      7.7365      7.8343      7.8704      7.8350      7.7371      7.6011      7.4567    
  7.3286      7.2310      7.1667      7.1306      7.1140      7.1091      7.1133      7.1301      7.1670      7.2323    
  7.5362      7.4580      7.4098      7.3970      7.4084      7.4226      7.4228      7.4085      7.3963      7.4083    
  7.4568      7.5364      7.6266      7.7047      7.7571      7.7841      7.7839      7.7564      7.7035      7.6254    
  8.1219      7.8585      7.6014      7.3970      7.2655      7.1996      7.1807      7.1996      7.2651      7.3964    
  7.6014      7.8597      8.1238      8.3748      8.6666      8.9288      9.0359      8.9293      8.6666      8.3735    
  9.3185      8.6185      8.1535      7.7365      7.4084      7.1996      7.1030      7.1029      7.1994      7.4085    
  7.7372      8.1548      8.6197      9.3186      10.298      11.291      11.919      11.920      11.293      10.299    
  12.673      10.552      9.1335      8.3772      7.8343      7.4226      7.1808      7.1029      7.1805      7.4227    
  7.8350      8.3778      9.1333      10.551      12.671      15.021      16.865      17.563      16.865      15.022    
  19.483      15.265      11.756      9.5525      8.4995      7.8704      7.4228      7.1996      7.1994      7.4227    
  7.8706      8.4996      9.5518      11.755      15.264      19.483      23.308      25.585      25.584      23.307    
  29.846      23.515      17.284      12.504      9.7156      8.4997      7.8350      7.4085      7.2651      7.4085    
  7.8350      8.4996      9.7152      12.503      17.284      23.517      29.848      34.589      36.348      34.587    
  42.455      34.739      25.912      18.046      12.503      9.5520      8.3779      7.7371      7.3963      7.3964    
  7.7372      8.3778      9.5518      12.503      18.047      25.913      34.741      42.456      46.971      46.971    
  54.816      47.058      36.556      25.913      17.284      11.755      9.1335      8.1548      7.6011      7.4083    
  7.6014      8.1548      9.1333      11.755      17.284      25.913      36.555      47.057      54.814      57.680    
  63.919      57.712      47.059      34.741      23.516      15.264      10.551      8.6198      7.8596      7.4567    
  7.4568      7.8597      8.6197      10.551      15.264      23.517      34.741      47.057      57.709      63.918    
  42.701      40.564      34.798      27.070      19.394      13.395      9.7835      8.1884      7.4521      6.9840    
  6.8252      6.9840      7.4521      8.1884      9.7835      13.395      19.394      27.070      34.798      40.564    
  40.564      40.564      36.593      29.840      22.187      15.481      10.888      8.5414      7.5861      6.9990    
  6.6942      6.6942      6.9989      7.5862      8.5417      10.888      15.481      22.187      29.841      36.594    
  34.799      36.641      34.798      29.840      23.235      16.754      11.798      8.9194      7.6757      7.0130    
  6.5937      6.4533      6.5935      7.0129      7.6759      8.9195      11.798      16.753      23.235      29.841    
  27.070      29.966      29.966      27.070      22.187      16.754      12.151      9.1708      7.7365      7.0200    
  6.5239      6.2758      6.2757      6.5237      7.0199      7.7365      9.1707      12.150      16.753      22.187    
  19.393      22.396      23.522      22.396      19.394      15.481      11.798      9.1708      7.7609      7.0215    
  6.4830      6.1627      6.0588      6.1628      6.4830      7.0215      7.7610      9.1710      11.798      15.481    
  13.395      15.756      17.190      17.190      15.756      13.395      10.888      8.9194      7.7365      7.0215    
  6.4696      6.1086      5.9367      5.9368      6.1088      6.4696      7.0214      7.7368      8.9202      10.889    
  9.7843      11.199      12.337      12.774      12.337      11.198      9.7835      8.5414      7.6757      7.0200    
  6.4830      6.1086      5.8977      5.8312      5.8979      6.1086      6.4828      7.0197      7.6759      8.5421    
  8.1883      8.8587      9.5036      9.9080      9.9077      9.5029      8.8583      8.1884      7.5861      7.0130    
  6.5239      6.1627      5.9367      5.8312      5.8312      5.9367      6.1626      6.5235      7.0124      7.5855    
  7.4510      7.8921      8.2597      8.5167      8.6119      8.5164      8.2597      7.8928      7.4521      6.9990    
  6.5937      6.2758      6.0588      5.9368      5.8979      5.9367      6.0589      6.2760      6.5937      6.9983    
  6.9839      7.2922      7.5790      7.8004      7.9208      7.9209      7.8006      7.5795      7.2928      6.9840    
  6.6942      6.4533      6.2757      6.1627      6.1088      6.1086      6.1626      6.2760      6.4541      6.6948    
  6.8261      6.9809      7.1441      7.2918      7.3960      7.4338      7.3962      7.2920      7.1439      6.9803    
  6.8252      6.6942      6.5935      6.5237      6.4830      6.4696      6.4828      6.5235      6.5937      6.6948    
  6.9839      6.9809      6.9983      7.0347      7.0767      7.1050      7.1051      7.0769      7.0344      6.9976    
  6.9803      6.9840      6.9989      7.0129      7.0199      7.0215      7.0214      7.0197      7.0124      6.9983    
  7.4510      7.2922      7.1441      7.0347      6.9722      6.9463      6.9403      6.9464      6.9722      7.0345    
  7.1441      7.2929      7.4521      7.5862      7.6759      7.7365      7.7610      7.7368      7.6759      7.5855    
  8.1883      7.8921      7.5790      7.2918      7.0767      6.9463      6.8883      6.8883      6.9462      7.0768    
  7.2921      7.5796      7.8927      8.1884      8.5417      8.9195      9.1707      9.1710      8.9202      8.5421    
  9.7843      8.8587      8.2597      7.8004      7.3960      7.1050      6.9403      6.8883      6.9401      7.1049    
  7.3962      7.8007      8.2595      8.8580      9.7835      10.888      11.798      12.150      11.798      10.889    
  13.395      11.199      9.5036      8.5167      7.9208      7.4338      7.1051      6.9464      6.9462      7.1049    
  7.4339      7.9209      8.5164      9.5028      11.198      13.395      15.481      16.753      16.753      15.481    
  19.393      15.756      12.337      9.9080      8.6119      7.9209      7.3962      7.0769      6.9722      7.0768    
  7.3962      7.9209      8.6119      9.9079      12.337      15.756      19.394      22.187      23.235      22.187    
  27.070      22.396      17.190      12.774      9.9077      8.5164      7.8006      7.2920      7.0344      7.0345    
  7.2921      7.8007      8.5164      9.9079      12.775      17.191      22.396      27.070      29.841      29.841    
  34.799      29.966      23.522      17.190      12.337      9.5029      8.2597      7.5795      7.1439      6.9976    
  7.1441      7.5796      8.2595      9.5028      12.337      17.191      23.522      29.965      34.798      36.594    
  40.564      36.641      29.966      22.396      15.756      11.198      8.8583      7.8928      7.2928      6.9803    
  6.9803      7.2929      7.8927      8.8580      11.198      15.756      22.396      29.965      36.640      40.564    
  24.707      23.533      20.405      16.323      12.470      9.7019      8.2063      7.4429      6.8822      6.5417    
  6.4301      6.5417      6.8822      7.4429      8.2063      9.7019      12.470      16.323      20.405      23.533    
  23.534      23.533      21.358      17.731      13.777      10.539      8.5383      7.5601      6.9243      6.4843    
  6.2678      6.2678      6.4843      6.9244      7.5603      8.5385      10.539      13.777      17.731      21.359    
  20.405      21.412      20.405      17.731      14.278      11.073      8.8307      7.6355      6.9472      6.4356    