 vasp.6.2.0 18Jan21 (build Mar 17 2021 09:06:54) complex                        
  
 executed on             LinuxIFC date 2021.09.09  12:00:10
 serial version


--------------------------------------------------------------------------------------------------------


 INCAR:
   ENCUT = 280.000000
   SIGMA = 0.200000
   EDIFF = 1.00e-06
   GGA = PE
   PREC = normal
   IBRION = 1
   ICHARG = 1
   ISIF = 2
   ISMEAR = 1
   KPAR = 1
   NBANDS = 40
   NSW = 0
   NCORE = 1
   LCHARG = .TRUE.

 POTCAR:    PAW_PBE Fe 06Sep2000                  
 POTCAR:    PAW_PBE Fe 06Sep2000                  
   SHA256 =  cd5a22d9368cc8b5cc476bea79732366149640da08ac9009b0e1b7fc627eea28 Fe/POTCAR             
   COPYR  = (c) Copyright 06Sep2000 Georg Kresse                                                    
   COPYR  = This file is part of the software VASP. Any use, copying, and all other rights are regul
   COPYR  = If you do not have a valid VASP license, you may not use, copy or distribute this file. 
   VRHFIN =Fe:  d7 s1                                                                               
   LEXCH  = PE                                                                                      
   EATOM  =   594.3153 eV,   43.6809 Ry                                                             
                                                                                                    
   TITEL  = PAW_PBE Fe 06Sep2000                                                                    
   LULTRA =        F    use ultrasoft PP ?                                                          
   IUNSCR =        1    unscreen: 0-lin 1-nonlin 2-no                                               
   RPACOR =    2.000    partial core radius                                                         
   POMASS =   55.847; ZVAL   =    8.000    mass and valenz                                          
   RCORE  =    2.300    outmost cutoff radius                                                       
   RWIGS  =    2.460; RWIGS  =    1.302    wigner-seitz radius (au A)                               
   ENMAX  =  267.882; ENMIN  =  200.911 eV                                                          
   RCLOC  =    1.701    cutoff for local pot                                                        
   LCOR   =        T    correct aug charges                                                         
   LPAW   =        T    paw PP                                                                      
   EAUG   =  511.368                                                                                
   DEXC   =    0.000                                                                                
   RMAX   =    2.356    core radius for proj-oper                                                   
   RAUG   =    1.300    factor for augmentation sphere                                              
   RDEP   =    2.442    radius for radial grids                                                     
   RDEPT  =    1.890    core radius for aug-charge                                                  
                                                                                                    
   Atomic configuration                                                                             
    9 entries                                                                                       
     n  l   j            E        occ.                                                              
     1  0  0.50     -6993.8440   2.0000                                                             
     2  0  0.50      -814.6047   2.0000                                                             
     2  1  1.50      -693.3689   6.0000                                                             
     3  0  0.50       -89.4732   2.0000                                                             
     3  1  1.50       -55.6373   6.0000                                                             
     3  2  2.50        -3.8151   7.0000                                                             
     4  0  0.50        -4.2551   1.0000                                                             
     4  1  1.50        -3.4015   0.0000                                                             
     4  3  2.50        -1.3606   0.0000                                                             
   Description                                                                                      
     l       E           TYP  RCUT    TYP  RCUT                                                     
     2     -3.8151135     23  2.300                                                                 
     2     -5.1756961     23  2.300                                                                 
     0     -4.2550963     23  2.300                                                                 
     0      7.2035603     23  2.300                                                                 
     1     -2.7211652     23  2.300                                                                 
     1     18.4316424     23  2.300                                                                 
  local pseudopotential read in
  partial core-charges read in
  partial kinetic energy density read in
  atomic valenz-charges read in
  non local Contribution for L=           2  read in
    real space projection operators read in
  non local Contribution for L=           2  read in
    real space projection operators read in
  non local Contribution for L=           0  read in
    real space projection operators read in
  non local Contribution for L=           0  read in
    real space projection operators read in
  non local Contribution for L=           1  read in
    real space projection operators read in
  non local Contribution for L=           1  read in
    real space projection operators read in
    PAW grid and wavefunctions read in
 
   number of l-projection  operators is LMAX  =           6
   number of lm-projection operators is LMMAX =          18
 
  PAW_PBE Fe 06Sep2000                  :
 energy of atom  1       EATOM= -594.3153
 kinetic energy error for atom=    0.0278 (will be added to EATOM!!)
 
 
 POSCAR: Fe
  positions in cartesian coordinates
  No initial velocities read in
 exchange correlation table for  LEXCH =        8
   RHO(1)=    0.500       N(1)  =     2000
   RHO(2)=  100.500       N(2)  =     4000
 


--------------------------------------------------------------------------------------------------------


 ion  position               nearest neighbor table
   1  0.000  0.000  0.000-   2 2.41   2 2.41   2 2.41   2 2.41   2 2.41   2 2.41
   2  0.333  0.667  0.500-   1 2.41   1 2.41   1 2.41   1 2.41   1 2.41   1 2.41
 
  LATTYP: Found a hexagonal cell.
 ALAT       =     2.2601000000
 C/A-ratio  =     1.7948497854
  
  Lattice vectors:
  
 A1 = (   2.2601000000,   0.0000000000,   0.0000000000)
 A2 = (  -1.1300500000,   1.9573040151,   0.0000000000)
 A3 = (   0.0000000000,   0.0000000000,   4.0565400000)


Analysis of symmetry for initial positions (statically):
=====================================================================
 Subroutine PRICEL returns:
 Original cell was already a primitive cell.
 

 Routine SETGRP: Setting up the symmetry group for a 
 hexagonal supercell.


 Subroutine GETGRP returns: Found 24 space group operations
 (whereof 12 operations were pure point group operations)
 out of a pool of 24 trial point group operations.


The static configuration has the point symmetry D_3h.
 The point group associated with its full space group is D_6h.


Analysis of symmetry for dynamics (positions and initial velocities):
=====================================================================
 Subroutine PRICEL returns:
 Original cell was already a primitive cell.
 

 Routine SETGRP: Setting up the symmetry group for a 
 hexagonal supercell.


 Subroutine GETGRP returns: Found 24 space group operations
 (whereof 12 operations were pure point group operations)
 out of a pool of 24 trial point group operations.


The dynamic configuration has the point symmetry D_3h.
 The point group associated with its full space group is D_6h.


 Subroutine INISYM returns: Found 24 space group operations
 (whereof 12 operations are pure point group operations),
 and found     1 'primitive' translations


----------------------------------------------------------------------------------------

                                     Primitive cell                                     

  volume of cell :      17.9449

  direct lattice vectors                    reciprocal lattice vectors
     2.260100000  0.000000000  0.000000000     0.442458298  0.255453418  0.000000000
    -1.130050000  1.957304015  0.000000000     0.000000000  0.510906835  0.000000000
     0.000000000  0.000000000  4.056540000     0.000000000  0.000000000  0.246515503

  length of vectors
     2.260100000  2.260100000  4.056540000     0.510906835  0.510906835  0.246515503

  position of ions in fractional coordinates (direct lattice)
     0.000000000  0.000000000  0.000000000
     0.333333333  0.666666667  0.500000000

  ion indices of the primitive-cell ions
   primitive index   ion index
                 1           1
                 2           2

----------------------------------------------------------------------------------------

 
 
 KPOINTS: KPOINTS created by Atomic Simulation Env

Automatic generation of k-mesh.
 Grid dimensions read from file:
 generate k-points for:   11   11   11

 Generating k-lattice:

  Cartesian coordinates                     Fractional coordinates (reciprocal lattice)
     0.040223482  0.023223038  0.000000000     0.090909091  0.000000000  0.000000000
     0.000000000  0.046446076  0.000000000     0.000000000  0.090909091  0.000000000
     0.000000000  0.000000000  0.022410500     0.000000000  0.000000000  0.090909091

  Length of vectors
     0.046446076  0.046446076  0.022410500

  Shift w.r.t. Gamma in fractional coordinates (k-lattice)
     0.000000000  0.000000000  0.000000000

 
 Subroutine IBZKPT returns following result:
 ===========================================
 
 Found     96 irreducible k-points:
 
 Following reciprocal coordinates:
            Coordinates               Weight
  0.000000  0.000000  0.000000      1.000000
  0.090909  0.000000  0.000000      6.000000
  0.181818 -0.000000  0.000000      6.000000
  0.272727  0.000000  0.000000      6.000000
  0.363636  0.000000  0.000000      6.000000
  0.454545 -0.000000  0.000000      6.000000
  0.090909  0.090909  0.000000      6.000000
  0.181818  0.090909  0.000000     12.000000
  0.272727  0.090909  0.000000     12.000000
  0.363636  0.090909  0.000000     12.000000
  0.454545  0.090909  0.000000      6.000000
  0.181818  0.181818  0.000000      6.000000
  0.272727  0.181818  0.000000     12.000000
  0.363636  0.181818  0.000000     12.000000
  0.272727  0.272727  0.000000      6.000000
  0.363636  0.272727  0.000000      6.000000
  0.000000  0.000000  0.090909      2.000000
  0.090909  0.000000  0.090909     12.000000
  0.181818 -0.000000  0.090909     12.000000
  0.272727  0.000000  0.090909     12.000000
  0.363636  0.000000  0.090909     12.000000
  0.454545 -0.000000  0.090909     12.000000
  0.090909  0.090909  0.090909     12.000000
  0.181818  0.090909  0.090909     24.000000
  0.272727  0.090909  0.090909     24.000000
  0.363636  0.090909  0.090909     24.000000
  0.454545  0.090909  0.090909     12.000000
  0.181818  0.181818  0.090909     12.000000
  0.272727  0.181818  0.090909     24.000000
  0.363636  0.181818  0.090909     24.000000
  0.272727  0.272727  0.090909     12.000000
  0.363636  0.272727  0.090909     12.000000
  0.000000  0.000000  0.181818      2.000000
  0.090909  0.000000  0.181818     12.000000
  0.181818 -0.000000  0.181818     12.000000
  0.272727  0.000000  0.181818     12.000000
  0.363636  0.000000  0.181818     12.000000
  0.454545 -0.000000  0.181818     12.000000
  0.090909  0.090909  0.181818     12.000000
  0.181818  0.090909  0.181818     24.000000
  0.272727  0.090909  0.181818     24.000000
  0.363636  0.090909  0.181818     24.000000
  0.454545  0.090909  0.181818     12.000000
  0.181818  0.181818  0.181818     12.000000
  0.272727  0.181818  0.181818     24.000000
  0.363636  0.181818  0.181818     24.000000
  0.272727  0.272727  0.181818     12.000000
  0.363636  0.272727  0.181818     12.000000
  0.000000  0.000000  0.272727      2.000000
  0.090909  0.000000  0.272727     12.000000
  0.181818 -0.000000  0.272727     12.000000
  0.272727  0.000000  0.272727     12.000000
  0.363636  0.000000  0.272727     12.000000
  0.454545 -0.000000  0.272727     12.000000
  0.090909  0.090909  0.272727     12.000000
  0.181818  0.090909  0.272727     24.000000
  0.272727  0.090909  0.272727     24.000000
  0.363636  0.090909  0.272727     24.000000
  0.454545  0.090909  0.272727     12.000000
  0.181818  0.181818  0.272727     12.000000
  0.272727  0.181818  0.272727     24.000000
  0.363636  0.181818  0.272727     24.000000
  0.272727  0.272727  0.272727     12.000000
  0.363636  0.272727  0.272727     12.000000
  0.000000  0.000000  0.363636      2.000000
  0.090909  0.000000  0.363636     12.000000
  0.181818 -0.000000  0.363636     12.000000
  0.272727  0.000000  0.363636     12.000000
  0.363636  0.000000  0.363636     12.000000
  0.454545 -0.000000  0.363636     12.000000
  0.090909  0.090909  0.363636     12.000000
  0.181818  0.090909  0.363636     24.000000
  0.272727  0.090909  0.363636     24.000000
  0.363636  0.090909  0.363636     24.000000
  0.454545  0.090909  0.363636     12.000000
  0.181818  0.181818  0.363636     12.000000
  0.272727  0.181818  0.363636     24.000000
  0.363636  0.181818  0.363636     24.000000
  0.272727  0.272727  0.363636     12.000000
  0.363636  0.272727  0.363636     12.000000
  0.000000  0.000000  0.454545      2.000000
  0.090909  0.000000  0.454545     12.000000
  0.181818 -0.000000  0.454545     12.000000
  0.272727  0.000000  0.454545     12.000000
  0.363636  0.000000  0.454545     12.000000
  0.454545 -0.000000  0.454545     12.000000
  0.090909  0.090909  0.454545     12.000000
  0.181818  0.090909  0.454545     24.000000
  0.272727  0.090909  0.454545     24.000000
  0.363636  0.090909  0.454545     24.000000
  0.454545  0.090909  0.454545     12.000000
  0.181818  0.181818  0.454545     12.000000
  0.272727  0.181818  0.454545     24.000000
  0.363636  0.181818  0.454545     24.000000
  0.272727  0.272727  0.454545     12.000000
  0.363636  0.272727  0.454545     12.000000
 
 Following cartesian coordinates:
            Coordinates               Weight
  0.000000  0.000000  0.000000      1.000000
  0.040223  0.023223  0.000000      6.000000
  0.080447  0.046446  0.000000      6.000000
  0.120670  0.069669  0.000000      6.000000
  0.160894  0.092892  0.000000      6.000000
  0.201117  0.116115  0.000000      6.000000
  0.040223  0.069669  0.000000      6.000000
  0.080447  0.092892  0.000000     12.000000
  0.120670  0.116115  0.000000     12.000000
  0.160894  0.139338  0.000000     12.000000
  0.201117  0.162561  0.000000      6.000000
  0.080447  0.139338  0.000000      6.000000
  0.120670  0.162561  0.000000     12.000000
  0.160894  0.185784  0.000000     12.000000
  0.120670  0.209007  0.000000      6.000000
  0.160894  0.232230  0.000000      6.000000
  0.000000  0.000000  0.022411      2.000000
  0.040223  0.023223  0.022411     12.000000
  0.080447  0.046446  0.022411     12.000000
  0.120670  0.069669  0.022411     12.000000
  0.160894  0.092892  0.022411     12.000000
  0.201117  0.116115  0.022411     12.000000
  0.040223  0.069669  0.022411     12.000000
  0.080447  0.092892  0.022411     24.000000
  0.120670  0.116115  0.022411     24.000000
  0.160894  0.139338  0.022411     24.000000
  0.201117  0.162561  0.022411     12.000000
  0.080447  0.139338  0.022411     12.000000
  0.120670  0.162561  0.022411     24.000000
  0.160894  0.185784  0.022411     24.000000
  0.120670  0.209007  0.022411     12.000000
  0.160894  0.232230  0.022411     12.000000
  0.000000  0.000000  0.044821      2.000000
  0.040223  0.023223  0.044821     12.000000
  0.080447  0.046446  0.044821     12.000000
  0.120670  0.069669  0.044821     12.000000
  0.160894  0.092892  0.044821     12.000000
  0.201117  0.116115  0.044821     12.000000
  0.040223  0.069669  0.044821     12.000000
  0.080447  0.092892  0.044821     24.000000
  0.120670  0.116115  0.044821     24.000000
  0.160894  0.139338  0.044821     24.000000
  0.201117  0.162561  0.044821     12.000000
  0.080447  0.139338  0.044821     12.000000
  0.120670  0.162561  0.044821     24.000000
  0.160894  0.185784  0.044821     24.000000
  0.120670  0.209007  0.044821     12.000000
  0.160894  0.232230  0.044821     12.000000
  0.000000  0.000000  0.067232      2.000000
  0.040223  0.023223  0.067232     12.000000
  0.080447  0.046446  0.067232     12.000000
  0.120670  0.069669  0.067232     12.000000
  0.160894  0.092892  0.067232     12.000000
  0.201117  0.116115  0.067232     12.000000
  0.040223  0.069669  0.067232     12.000000
  0.080447  0.092892  0.067232     24.000000
  0.120670  0.116115  0.067232     24.000000
  0.160894  0.139338  0.067232     24.000000
  0.201117  0.162561  0.067232     12.000000
  0.080447  0.139338  0.067232     12.000000
  0.120670  0.162561  0.067232     24.000000
  0.160894  0.185784  0.067232     24.000000
  0.120670  0.209007  0.067232     12.000000
  0.160894  0.232230  0.067232     12.000000
  0.000000  0.000000  0.089642      2.000000
  0.040223  0.023223  0.089642     12.000000
  0.080447  0.046446  0.089642     12.000000
  0.120670  0.069669  0.089642     12.000000
  0.160894  0.092892  0.089642     12.000000
  0.201117  0.116115  0.089642     12.000000
  0.040223  0.069669  0.089642     12.000000
  0.080447  0.092892  0.089642     24.000000
  0.120670  0.116115  0.089642     24.000000
  0.160894  0.139338  0.089642     24.000000
  0.201117  0.162561  0.089642     12.000000
  0.080447  0.139338  0.089642     12.000000
  0.120670  0.162561  0.089642     24.000000
  0.160894  0.185784  0.089642     24.000000
  0.120670  0.209007  0.089642     12.000000
  0.160894  0.232230  0.089642     12.000000
  0.000000  0.000000  0.112053      2.000000
  0.040223  0.023223  0.112053     12.000000
  0.080447  0.046446  0.112053     12.000000
  0.120670  0.069669  0.112053     12.000000
  0.160894  0.092892  0.112053     12.000000
  0.201117  0.116115  0.112053     12.000000
  0.040223  0.069669  0.112053     12.000000
  0.080447  0.092892  0.112053     24.000000
  0.120670  0.116115  0.112053     24.000000
  0.160894  0.139338  0.112053     24.000000
  0.201117  0.162561  0.112053     12.000000
  0.080447  0.139338  0.112053     12.000000
  0.120670  0.162561  0.112053     24.000000
  0.160894  0.185784  0.112053     24.000000
  0.120670  0.209007  0.112053     12.000000
  0.160894  0.232230  0.112053     12.000000
 


--------------------------------------------------------------------------------------------------------




 Dimension of arrays:
   k-points           NKPTS =     96   k-points in BZ     NKDIM =     96   number of bands    NBANDS=     40
   number of dos      NEDOS =    301   number of ions     NIONS =      2
   non local maximal  LDIM  =      6   non local SUM 2l+1 LMDIM =     18
   total plane-waves  NPLWV =   1800
   max r-space proj   IRMAX =      1   max aug-charges    IRDMAX=   3772
   dimension x,y,z NGX =    10 NGY =   10 NGZ =   18
   dimension x,y,z NGXF=    20 NGYF=   20 NGZF=   36
   support grid    NGXF=    20 NGYF=   20 NGZF=   36
   ions per type =               2
   NGX,Y,Z   is equivalent  to a cutoff of   7.36,  7.36,  7.38 a.u.
   NGXF,Y,Z  is equivalent  to a cutoff of  14.71, 14.71, 14.75 a.u.

 SYSTEM =  unknown system                          
 POSCAR =  Fe                                      

 Startparameter for this run:
   NWRITE =      2    write-flag & timer
   PREC   = normal    normal or accurate (medium, high low for compatibility)
   ISTART =      0    job   : 0-new  1-cont  2-samecut
   ICHARG =      1    charge: 1-file 2-atom 10-const
   ISPIN  =      1    spin polarized calculation?
   LNONCOLLINEAR =      F non collinear calculations
   LSORBIT =      F    spin-orbit coupling
   INIWAV =      1    electr: 0-lowe 1-rand  2-diag
   LASPH  =      F    aspherical Exc in radial PAW
   METAGGA=      F    non-selfconsistent MetaGGA calc.

 Electronic Relaxation 1
   ENCUT  =  280.0 eV  20.58 Ry    4.54 a.u.   3.08  3.08  5.53*2*pi/ulx,y,z
   ENINI  =  280.0     initial cutoff
   ENAUG  =  511.4 eV  augmentation charge cutoff
   NELM   =     60;   NELMIN=  2; NELMDL= -5     # of ELM steps 
   EDIFF  = 0.1E-05   stopping-criterion for ELM
   LREAL  =      F    real-space projection
   NLSPLINE    = F    spline interpolate recip. space projectors
   LCOMPAT=      F    compatible to vasp.4.4
   GGA_COMPAT  = T    GGA compatible to vasp.4.4-vasp.4.6
   LMAXPAW     = -100 max onsite density
   LMAXMIX     =    2 max onsite mixed and CHGCAR
   VOSKOWN=      0    Vosko Wilk Nusair interpolation
   ROPT   =    0.00000
 Ionic relaxation
   EDIFFG = 0.1E-04   stopping-criterion for IOM
   NSW    =      0    number of steps for IOM
   NBLOCK =      1;   KBLOCK =      1    inner block; outer block 
   IBRION =     -1    ionic relax: 0-MD 1-quasi-New 2-CG
   NFREE  =      0    steps in history (QN), initial steepest desc. (CG)
   ISIF   =      2    stress and relaxation
   IWAVPR =      0    prediction:  0-non 1-charg 2-wave 3-comb
   ISYM   =      2    0-nonsym 1-usesym 2-fastsym
   LCORR  =      T    Harris-Foulkes like correction to forces

   POTIM  = 0.5000    time-step for ionic-motion
   TEIN   =    0.0    initial temperature
   TEBEG  =    0.0;   TEEND  =   0.0 temperature during run
   SMASS  =  -3.00    Nose mass-parameter (am)
   estimated Nose-frequenzy (Omega)   =  0.10E-29 period in steps = 0.13E+47 mass=  -0.117E-27a.u.
   SCALEE = 1.0000    scale energy and forces
   NPACO  =    256;   APACO  = 16.0  distance and # of slots for P.C.
   PSTRESS=    0.0 pullay stress

  Mass of Ions in am
   POMASS =  55.85
  Ionic Valenz
   ZVAL   =   8.00
  Atomic Wigner-Seitz radii
   RWIGS  =  -1.00
  virtual crystal weights 
   VCA    =   1.00
   NELECT =      16.0000    total number of electrons
   NUPDOWN=      -1.0000    fix difference up-down

 DOS related values:
   EMIN   =  10.00;   EMAX   =-10.00  energy-range for DOS
   EFERMI =   0.00
   ISMEAR =     1;   SIGMA  =   0.20  broadening in eV -4-tet -1-fermi 0-gaus

 Electronic relaxation 2 (details)
   IALGO  =     38    algorithm
   LDIAG  =      T    sub-space diagonalisation (order eigenvalues)
   LSUBROT=      F    optimize rotation matrix (better conditioning)
   TURBO    =      0    0=normal 1=particle mesh
   IRESTART =      0    0=no restart 2=restart with 2 vectors
   NREBOOT  =      0    no. of reboots
   NMIN     =      0    reboot dimension
   EREF     =   0.00    reference energy to select bands
   IMIX   =      4    mixing-type and parameters
     AMIX     =   0.40;   BMIX     =  1.00
     AMIX_MAG =   1.60;   BMIX_MAG =  1.00
     AMIN     =   0.10
     WC   =   100.;   INIMIX=   1;  MIXPRE=   1;  MAXMIX= -45

 Intra band minimization:
   WEIMIN = 0.0000     energy-eigenvalue tresh-hold
   EBREAK =  0.62E-08  absolut break condition
   DEPER  =   0.30     relativ break condition  

   TIME   =   0.40     timestep for ELM

  volume/ion in A,a.u.               =       8.97        60.55
  Fermi-wavevector in a.u.,A,eV,Ry     =   1.575678  2.977600 33.780035  2.482763
  Thomas-Fermi vector in A             =   2.676626
 
 Write flags
   LWAVE        =      T    write WAVECAR
   LDOWNSAMPLE  =      F    k-point downsampling of WAVECAR
   LCHARG       =      T    write CHGCAR
   LVTOT        =      F    write LOCPOT, total local potential
   LVHAR        =      F    write LOCPOT, Hartree potential only
   LELF         =      F    write electronic localiz. function (ELF)
   LORBIT       =      0    0 simple, 1 ext, 2 COOP (PROOUT), +10 PAW based schemes


 Dipole corrections
   LMONO  =      F    monopole corrections only (constant potential shift)
   LDIPOL =      F    correct potential (dipole corrections)
   IDIPOL =      0    1-x, 2-y, 3-z, 4-all directions 
   EPSILON=  1.0000000 bulk dielectric constant

 Exchange correlation treatment:
   GGA     =    PE    GGA type
   LEXCH   =     8    internal setting for exchange type
   VOSKOWN=      0    Vosko Wilk Nusair interpolation
   LHFCALC =     F    Hartree Fock is set to
   LHFONE  =     F    Hartree Fock one center treatment
   AEXX    =    0.0000 exact exchange contribution

 Linear response parameters
   LEPSILON=     F    determine dielectric tensor
   LRPA    =     F    only Hartree local field effects (RPA)
   LNABLA  =     F    use nabla operator in PAW spheres
   LVEL    =     F    velocity operator in full k-point grid
   LINTERFAST=   F  fast interpolation
   KINTER  =     0    interpolate to denser k-point grid
   CSHIFT  =0.1000    complex shift for real part using Kramers Kronig
   OMEGAMAX=  -1.0    maximum frequency
   DEG_THRESHOLD= 0.2000000E-02 threshold for treating states as degnerate
   RTIME   =   -0.100 relaxation time in fs
  (WPLASMAI=    0.000 imaginary part of plasma frequency in eV, 0.658/RTIME)
   DFIELD  = 0.0000000 0.0000000 0.0000000 field for delta impulse in time
 
 Orbital magnetization related:
   ORBITALMAG=     F  switch on orbital magnetization
   LCHIMAG   =     F  perturbation theory with respect to B field
   DQ        =  0.001000  dq finite difference perturbation B field
   LLRAUG    =     F  two centre corrections for induced B field



--------------------------------------------------------------------------------------------------------


 Static calculation
 charge density and potential will be updated during run
 non-spin polarized calculation
 Variant of blocked Davidson
 Davidson routine will perform the subspace rotation
 perform sub-space diagonalisation
    after iterative eigenvector-optimisation
 modified Broyden-mixing scheme, WC =      100.0
 initial mixing is a Kerker type mixing with AMIX =  0.4000 and BMIX =      1.0000
 Hartree-type preconditioning will be used
 using additional bands           32
 reciprocal scheme for non local part
 use partial core corrections
 calculate Harris-corrections to forces 
   (improved forces if not selfconsistent)
 use gradient corrections 
 use of overlap-Matrix (Vanderbilt PP)
 Methfessel and Paxton  Order N= 1 SIGMA  =   0.20


--------------------------------------------------------------------------------------------------------


  energy-cutoff  :      280.00
  volume of cell :       17.94
      direct lattice vectors                 reciprocal lattice vectors
     2.260100000  0.000000000  0.000000000     0.442458298  0.255453418  0.000000000
    -1.130050000  1.957304015  0.000000000     0.000000000  0.510906835  0.000000000
     0.000000000  0.000000000  4.056540000     0.000000000  0.000000000  0.246515503

  length of vectors
     2.260100000  2.260100000  4.056540000     0.510906835  0.510906835  0.246515503


 
 k-points in units of 2pi/SCALE and weight: KPOINTS created by Atomic Simulation Env
   0.00000000  0.00000000  0.00000000       0.001
   0.04022348  0.02322304  0.00000000       0.005
   0.08044696  0.04644608  0.00000000       0.005
   0.12067044  0.06966911  0.00000000       0.005
   0.16089393  0.09289215  0.00000000       0.005
   0.20111741  0.11611519  0.00000000       0.005
   0.04022348  0.06966911  0.00000000       0.005
   0.08044696  0.09289215  0.00000000       0.009
   0.12067044  0.11611519  0.00000000       0.009
   0.16089393  0.13933823  0.00000000       0.009
   0.20111741  0.16256127  0.00000000       0.005
   0.08044696  0.13933823  0.00000000       0.005
   0.12067044  0.16256127  0.00000000       0.009
   0.16089393  0.18578430  0.00000000       0.009
   0.12067044  0.20900734  0.00000000       0.005
   0.16089393  0.23223038  0.00000000       0.005
   0.00000000  0.00000000  0.02241050       0.002
   0.04022348  0.02322304  0.02241050       0.009
   0.08044696  0.04644608  0.02241050       0.009
   0.12067044  0.06966911  0.02241050       0.009
   0.16089393  0.09289215  0.02241050       0.009
   0.20111741  0.11611519  0.02241050       0.009
   0.04022348  0.06966911  0.02241050       0.009
   0.08044696  0.09289215  0.02241050       0.018
   0.12067044  0.11611519  0.02241050       0.018
   0.16089393  0.13933823  0.02241050       0.018
   0.20111741  0.16256127  0.02241050       0.009
   0.08044696  0.13933823  0.02241050       0.009
   0.12067044  0.16256127  0.02241050       0.018
   0.16089393  0.18578430  0.02241050       0.018
   0.12067044  0.20900734  0.02241050       0.009
   0.16089393  0.23223038  0.02241050       0.009
   0.00000000  0.00000000  0.04482100       0.002
   0.04022348  0.02322304  0.04482100       0.009
   0.08044696  0.04644608  0.04482100       0.009
   0.12067044  0.06966911  0.04482100       0.009
   0.16089393  0.09289215  0.04482100       0.009
   0.20111741  0.11611519  0.04482100       0.009
   0.04022348  0.06966911  0.04482100       0.009
   0.08044696  0.09289215  0.04482100       0.018
   0.12067044  0.11611519  0.04482100       0.018
   0.16089393  0.13933823  0.04482100       0.018
   0.20111741  0.16256127  0.04482100       0.009
   0.08044696  0.13933823  0.04482100       0.009
   0.12067044  0.16256127  0.04482100       0.018
   0.16089393  0.18578430  0.04482100       0.018
   0.12067044  0.20900734  0.04482100       0.009
   0.16089393  0.23223038  0.04482100       0.009
   0.00000000  0.00000000  0.06723150       0.002
   0.04022348  0.02322304  0.06723150       0.009
   0.08044696  0.04644608  0.06723150       0.009
   0.12067044  0.06966911  0.06723150       0.009
   0.16089393  0.09289215  0.06723150       0.009
   0.20111741  0.11611519  0.06723150       0.009
   0.04022348  0.06966911  0.06723150       0.009
   0.08044696  0.09289215  0.06723150       0.018
   0.12067044  0.11611519  0.06723150       0.018
   0.16089393  0.13933823  0.06723150       0.018
   0.20111741  0.16256127  0.06723150       0.009
   0.08044696  0.13933823  0.06723150       0.009
   0.12067044  0.16256127  0.06723150       0.018
   0.16089393  0.18578430  0.06723150       0.018
   0.12067044  0.20900734  0.06723150       0.009
   0.16089393  0.23223038  0.06723150       0.009
   0.00000000  0.00000000  0.08964200       0.002
   0.04022348  0.02322304  0.08964200       0.009
   0.08044696  0.04644608  0.08964200       0.009
   0.12067044  0.06966911  0.08964200       0.009
   0.16089393  0.09289215  0.08964200       0.009
   0.20111741  0.11611519  0.08964200       0.009
   0.04022348  0.06966911  0.08964200       0.009
   0.08044696  0.09289215  0.08964200       0.018
   0.12067044  0.11611519  0.08964200       0.018
   0.16089393  0.13933823  0.08964200       0.018
   0.20111741  0.16256127  0.08964200       0.009
   0.08044696  0.13933823  0.08964200       0.009
   0.12067044  0.16256127  0.08964200       0.018
   0.16089393  0.18578430  0.08964200       0.018
   0.12067044  0.20900734  0.08964200       0.009
   0.16089393  0.23223038  0.08964200       0.009
   0.00000000  0.00000000  0.11205250       0.002
   0.04022348  0.02322304  0.11205250       0.009
   0.08044696  0.04644608  0.11205250       0.009
   0.12067044  0.06966911  0.11205250       0.009
   0.16089393  0.09289215  0.11205250       0.009
   0.20111741  0.11611519  0.11205250       0.009
   0.04022348  0.06966911  0.11205250       0.009
   0.08044696  0.09289215  0.11205250       0.018
   0.12067044  0.11611519  0.11205250       0.018
   0.16089393  0.13933823  0.11205250       0.018
   0.20111741  0.16256127  0.11205250       0.009
   0.08044696  0.13933823  0.11205250       0.009
   0.12067044  0.16256127  0.11205250       0.018
   0.16089393  0.18578430  0.11205250       0.018
   0.12067044  0.20900734  0.11205250       0.009
   0.16089393  0.23223038  0.11205250       0.009
 
 k-points in reciprocal lattice and weights: KPOINTS created by Atomic Simulation Env
   0.00000000  0.00000000  0.00000000       0.001
   0.09090909  0.00000000  0.00000000       0.005
   0.18181818 -0.00000000  0.00000000       0.005
   0.27272727  0.00000000  0.00000000       0.005
   0.36363636  0.00000000  0.00000000       0.005
   0.45454545 -0.00000000  0.00000000       0.005
   0.09090909  0.09090909  0.00000000       0.005
   0.18181818  0.09090909  0.00000000       0.009
   0.27272727  0.09090909  0.00000000       0.009
   0.36363636  0.09090909  0.00000000       0.009
   0.45454545  0.09090909  0.00000000       0.005
   0.18181818  0.18181818  0.00000000       0.005
   0.27272727  0.18181818  0.00000000       0.009
   0.36363636  0.18181818  0.00000000       0.009
   0.27272727  0.27272727  0.00000000       0.005
   0.36363636  0.27272727  0.00000000       0.005
   0.00000000  0.00000000  0.09090909       0.002
   0.09090909  0.00000000  0.09090909       0.009
   0.18181818 -0.00000000  0.09090909       0.009
   0.27272727  0.00000000  0.09090909       0.009
   0.36363636  0.00000000  0.09090909       0.009
   0.45454545 -0.00000000  0.09090909       0.009
   0.09090909  0.09090909  0.09090909       0.009
   0.18181818  0.09090909  0.09090909       0.018
   0.27272727  0.09090909  0.09090909       0.018
   0.36363636  0.09090909  0.09090909       0.018
   0.45454545  0.09090909  0.09090909       0.009
   0.18181818  0.18181818  0.09090909       0.009
   0.27272727  0.18181818  0.09090909       0.018
   0.36363636  0.18181818  0.09090909       0.018
   0.27272727  0.27272727  0.09090909       0.009
   0.36363636  0.27272727  0.09090909       0.009
   0.00000000  0.00000000  0.18181818       0.002
   0.09090909  0.00000000  0.18181818       0.009
   0.18181818 -0.00000000  0.18181818       0.009
   0.27272727  0.00000000  0.18181818       0.009
   0.36363636  0.00000000  0.18181818       0.009
   0.45454545 -0.00000000  0.18181818       0.009
   0.09090909  0.09090909  0.18181818       0.009
   0.18181818  0.09090909  0.18181818       0.018
   0.27272727  0.09090909  0.18181818       0.018
   0.36363636  0.09090909  0.18181818       0.018
   0.45454545  0.09090909  0.18181818       0.009
   0.18181818  0.18181818  0.18181818       0.009
   0.27272727  0.18181818  0.18181818       0.018
   0.36363636  0.18181818  0.18181818       0.018
   0.27272727  0.27272727  0.18181818       0.009
   0.36363636  0.27272727  0.18181818       0.009
   0.00000000  0.00000000  0.27272727       0.002
   0.09090909  0.00000000  0.27272727       0.009
   0.18181818 -0.00000000  0.27272727       0.009
   0.27272727  0.00000000  0.27272727       0.009
   0.36363636  0.00000000  0.27272727       0.009
   0.45454545 -0.00000000  0.27272727       0.009
   0.09090909  0.09090909  0.27272727       0.009
   0.18181818  0.09090909  0.27272727       0.018
   0.27272727  0.09090909  0.27272727       0.018
   0.36363636  0.09090909  0.27272727       0.018
   0.45454545  0.09090909  0.27272727       0.009
   0.18181818  0.18181818  0.27272727       0.009
   0.27272727  0.18181818  0.27272727       0.018
   0.36363636  0.18181818  0.27272727       0.018
   0.27272727  0.27272727  0.27272727       0.009
   0.36363636  0.27272727  0.27272727       0.009
   0.00000000  0.00000000  0.36363636       0.002
   0.09090909  0.00000000  0.36363636       0.009
   0.18181818 -0.00000000  0.36363636       0.009
   0.27272727  0.00000000  0.36363636       0.009
   0.36363636  0.00000000  0.36363636       0.009
   0.45454545 -0.00000000  0.36363636       0.009
   0.09090909  0.09090909  0.36363636       0.009
   0.18181818  0.09090909  0.36363636       0.018
   0.27272727  0.09090909  0.36363636       0.018
   0.36363636  0.09090909  0.36363636       0.018
   0.45454545  0.09090909  0.36363636       0.009
   0.18181818  0.18181818  0.36363636       0.009
   0.27272727  0.18181818  0.36363636       0.018
   0.36363636  0.18181818  0.36363636       0.018
   0.27272727  0.27272727  0.36363636       0.009
   0.36363636  0.27272727  0.36363636       0.009
   0.00000000  0.00000000  0.45454545       0.002
   0.09090909  0.00000000  0.45454545       0.009
   0.18181818 -0.00000000  0.45454545       0.009
   0.27272727  0.00000000  0.45454545       0.009
   0.36363636  0.00000000  0.45454545       0.009
   0.45454545 -0.00000000  0.45454545       0.009
   0.09090909  0.09090909  0.45454545       0.009
   0.18181818  0.09090909  0.45454545       0.018
   0.27272727  0.09090909  0.45454545       0.018
   0.36363636  0.09090909  0.45454545       0.018
   0.45454545  0.09090909  0.45454545       0.009
   0.18181818  0.18181818  0.45454545       0.009
   0.27272727  0.18181818  0.45454545       0.018
   0.36363636  0.18181818  0.45454545       0.018
   0.27272727  0.27272727  0.45454545       0.009
   0.36363636  0.27272727  0.45454545       0.009
 
 position of ions in fractional coordinates (direct lattice) 
   0.00000000  0.00000000  0.00000000
   0.33333333  0.66666667  0.50000000
 
 position of ions in cartesian coordinates  (Angst):
   0.00000000  0.00000000  0.00000000
   0.00000000  1.30486934  2.02827000
 


--------------------------------------------------------------------------------------------------------


 k-point   1 :   0.0000 0.0000 0.0000  plane waves:     185
 k-point   2 :   0.0909 0.0000 0.0000  plane waves:     189
 k-point   3 :   0.1818-0.0000 0.0000  plane waves:     191
 k-point   4 :   0.2727 0.0000 0.0000  plane waves:     189
 k-point   5 :   0.3636 0.0000 0.0000  plane waves:     194
 k-point   6 :   0.4545-0.0000 0.0000  plane waves:     196
 k-point   7 :   0.0909 0.0909 0.0000  plane waves:     189
 k-point   8 :   0.1818 0.0909 0.0000  plane waves:     193
 k-point   9 :   0.2727 0.0909 0.0000  plane waves:     191
 k-point  10 :   0.3636 0.0909 0.0000  plane waves:     189
 k-point  11 :   0.4545 0.0909 0.0000  plane waves:     191
 k-point  12 :   0.1818 0.1818 0.0000  plane waves:     189
 k-point  13 :   0.2727 0.1818 0.0000  plane waves:     190
 k-point  14 :   0.3636 0.1818 0.0000  plane waves:     197
 k-point  15 :   0.2727 0.2727 0.0000  plane waves:     199
 k-point  16 :   0.3636 0.2727 0.0000  plane waves:     195
 k-point  17 :   0.0000 0.0000 0.0909  plane waves:     185
 k-point  18 :   0.0909 0.0000 0.0909  plane waves:     186
 k-point  19 :   0.1818-0.0000 0.0909  plane waves:     187
 k-point  20 :   0.2727 0.0000 0.0909  plane waves:     193
 k-point  21 :   0.3636 0.0000 0.0909  plane waves:     194
 k-point  22 :   0.4545-0.0000 0.0909  plane waves:     194
 k-point  23 :   0.0909 0.0909 0.0909  plane waves:     190
 k-point  24 :   0.1818 0.0909 0.0909  plane waves:     190
 k-point  25 :   0.2727 0.0909 0.0909  plane waves:     188
 k-point  26 :   0.3636 0.0909 0.0909  plane waves:     190
 k-point  27 :   0.4545 0.0909 0.0909  plane waves:     193
 k-point  28 :   0.1818 0.1818 0.0909  plane waves:     187
 k-point  29 :   0.2727 0.1818 0.0909  plane waves:     192
 k-point  30 :   0.3636 0.1818 0.0909  plane waves:     197
 k-point  31 :   0.2727 0.2727 0.0909  plane waves:     197
 k-point  32 :   0.3636 0.2727 0.0909  plane waves:     194
 k-point  33 :   0.0000 0.0000 0.1818  plane waves:     179
 k-point  34 :   0.0909 0.0000 0.1818  plane waves:     185
 k-point  35 :   0.1818-0.0000 0.1818  plane waves:     191
 k-point  36 :   0.2727 0.0000 0.1818  plane waves:     193
 k-point  37 :   0.3636 0.0000 0.1818  plane waves:     191
 k-point  38 :   0.4545-0.0000 0.1818  plane waves:     193
 k-point  39 :   0.0909 0.0909 0.1818  plane waves:     188
 k-point  40 :   0.1818 0.0909 0.1818  plane waves:     187
 k-point  41 :   0.2727 0.0909 0.1818  plane waves:     186
 k-point  42 :   0.3636 0.0909 0.1818  plane waves:     194
 k-point  43 :   0.4545 0.0909 0.1818  plane waves:     193
 k-point  44 :   0.1818 0.1818 0.1818  plane waves:     193
 k-point  45 :   0.2727 0.1818 0.1818  plane waves:     193
 k-point  46 :   0.3636 0.1818 0.1818  plane waves:     195
 k-point  47 :   0.2727 0.2727 0.1818  plane waves:     197
 k-point  48 :   0.3636 0.2727 0.1818  plane waves:     198
 k-point  49 :   0.0000 0.0000 0.2727  plane waves:     185
 k-point  50 :   0.0909 0.0000 0.2727  plane waves:     184
 k-point  51 :   0.1818-0.0000 0.2727  plane waves:     185
 k-point  52 :   0.2727 0.0000 0.2727  plane waves:     188
 k-point  53 :   0.3636 0.0000 0.2727  plane waves:     190
 k-point  54 :   0.4545-0.0000 0.2727  plane waves:     195
 k-point  55 :   0.0909 0.0909 0.2727  plane waves:     186
 k-point  56 :   0.1818 0.0909 0.2727  plane waves:     190
 k-point  57 :   0.2727 0.0909 0.2727  plane waves:     191
 k-point  58 :   0.3636 0.0909 0.2727  plane waves:     193
 k-point  59 :   0.4545 0.0909 0.2727  plane waves:     193
 k-point  60 :   0.1818 0.1818 0.2727  plane waves:     189
 k-point  61 :   0.2727 0.1818 0.2727  plane waves:     194
 k-point  62 :   0.3636 0.1818 0.2727  plane waves:     194
 k-point  63 :   0.2727 0.2727 0.2727  plane waves:     195
 k-point  64 :   0.3636 0.2727 0.2727  plane waves:     198
 k-point  65 :   0.0000 0.0000 0.3636  plane waves:     191
 k-point  66 :   0.0909 0.0000 0.3636  plane waves:     182
 k-point  67 :   0.1818-0.0000 0.3636  plane waves:     185
 k-point  68 :   0.2727 0.0000 0.3636  plane waves:     185
 k-point  69 :   0.3636 0.0000 0.3636  plane waves:     192
 k-point  70 :   0.4545-0.0000 0.3636  plane waves:     193
 k-point  71 :   0.0909 0.0909 0.3636  plane waves:     184
 k-point  72 :   0.1818 0.0909 0.3636  plane waves:     187
 k-point  73 :   0.2727 0.0909 0.3636  plane waves:     190
 k-point  74 :   0.3636 0.0909 0.3636  plane waves:     192
 k-point  75 :   0.4545 0.0909 0.3636  plane waves:     190
 k-point  76 :   0.1818 0.1818 0.3636  plane waves:     190
 k-point  77 :   0.2727 0.1818 0.3636  plane waves:     193
 k-point  78 :   0.3636 0.1818 0.3636  plane waves:     193
 k-point  79 :   0.2727 0.2727 0.3636  plane waves:     197
 k-point  80 :   0.3636 0.2727 0.3636  plane waves:     198
 k-point  81 :   0.0000 0.0000 0.4545  plane waves:     191
 k-point  82 :   0.0909 0.0000 0.4545  plane waves:     181
 k-point  83 :   0.1818-0.0000 0.4545  plane waves:     183
 k-point  84 :   0.2727 0.0000 0.4545  plane waves:     187
 k-point  85 :   0.3636 0.0000 0.4545  plane waves:     191
 k-point  86 :   0.4545-0.0000 0.4545  plane waves:     191
 k-point  87 :   0.0909 0.0909 0.4545  plane waves:     184
 k-point  88 :   0.1818 0.0909 0.4545  plane waves:     186
 k-point  89 :   0.2727 0.0909 0.4545  plane waves:     192
 k-point  90 :   0.3636 0.0909 0.4545  plane waves:     188
 k-point  91 :   0.4545 0.0909 0.4545  plane waves:     192
 k-point  92 :   0.1818 0.1818 0.4545  plane waves:     193
 k-point  93 :   0.2727 0.1818 0.4545  plane waves:     193
 k-point  94 :   0.3636 0.1818 0.4545  plane waves:     193
 k-point  95 :   0.2727 0.2727 0.4545  plane waves:     194
 k-point  96 :   0.3636 0.2727 0.4545  plane waves:     198

 maximum number of plane-waves:       199
 maximum index in each direction: 
   IXMAX=    3   IYMAX=    3   IZMAX=    5
   IXMIN=   -3   IYMIN=   -3   IZMIN=   -5


 total amount of memory used by VASP MPI-rank0    48038. kBytes
=======================================================================

   base      :      30000. kBytes
   nonl-proj :       2757. kBytes
   grid      :        812. kBytes
   one-center:         31. kBytes
   wavefun   :      14438. kBytes
 
     INWAV:  cpu time    0.0000: real time    0.0000
 Broyden mixing: mesh for mixing (old mesh)
   NGX =  7   NGY =  7   NGZ = 11
  (NGX  = 20   NGY  = 20   NGZ  = 36)
  gives a total of    539 points

 initial charge density was supplied:
 charge density of overlapping atoms calculated
 number of electron      16.0000000 magnetization 
 keeping initial charge density in first step


--------------------------------------------------------------------------------------------------------


 Maximum index for augmentation-charges         3479 (set IRDMAX)


--------------------------------------------------------------------------------------------------------


 First call to EWALD:  gamma=   0.677
 Maximum number of real-space cells 4x 4x 2
 Maximum number of reciprocal cells 2x 2x 4

    FEWALD:  cpu time    0.0009: real time    0.0009


--------------------------------------- Iteration      1(   1)  ---------------------------------------


    POTLOK:  cpu time    0.0036: real time    0.0036
    SETDIJ:  cpu time    0.0022: real time    0.0022
     EDDAV:  cpu time    0.7862: real time    0.8044
       DOS:  cpu time    0.0054: real time    0.0054
    --------------------------------------------
      LOOP:  cpu time    0.7974: real time    0.8156

 eigenvalue-minimisations  :  9472
 total energy-change (2. order) : 0.6010763E+02  (-0.2490481E+03)
 number of electron      16.0000000 magnetization 
 augmentation part       16.0000000 magnetization 

 Free energy of the ion-electron system (eV)
  ---------------------------------------------------
  alpha Z        PSCENC =       154.05752179
  Ewald energy   TEWEN  =     -1279.18341071
  -Hartree energ DENC   =      -189.28563913
  -exchange      EXHF   =         0.00000000
  -V(xc)+E(xc)   XCENC  =         9.34291432
  PAW double counting   =      1109.69170683    -1125.09647265
  entropy T*S    EENTRO =         0.00024346
  eigenvalues    EBANDS =       192.00585632
  atomic energy  EATOM  =      1188.57490811
  Solvation  Ediel_sol  =         0.00000000
  ---------------------------------------------------
  free energy    TOTEN  =        60.10762833 eV

  energy without entropy =       60.10738488  energy(sigma->0) =       60.10754718


--------------------------------------------------------------------------------------------------------




--------------------------------------- Iteration      1(   2)  ---------------------------------------


     EDDAV:  cpu time    0.6733: real time    0.6733
       DOS:  cpu time    0.0058: real time    0.0058
    --------------------------------------------
      LOOP:  cpu time    0.6792: real time    0.6792

 eigenvalue-minimisations  :  7912
 total energy-change (2. order) :-0.7437466E+02  (-0.6324938E+02)
 number of electron      16.0000000 magnetization 
 augmentation part       16.0000000 magnetization 

 Free energy of the ion-electron system (eV)
  ---------------------------------------------------
  alpha Z        PSCENC =       154.05752179
  Ewald energy   TEWEN  =     -1279.18341071
  -Hartree energ DENC   =      -189.28563913
  -exchange      EXHF   =         0.00000000
  -V(xc)+E(xc)   XCENC  =         9.34291432
  PAW double counting   =      1109.69170683    -1125.09647265
  entropy T*S    EENTRO =         0.00357285
  eigenvalues    EBANDS =       117.62786526
  atomic energy  EATOM  =      1188.57490811
  Solvation  Ediel_sol  =         0.00000000
  ---------------------------------------------------
  free energy    TOTEN  =       -14.26703333 eV

  energy without entropy =      -14.27060618  energy(sigma->0) =      -14.26822428


--------------------------------------------------------------------------------------------------------




--------------------------------------- Iteration      1(   3)  ---------------------------------------


     EDDAV:  cpu time    0.7801: real time    0.7801
       DOS:  cpu time    0.0062: real time    0.0062
    --------------------------------------------
      LOOP:  cpu time    0.7863: real time    0.7863

 eigenvalue-minimisations  :  9560
 total energy-change (2. order) :-0.4083093E+01  (-0.3913572E+01)
 number of electron      16.0000000 magnetization 
 augmentation part       16.0000000 magnetization 

 Free energy of the ion-electron system (eV)
  ---------------------------------------------------
  alpha Z        PSCENC =       154.05752179
  Ewald energy   TEWEN  =     -1279.18341071
  -Hartree energ DENC   =      -189.28563913
  -exchange      EXHF   =         0.00000000
  -V(xc)+E(xc)   XCENC  =         9.34291432
  PAW double counting   =      1109.69170683    -1125.09647265
  entropy T*S    EENTRO =         0.00029198
  eigenvalues    EBANDS =       113.54805362
  atomic energy  EATOM  =      1188.57490811
  Solvation  Ediel_sol  =         0.00000000
  ---------------------------------------------------
  free energy    TOTEN  =       -18.35012585 eV

  energy without entropy =      -18.35041783  energy(sigma->0) =      -18.35022317


--------------------------------------------------------------------------------------------------------




--------------------------------------- Iteration      1(   4)  ---------------------------------------


     EDDAV:  cpu time    0.7277: real time    0.7277
       DOS:  cpu time    0.0063: real time    0.0063
    --------------------------------------------
      LOOP:  cpu time    0.7340: real time    0.7340

 eigenvalue-minimisations  :  8952
 total energy-change (2. order) :-0.1399768E-01  (-0.1399177E-01)
 number of electron      16.0000000 magnetization 
 augmentation part       16.0000000 magnetization 

 Free energy of the ion-electron system (eV)
  ---------------------------------------------------
  alpha Z        PSCENC =       154.05752179
  Ewald energy   TEWEN  =     -1279.18341071
  -Hartree energ DENC   =      -189.28563913
  -exchange      EXHF   =         0.00000000
  -V(xc)+E(xc)   XCENC  =         9.34291432
  PAW double counting   =      1109.69170683    -1125.09647265
  entropy T*S    EENTRO =         0.00028464
  eigenvalues    EBANDS =       113.53406328
  atomic energy  EATOM  =      1188.57490811
  Solvation  Ediel_sol  =         0.00000000
  ---------------------------------------------------
  free energy    TOTEN  =       -18.36412353 eV

  energy without entropy =      -18.36440817  energy(sigma->0) =      -18.36421841


--------------------------------------------------------------------------------------------------------




--------------------------------------- Iteration      1(   5)  ---------------------------------------


     EDDAV:  cpu time    0.7473: real time    0.7473
       DOS:  cpu time    0.0064: real time    0.0064
    CHARGE:  cpu time    0.0203: real time    0.0203
    MIXING:  cpu time    0.0002: real time    0.0002
    --------------------------------------------
      LOOP:  cpu time    0.7741: real time    0.7741

 eigenvalue-minimisations  :  9240
 total energy-change (2. order) :-0.9287210E-05  (-0.9286285E-05)
 number of electron      15.9999990 magnetization 
 augmentation part        7.1996233 magnetization 

 Broyden mixing:
  rms(total) = 0.19614E+01    rms(broyden)= 0.19613E+01
  rms(prec ) = 0.29649E+01
  weight for this iteration     100.00

 Free energy of the ion-electron system (eV)
  ---------------------------------------------------
  alpha Z        PSCENC =       154.05752179
  Ewald energy   TEWEN  =     -1279.18341071
  -Hartree energ DENC   =      -189.28563913
  -exchange      EXHF   =         0.00000000
  -V(xc)+E(xc)   XCENC  =         9.34291432
  PAW double counting   =      1109.69170683    -1125.09647265
  entropy T*S    EENTRO =         0.00028462
  eigenvalues    EBANDS =       113.53405401
  atomic energy  EATOM  =      1188.57490811
  Solvation  Ediel_sol  =         0.00000000
  ---------------------------------------------------
  free energy    TOTEN  =       -18.36413281 eV

  energy without entropy =      -18.36441744  energy(sigma->0) =      -18.36422769


--------------------------------------------------------------------------------------------------------




--------------------------------------- Iteration      1(   6)  ---------------------------------------


    POTLOK:  cpu time    0.0034: real time    0.0034
    SETDIJ:  cpu time    0.0021: real time    0.0021
     EDDAV:  cpu time    0.8910: real time    0.8910
       DOS:  cpu time    0.0060: real time    0.0060
    CHARGE:  cpu time    0.0197: real time    0.0197
    MIXING:  cpu time    0.0002: real time    0.0002
    --------------------------------------------
      LOOP:  cpu time    0.9224: real time    0.9224

 eigenvalue-minimisations  : 11248
 total energy-change (2. order) : 0.2583114E+01  (-0.1375318E+00)
 number of electron      15.9999988 magnetization 
 augmentation part        8.3357657 magnetization 

 Broyden mixing:
  rms(total) = 0.16399E+00    rms(broyden)= 0.16390E+00
  rms(prec ) = 0.20155E+00
  weight for this iteration     100.00

 eigenvalues of (default mixing * dielectric matrix)
  average eigenvalue GAMMA=   1.0316
  1.0316

 Free energy of the ion-electron system (eV)
  ---------------------------------------------------
  alpha Z        PSCENC =       154.05752179
  Ewald energy   TEWEN  =     -1279.18341071
  -Hartree energ DENC   =      -158.93049063
  -exchange      EXHF   =         0.00000000
  -V(xc)+E(xc)   XCENC  =         7.85035216
  PAW double counting   =      1337.05013292    -1349.39965321
  entropy T*S    EENTRO =         0.00168795
  eigenvalues    EBANDS =        84.19793309
  atomic energy  EATOM  =      1188.57490811
  Solvation  Ediel_sol  =         0.00000000
  ---------------------------------------------------
  free energy    TOTEN  =       -15.78101851 eV

  energy without entropy =      -15.78270646  energy(sigma->0) =      -15.78158116


--------------------------------------------------------------------------------------------------------




--------------------------------------- Iteration      1(   7)  ---------------------------------------


    POTLOK:  cpu time    0.0034: real time    0.0034
    SETDIJ:  cpu time    0.0021: real time    0.0021
     EDDAV:  cpu time    0.7878: real time    0.7878
       DOS:  cpu time    0.0064: real time    0.0064
    CHARGE:  cpu time    0.0196: real time    0.0196
    MIXING:  cpu time    0.0002: real time    0.0002
    --------------------------------------------
      LOOP:  cpu time    0.8196: real time    0.8196

 eigenvalue-minimisations  :  9784
 total energy-change (2. order) : 0.1178690E+00  (-0.5877210E-02)
 number of electron      15.9999988 magnetization 
 augmentation part        8.1788382 magnetization 

 Broyden mixing:
  rms(total) = 0.15919E+00    rms(broyden)= 0.15919E+00
  rms(prec ) = 0.22420E+00
  weight for this iteration     100.00

 eigenvalues of (default mixing * dielectric matrix)
  average eigenvalue GAMMA=   1.2041
  0.8338  1.5745

 Free energy of the ion-electron system (eV)
  ---------------------------------------------------
  alpha Z        PSCENC =       154.05752179
  Ewald energy   TEWEN  =     -1279.18341071
  -Hartree energ DENC   =      -160.07407383
  -exchange      EXHF   =         0.00000000
  -V(xc)+E(xc)   XCENC  =         7.93401570
  PAW double counting   =      1451.04689725    -1466.78296313
  entropy T*S    EENTRO =         0.00146825
  eigenvalues    EBANDS =        88.76248704
  atomic energy  EATOM  =      1188.57490811
  Solvation  Ediel_sol  =         0.00000000
  ---------------------------------------------------
  free energy    TOTEN  =       -15.66314952 eV

  energy without entropy =      -15.66461777  energy(sigma->0) =      -15.66363893


--------------------------------------------------------------------------------------------------------




--------------------------------------- Iteration      1(   8)  ---------------------------------------


    POTLOK:  cpu time    0.0035: real time    0.0035
    SETDIJ:  cpu time    0.0022: real time    0.0022
     EDDAV:  cpu time    0.8287: real time    0.8287
       DOS:  cpu time    0.0065: real time    0.0065
    CHARGE:  cpu time    0.0197: real time    0.0197
    MIXING:  cpu time    0.0002: real time    0.0002
    --------------------------------------------
      LOOP:  cpu time    0.8608: real time    0.8608

 eigenvalue-minimisations  : 10432
 total energy-change (2. order) : 0.3675194E-01  (-0.2393509E-03)
 number of electron      15.9999988 magnetization 
 augmentation part        8.2037090 magnetization 

 Broyden mixing:
  rms(total) = 0.55313E-01    rms(broyden)= 0.55313E-01
  rms(prec ) = 0.74536E-01
  weight for this iteration     100.00

 eigenvalues of (default mixing * dielectric matrix)
  average eigenvalue GAMMA=   1.5374
  2.6818  1.0746  0.8557

 Free energy of the ion-electron system (eV)
  ---------------------------------------------------
  alpha Z        PSCENC =       154.05752179
  Ewald energy   TEWEN  =     -1279.18341071
  -Hartree energ DENC   =      -157.53041406
  -exchange      EXHF   =         0.00000000
  -V(xc)+E(xc)   XCENC  =         7.83160295
  PAW double counting   =      1567.78810933    -1585.56405739
  entropy T*S    EENTRO =         0.00154084
  eigenvalues    EBANDS =        88.39780157
  atomic energy  EATOM  =      1188.57490811
  Solvation  Ediel_sol  =         0.00000000
  ---------------------------------------------------
  free energy    TOTEN  =       -15.62639757 eV

  energy without entropy =      -15.62793841  energy(sigma->0) =      -15.62691119


--------------------------------------------------------------------------------------------------------




--------------------------------------- Iteration      1(   9)  ---------------------------------------


    POTLOK:  cpu time    0.0033: real time    0.0033
    SETDIJ:  cpu time    0.0021: real time    0.0021
     EDDAV:  cpu time    0.8435: real time    0.8435
       DOS:  cpu time    0.0064: real time    0.0064
    CHARGE:  cpu time    0.0194: real time    0.0194
    MIXING:  cpu time    0.0002: real time    0.0002
    --------------------------------------------
      LOOP:  cpu time    0.8750: real time    0.8750

 eigenvalue-minimisations  : 10488
 total energy-change (2. order) : 0.5981421E-02  (-0.6890964E-04)
 number of electron      15.9999988 magnetization 
 augmentation part        8.2117315 magnetization 

 Broyden mixing:
  rms(total) = 0.59798E-02    rms(broyden)= 0.59788E-02
  rms(prec ) = 0.80061E-02
  weight for this iteration     100.00

 eigenvalues of (default mixing * dielectric matrix)
  average eigenvalue GAMMA=   1.5776
  2.7060  0.9789  0.8630  1.7625

 Free energy of the ion-electron system (eV)
  ---------------------------------------------------
  alpha Z        PSCENC =       154.05752179
  Ewald energy   TEWEN  =     -1279.18341071
  -Hartree energ DENC   =      -156.09482915
  -exchange      EXHF   =         0.00000000
  -V(xc)+E(xc)   XCENC  =         7.77724305
  PAW double counting   =      1650.60273078    -1669.73427682
  entropy T*S    EENTRO =         0.00155317
  eigenvalues    EBANDS =        88.37814364
  atomic energy  EATOM  =      1188.57490811
  Solvation  Ediel_sol  =         0.00000000
  ---------------------------------------------------
  free energy    TOTEN  =       -15.62041615 eV

  energy without entropy =      -15.62196932  energy(sigma->0) =      -15.62093387


--------------------------------------------------------------------------------------------------------




--------------------------------------- Iteration      1(  10)  ---------------------------------------


    POTLOK:  cpu time    0.0033: real time    0.0033
    SETDIJ:  cpu time    0.0021: real time    0.0021
     EDDAV:  cpu time    0.6973: real time    0.6973
       DOS:  cpu time    0.0066: real time    0.0066
    CHARGE:  cpu time    0.0195: real time    0.0195
    MIXING:  cpu time    0.0003: real time    0.0003
    --------------------------------------------
      LOOP:  cpu time    0.7291: real time    0.7291

 eigenvalue-minimisations  :  8408
 total energy-change (2. order) :-0.1258536E-04  (-0.2053311E-05)
 number of electron      15.9999988 magnetization 
 augmentation part        8.2115406 magnetization 

 Broyden mixing:
  rms(total) = 0.27106E-02    rms(broyden)= 0.27093E-02
  rms(prec ) = 0.38677E-02
  weight for this iteration     100.00

 eigenvalues of (default mixing * dielectric matrix)
  average eigenvalue GAMMA=   1.6518
  2.6277  2.4315  0.8603  1.0047  1.3348

 Free energy of the ion-electron system (eV)
  ---------------------------------------------------
  alpha Z        PSCENC =       154.05752179
  Ewald energy   TEWEN  =     -1279.18341071
  -Hartree energ DENC   =      -156.16472298
  -exchange      EXHF   =         0.00000000
  -V(xc)+E(xc)   XCENC  =         7.78124000
  PAW double counting   =      1652.50025648    -1671.55908061
  entropy T*S    EENTRO =         0.00155237
  eigenvalues    EBANDS =        88.37130681
  atomic energy  EATOM  =      1188.57490811
  Solvation  Ediel_sol  =         0.00000000
  ---------------------------------------------------
  free energy    TOTEN  =       -15.62042874 eV

  energy without entropy =      -15.62198111  energy(sigma->0) =      -15.62094619


--------------------------------------------------------------------------------------------------------




--------------------------------------- Iteration      1(  11)  ---------------------------------------


    POTLOK:  cpu time    0.0034: real time    0.0034
    SETDIJ:  cpu time    0.0021: real time    0.0021
     EDDAV:  cpu time    0.7194: real time    0.7194
       DOS:  cpu time    0.0063: real time    0.0063
    CHARGE:  cpu time    0.0196: real time    0.0196
    MIXING:  cpu time    0.0002: real time    0.0002
    --------------------------------------------
      LOOP:  cpu time    0.7510: real time    0.7511

 eigenvalue-minimisations  :  8712
 total energy-change (2. order) : 0.1939860E-04  (-0.3401793E-07)
 number of electron      15.9999988 magnetization 
 augmentation part        8.2112567 magnetization 

 Broyden mixing:
  rms(total) = 0.24089E-03    rms(broyden)= 0.24085E-03
  rms(prec ) = 0.41813E-03
  weight for this iteration     100.00

 eigenvalues of (default mixing * dielectric matrix)
  average eigenvalue GAMMA=   1.5738
  2.5823  2.5823  0.8603  1.0006  1.0006  1.4167

 Free energy of the ion-electron system (eV)
  ---------------------------------------------------
  alpha Z        PSCENC =       154.05752179
  Ewald energy   TEWEN  =     -1279.18341071
  -Hartree energ DENC   =      -156.23523540
  -exchange      EXHF   =         0.00000000
  -V(xc)+E(xc)   XCENC  =         7.78447669
  PAW double counting   =      1651.19796736    -1670.18684722
  entropy T*S    EENTRO =         0.00155201
  eigenvalues    EBANDS =        88.36865804
  atomic energy  EATOM  =      1188.57490811
  Solvation  Ediel_sol  =         0.00000000
  ---------------------------------------------------
  free energy    TOTEN  =       -15.62040934 eV

  energy without entropy =      -15.62196135  energy(sigma->0) =      -15.62092668


--------------------------------------------------------------------------------------------------------




--------------------------------------- Iteration      1(  12)  ---------------------------------------


    POTLOK:  cpu time    0.0033: real time    0.0033
    SETDIJ:  cpu time    0.0021: real time    0.0021
     EDDAV:  cpu time    0.5827: real time    0.5827
       DOS:  cpu time    0.0066: real time    0.0066
    CHARGE:  cpu time    0.0197: real time    0.0197
    MIXING:  cpu time    0.0003: real time    0.0003
    --------------------------------------------
      LOOP:  cpu time    0.6147: real time    0.6147

 eigenvalue-minimisations  :  6400
 total energy-change (2. order) : 0.1862418E-05  (-0.9223490E-08)
 number of electron      15.9999988 magnetization 
 augmentation part        8.2112080 magnetization 

 Broyden mixing:
  rms(total) = 0.12187E-03    rms(broyden)= 0.12182E-03
  rms(prec ) = 0.13422E-03
  weight for this iteration     100.00

 eigenvalues of (default mixing * dielectric matrix)
  average eigenvalue GAMMA=   1.6105
  2.5615  2.5161  1.9434  0.8604  1.0002  1.0173  1.3745

 Free energy of the ion-electron system (eV)
  ---------------------------------------------------
  alpha Z        PSCENC =       154.05752179
  Ewald energy   TEWEN  =     -1279.18341071
  -Hartree energ DENC   =      -156.24622768
  -exchange      EXHF   =         0.00000000
  -V(xc)+E(xc)   XCENC  =         7.78496546
  PAW double counting   =      1651.00722441    -1669.98556122
  entropy T*S    EENTRO =         0.00155197
  eigenvalues    EBANDS =        88.36862039
  atomic energy  EATOM  =      1188.57490811
  Solvation  Ediel_sol  =         0.00000000
  ---------------------------------------------------
  free energy    TOTEN  =       -15.62040748 eV

  energy without entropy =      -15.62195945  energy(sigma->0) =      -15.62092480


--------------------------------------------------------------------------------------------------------




--------------------------------------- Iteration      1(  13)  ---------------------------------------


    POTLOK:  cpu time    0.0034: real time    0.0034
    SETDIJ:  cpu time    0.0021: real time    0.0021
     EDDAV:  cpu time    0.5068: real time    0.5068
       DOS:  cpu time    0.0066: real time    0.0066
    --------------------------------------------
      LOOP:  cpu time    0.5189: real time    0.5189

 eigenvalue-minimisations  :  5088
 total energy-change (2. order) :-0.4144026E-06  (-0.9084567E-09)
 number of electron      15.9999988 magnetization 
 augmentation part        8.2112080 magnetization 

 Free energy of the ion-electron system (eV)
  ---------------------------------------------------
  alpha Z        PSCENC =       154.05752179
  Ewald energy   TEWEN  =     -1279.18341071
  -Hartree energ DENC   =      -156.24462321
  -exchange      EXHF   =         0.00000000
  -V(xc)+E(xc)   XCENC  =         7.78488628
  PAW double counting   =      1651.08648440    -1670.06672747
  entropy T*S    EENTRO =         0.00155196
  eigenvalues    EBANDS =        88.36900095
  atomic energy  EATOM  =      1188.57490811
  Solvation  Ediel_sol  =         0.00000000
  ---------------------------------------------------
  free energy    TOTEN  =       -15.62040789 eV

  energy without entropy =      -15.62195986  energy(sigma->0) =      -15.62092521


--------------------------------------------------------------------------------------------------------




 average (electrostatic) potential at core
  the test charge radii are     1.0103
  (the norm of the test charge is              1.0000)
       1 -41.2273       2 -41.2273
 
 
 
 E-fermi :   8.4505     XC(G=0): -14.5462     alpha+bet :-17.2756

 Fermi energy:         8.4504706540

 k-point     1 :       0.0000    0.0000    0.0000
  band No.  band energies     occupation 
      1      -1.1909      2.00000
      2       2.6789      2.00000
      3       5.6680      2.00000
      4       6.5547      2.00000
      5       6.5547      2.00000
      6       6.9045      2.00000
      7       6.9045      2.00000
      8       7.4196      2.00000
      9       8.1685      2.06281
     10       8.1685      2.06281
     11       9.3550     -0.00000
     12       9.3550     -0.00000
     13      16.7443      0.00000
     14      32.7013      0.00000
     15      33.2684      0.00000
     16      36.4568      0.00000
     17      40.1705      0.00000
     18      40.1705      0.00000
     19      40.7202      0.00000
     20      40.8151      0.00000
     21      40.8152      0.00000
     22      42.9908      0.00000
     23      42.9908      0.00000
     24      44.0333      0.00000
     25      47.2032      0.00000
     26      47.2032      0.00000
     27      48.1599      0.00000
     28      52.1433      0.00000
     29      52.1435      0.00000
     30      53.7382      0.00000
     31      53.7383      0.00000
     32      56.4102      0.00000
     33      63.9073      0.00000
     34      64.2251      0.00000
     35      64.7766      0.00000
     36      64.7769      0.00000
     37      65.7997      0.00000
     38      68.2182      0.00000
     39      68.2183      0.00000
     40      69.8533      0.00000

 k-point     2 :       0.0909    0.0000    0.0000
  band No.  band energies     occupation 
      1      -0.8201      2.00000
      2       2.9672      2.00000
      3       5.7195      2.00000
      4       6.4457      2.00000
      5       6.5241      2.00000
      6       6.7588      2.00000
      7       6.7886      2.00000
      8       7.1207      2.00000
      9       7.9642      2.00313
     10       8.0331      2.01195
     11       9.3910     -0.00000
     12      10.5369     -0.00000
     13      16.7634      0.00000
     14      32.2707      0.00000
     15      33.1216      0.00000
     16      35.1451      0.00000
     17      37.0544      0.00000
     18      38.6050      0.00000
     19      38.9902      0.00000
     20      40.5238      0.00000
     21      42.4391      0.00000
     22      43.6115      0.00000
     23      44.0079      0.00000
     24      44.6249      0.00000
     25      48.4133      0.00000
     26      48.6864      0.00000
     27      49.3038      0.00000
     28      49.5696      0.00000
     29      52.6623      0.00000
     30      55.3210      0.00000
     31      56.1862      0.00000
     32      58.1456      0.00000
     33      62.3872      0.00000
     34      63.8187      0.00000
     35      63.8743      0.00000
     36      64.3073      0.00000
     37      65.0229      0.00000
     38      68.7043      0.00000
     39      69.9190      0.00000
     40      70.3104      0.00000

 k-point     3 :       0.1818   -0.0000    0.0000
  band No.  band energies     occupation 
      1       0.2167      2.00000
      2       3.6291      2.00000
      3       5.3153      2.00000
      4       5.5908      2.00000
      5       6.1900      2.00000
      6       6.8711      2.00000
      7       7.4447      2.00000
      8       7.4899      2.00000
      9       7.7148      2.00000
     10       7.7306      2.00000
     11       9.4468     -0.00000
     12      12.5342     -0.00000
     13      16.8520      0.00000
     14      28.6830      0.00000
     15      33.7658      0.00000
     16      33.8213      0.00000
     17      33.9710      0.00000
     18      34.4637      0.00000
     19      39.5760      0.00000
     20      40.2374      0.00000
     21      40.9470      0.00000
     22      41.5916      0.00000
     23      45.0744      0.00000
     24      46.0620      0.00000
     25      49.1637      0.00000
     26      49.8890      0.00000
     27      51.2087      0.00000
     28      53.5748      0.00000
     29      56.0523      0.00000
     30      57.8659      0.00000
     31      58.9387      0.00000
     32      60.5920      0.00000
     33      61.2726      0.00000
     34      62.1268      0.00000
     35      62.1706      0.00000
     36      63.1670      0.00000
     37      66.3051      0.00000
     38      69.5033      0.00000
     39      70.0145      0.00000
     40      70.3534      0.00000

 k-point     4 :       0.2727    0.0000    0.0000
  band No.  band energies     occupation 
      1       1.6363      2.00000
      2       3.8642      2.00000
      3       4.3531      2.00000
      4       5.6090      2.00000
      5       5.9987      2.00000
      6       6.9013      2.00000
      7       7.3541      2.00000
      8       7.7952      2.00004
      9       8.3755      1.58746
     10       8.5849      0.10045
     11       9.4701     -0.00000
     12      14.7834      0.00000
     13      17.0619      0.00000
     14      24.5367      0.00000
     15      30.1039      0.00000
     16      31.3091      0.00000
     17      32.2090      0.00000
     18      34.5223      0.00000
     19      37.9745      0.00000
     20      40.4438      0.00000
     21      40.9544      0.00000
     22      41.2822      0.00000
     23      42.5287      0.00000
     24      45.9156      0.00000
     25      52.7652      0.00000
     26      54.0416      0.00000
     27      54.9470      0.00000
     28      56.0634      0.00000
     29      56.6698      0.00000
     30      58.4887      0.00000
     31      59.8369      0.00000
     32      61.7263      0.00000
     33      61.8981      0.00000
     34      62.0172      0.00000
     35      63.3462      0.00000
     36      66.4075      0.00000
     37      66.5899      0.00000
     38      70.0689      0.00000
     39      70.2422      0.00000
     40      70.3812      0.00000

 k-point     5 :       0.3636    0.0000    0.0000
  band No.  band energies     occupation 
      1       2.7597      2.00000
      2       3.5148      2.00000
      3       3.7042      2.00000
      4       5.8154      2.00000
      5       6.3852      2.00000
      6       6.5776      2.00000
      7       7.0538      2.00000
      8       9.3070     -0.00000
      9       9.3190     -0.00000
     10       9.4488     -0.00000
     11       9.4628     -0.00000
     12      16.9621      0.00000
     13      17.1673      0.00000
     14      21.4565      0.00000
     15      26.6549      0.00000
     16      29.2697      0.00000
     17      29.3368      0.00000
     18      33.7572      0.00000
     19      36.9157      0.00000
     20      40.2882      0.00000
     21      40.5160      0.00000
     22      42.1747      0.00000
     23      42.4363      0.00000
     24      45.8813      0.00000
     25      53.2799      0.00000
     26      55.1194      0.00000
     27      56.0780      0.00000
     28      59.3532      0.00000
     29      59.3547      0.00000
     30      59.4738      0.00000
     31      60.8837      0.00000
     32      62.9980      0.00000
     33      63.0468      0.00000
     34      63.8301      0.00000
     35      64.9721      0.00000
     36      66.5099      0.00000
     37      69.8015      0.00000
     38      70.1494      0.00000
     39      70.4566      0.00000
     40      70.9630      0.00000

 k-point     6 :       0.4545   -0.0000    0.0000
  band No.  band energies     occupation 
      1       3.0161      2.00000
      2       3.3148      2.00000
      3       3.3802      2.00000
      4       6.0882      2.00000
      5       6.5012      2.00000
      6       6.8652      2.00000
      7       6.8881      2.00000
      8       9.4510     -0.00000
      9       9.9118     -0.00000
     10      10.0297     -0.00000
     11      11.2739     -0.00000
     12      15.1002      0.00000
     13      19.4058      0.00000
     14      21.2993      0.00000
     15      23.9027      0.00000
     16      26.5249      0.00000
     17      28.1193      0.00000
     18      33.1123      0.00000
     19      36.5586      0.00000
     20      39.0241      0.00000
     21      40.3729      0.00000
     22      43.2086      0.00000
     23      44.8706      0.00000
     24      45.3344      0.00000
     25      49.9245      0.00000
     26      55.9589      0.00000
     27      56.8351      0.00000
     28      60.2317      0.00000
     29      61.0735      0.00000
     30      62.1674      0.00000
     31      63.3419      0.00000
     32      63.5713      0.00000
     33      63.7907      0.00000
     34      65.8789      0.00000
     35      66.7570      0.00000
     36      68.9660      0.00000
     37      69.1743      0.00000
     38      69.5350      0.00000
     39      72.2181      0.00000
     40      72.6576      0.00000

 k-point     7 :       0.0909    0.0909    0.0000
  band No.  band energies     occupation 
      1      -0.1122      2.00000
      2       3.4695      2.00000
      3       5.6117      2.00000
      4       5.6367      2.00000
      5       6.4653      2.00000
      6       6.4855      2.00000
      7       7.2707      2.00000
      8       7.4856      2.00000
      9       7.5949      2.00000
     10       7.9714      2.00365
     11       9.3931     -0.00000
     12      11.9831     -0.00000
     13      16.8227      0.00000
     14      30.3766      0.00000
     15      32.0317      0.00000
     16      33.7887      0.00000
     17      35.5948      0.00000
     18      37.7564      0.00000
     19      37.8506      0.00000
     20      39.3822      0.00000
     21      40.2211      0.00000
     22      45.3367      0.00000
     23      46.0080      0.00000
     24      46.8992      0.00000
     25      47.2903      0.00000
     26      48.0367      0.00000
     27      48.2754      0.00000
     28      54.0964      0.00000
     29      56.3331      0.00000
     30      57.0924      0.00000
     31      57.1817      0.00000
     32      60.2692      0.00000
     33      60.8931      0.00000
     34      62.4738      0.00000
     35      63.2472      0.00000
     36      63.6839      0.00000
     37      64.9352      0.00000
     38      69.7723      0.00000
     39      69.8785      0.00000
     40      70.8501      0.00000

 k-point     8 :       0.1818    0.0909    0.0000
  band No.  band energies     occupation 
      1       1.1539      2.00000
      2       4.0766      2.00000
      3       4.7048      2.00000
      4       5.3003      2.00000
      5       6.1040      2.00000
      6       6.9303      2.00000
      7       6.9976      2.00000
      8       7.6559      2.00000
      9       8.1282      2.04507
     10       8.4803      0.75102
     11       9.3754     -0.00000
     12      14.0019      0.00000
     13      17.0224      0.00000
     14      26.6569      0.00000
     15      29.4899      0.00000
     16      31.9602      0.00000
     17      34.0671      0.00000
     18      35.2745      0.00000
     19      38.1933      0.00000
     20      38.5431      0.00000
     21      39.8178      0.00000
     22      44.7079      0.00000
     23      44.7647      0.00000
     24      46.5828      0.00000
     25      49.5556      0.00000
     26      50.2086      0.00000
     27      52.5402      0.00000
     28      56.6606      0.00000
     29      58.2098      0.00000
     30      58.7583      0.00000
     31      59.4785      0.00000
     32      61.2194      0.00000
     33      61.3895      0.00000
     34      62.2909      0.00000
     35      63.6859      0.00000
     36      63.7021      0.00000
     37      65.7910      0.00000
     38      69.5426      0.00000
     39      70.4815      0.00000
     40      71.3902      0.00000

 k-point     9 :       0.2727    0.0909    0.0000
  band No.  band energies     occupation 
      1       2.5483      2.00000
      2       3.9166      2.00000
      3       3.9956      2.00000
      4       5.4494      2.00000
      5       6.2257      2.00000
      6       6.4610      2.00000
      7       7.2133      2.00000
      8       7.9612      2.00293
      9       9.0659     -0.00012
     10       9.3486     -0.00000
     11       9.6324     -0.00000
     12      16.2939      0.00000
     13      17.3668      0.00000
     14      22.7967      0.00000
     15      27.6527      0.00000
     16      28.4495      0.00000
     17      31.8876      0.00000
     18      33.0338      0.00000
     19      37.8990      0.00000
     20      39.2357      0.00000
     21      39.6490      0.00000
     22      43.8726      0.00000
     23      44.1181      0.00000
     24      47.3774      0.00000
     25      51.6301      0.00000
     26      54.0782      0.00000
     27      55.3818      0.00000
     28      55.5159      0.00000
     29      57.9267      0.00000
     30      59.9994      0.00000
     31      60.2898      0.00000
     32      62.8212      0.00000
     33      63.6186      0.00000
     34      64.1689      0.00000
     35      64.3017      0.00000
     36      65.9578      0.00000
     37      69.0337      0.00000
     38      69.8014      0.00000
     39      70.0812      0.00000
     40      71.6617      0.00000

 k-point    10 :       0.3636    0.0909    0.0000
  band No.  band energies     occupation 
      1       3.2329      2.00000
      2       3.5669      2.00000
      3       3.5774      2.00000
      4       5.9916      2.00000
      5       6.1572      2.00000
      6       6.7047      2.00000
[...]
     18      30.1232      0.00000
     19      35.8039      0.00000
     20      36.5854      0.00000
     21      40.4688      0.00000
     22      40.9103      0.00000
     23      46.2068      0.00000
     24      47.2401      0.00000
     25      53.1566      0.00000
     26      54.9403      0.00000
     27      57.3294      0.00000
     28      58.4353      0.00000
     29      60.0586      0.00000
     30      61.3177      0.00000
     31      63.0405      0.00000
     32      63.0966      0.00000
     33      64.9503      0.00000
     34      65.2169      0.00000
     35      67.6089      0.00000
     36      67.7587      0.00000
     37      68.3156      0.00000
     38      69.0167      0.00000
     39      72.2968      0.00000
     40      72.8584      0.00000

 k-point    91 :       0.4545    0.0909    0.4545
  band No.  band energies     occupation 
      1       2.9059      2.00000
      2       3.0653      2.00000
      3       4.4024      2.00000
      4       4.4891      2.00000
      5       7.2348      2.00000
      6       7.6907      2.00000
      7       8.4826      0.73221
      8       8.8487     -0.01645
      9       9.5391     -0.00000
     10       9.5922     -0.00000
     11      12.2495     -0.00000
     12      12.7969     -0.00000
     13      19.4611      0.00000
     14      19.5273      0.00000
     15      28.0408      0.00000
     16      28.5415      0.00000
     17      29.6247      0.00000
     18      29.9442      0.00000
     19      35.4076      0.00000
     20      35.7223      0.00000
     21      39.8134      0.00000
     22      39.8228      0.00000
     23      46.3114      0.00000
     24      47.3743      0.00000
     25      53.3586      0.00000
     26      55.1159      0.00000
     27      59.2844      0.00000
     28      60.6425      0.00000
     29      61.5728      0.00000
     30      61.8011      0.00000
     31      62.0106      0.00000
     32      62.1862      0.00000
     33      65.2630      0.00000
     34      66.0579      0.00000
     35      67.9307      0.00000
     36      68.3678      0.00000
     37      69.7616      0.00000
     38      69.9431      0.00000
     39      73.5575      0.00000
     40      73.6450      0.00000

 k-point    92 :       0.1818    0.1818    0.4545
  band No.  band energies     occupation 
      1       3.1641      2.00000
      2       3.3937      2.00000
      3       5.1771      2.00000
      4       5.2000      2.00000
      5       5.7279      2.00000
      6       5.7547      2.00000
      7       7.6525      2.00000
      8       7.9231      2.00123
      9       9.2683     -0.00000
     10       9.4706     -0.00000
     11      10.0545     -0.00000
     12      10.6187     -0.00000
     13      25.6206      0.00000
     14      25.9949      0.00000
     15      26.5686      0.00000
     16      27.4372      0.00000
     17      28.0661      0.00000
     18      29.0496      0.00000
     19      39.8884      0.00000
     20      41.0641      0.00000
     21      41.9441      0.00000
     22      43.2062      0.00000
     23      45.0980      0.00000
     24      45.2869      0.00000
     25      51.9917      0.00000
     26      52.4924      0.00000
     27      55.2935      0.00000
     28      56.6231      0.00000
     29      58.7057      0.00000
     30      59.3667      0.00000
     31      61.2151      0.00000
     32      61.5099      0.00000
     33      62.7943      0.00000
     34      62.8130      0.00000
     35      64.5066      0.00000
     36      64.6635      0.00000
     37      67.7613      0.00000
     38      69.7294      0.00000
     39      70.7666      0.00000
     40      71.1995      0.00000

 k-point    93 :       0.2727    0.1818    0.4545
  band No.  band energies     occupation 
      1       3.4475      2.00000
      2       3.5559      2.00000
      3       4.8861      2.00000
      4       5.0999      2.00000
      5       6.1605      2.00000
      6       6.3342      2.00000
      7       7.5168      2.00000
      8       7.7799      2.00002
      9       9.3914     -0.00000
     10       9.7165     -0.00000
     11      11.8091     -0.00000
     12      12.3526     -0.00000
     13      22.6526      0.00000
     14      23.2195      0.00000
     15      25.5663      0.00000
     16      26.3450      0.00000
     17      28.0758      0.00000
     18      29.8136      0.00000
     19      37.5909      0.00000
     20      39.1908      0.00000
     21      40.5106      0.00000
     22      42.1005      0.00000
     23      46.0222      0.00000
     24      46.5402      0.00000
     25      53.5907      0.00000
     26      54.1215      0.00000
     27      56.5921      0.00000
     28      58.4636      0.00000
     29      60.3869      0.00000
     30      61.5621      0.00000
     31      62.7259      0.00000
     32      63.0651      0.00000
     33      63.8590      0.00000
     34      63.9188      0.00000
     35      65.6018      0.00000
     36      66.3170      0.00000
     37      67.7831      0.00000
     38      69.2835      0.00000
     39      71.8592      0.00000
     40      72.3262      0.00000

 k-point    94 :       0.3636    0.1818    0.4545
  band No.  band energies     occupation 
      1       3.4416      2.00000
      2       3.6154      2.00000
      3       4.7461      2.00000
      4       4.9454      2.00000
      5       6.2957      2.00000
      6       6.6674      2.00000
      7       7.9079      2.00085
      8       8.0309      2.01150
      9       9.3683     -0.00000
     10       9.5764     -0.00000
     11      13.7013     -0.00000
     12      14.1641      0.00000
     13      19.9179      0.00000
     14      20.2918      0.00000
     15      24.9255      0.00000
     16      25.6849      0.00000
     17      29.6867      0.00000
     18      30.8392      0.00000
     19      35.9206      0.00000
     20      37.0139      0.00000
     21      39.4675      0.00000
     22      41.0931      0.00000
     23      46.7871      0.00000
     24      47.2301      0.00000
     25      56.7803      0.00000
     26      57.2520      0.00000
     27      57.6841      0.00000
     28      58.8621      0.00000
     29      60.9055      0.00000
     30      61.3972      0.00000
     31      61.7129      0.00000
     32      62.1880      0.00000
     33      64.2968      0.00000
     34      64.6319      0.00000
     35      67.1512      0.00000
     36      67.4515      0.00000
     37      69.5959      0.00000
     38      69.7732      0.00000
     39      70.9728      0.00000
     40      71.8691      0.00000

 k-point    95 :       0.2727    0.2727    0.4545
  band No.  band energies     occupation 
      1       3.8949      2.00000
      2       3.9814      2.00000
      3       5.0360      2.00000
      4       5.2766      2.00000
      5       5.7791      2.00000
      6       6.0218      2.00000
      7       7.3634      2.00000
      8       7.5869      2.00000
      9       9.3857     -0.00000
     10       9.6141     -0.00000
     11      14.2092      0.00000
     12      14.7499      0.00000
     13      20.9588      0.00000
     14      21.4204      0.00000
     15      23.0356      0.00000
     16      23.4753      0.00000
     17      29.9192      0.00000
     18      31.5695      0.00000
     19      35.9228      0.00000
     20      37.3708      0.00000
     21      39.1750      0.00000
     22      40.3638      0.00000
     23      49.1343      0.00000
     24      49.5873      0.00000
     25      54.0004      0.00000
     26      54.0489      0.00000
     27      59.2001      0.00000
     28      60.8669      0.00000
     29      61.0285      0.00000
     30      61.5870      0.00000
     31      62.6761      0.00000
     32      62.8366      0.00000
     33      62.9430      0.00000
     34      63.4318      0.00000
     35      66.4328      0.00000
     36      66.7563      0.00000
     37      69.4602      0.00000
     38      69.7341      0.00000
     39      70.2031      0.00000
     40      70.2201      0.00000

 k-point    96 :       0.3636    0.2727    0.4545
  band No.  band energies     occupation 
      1       4.1364      2.00000
      2       4.2914      2.00000
      3       4.9555      2.00000
      4       5.0549      2.00000
      5       5.7784      2.00000
      6       5.9341      2.00000
      7       7.4160      2.00000
      8       7.5818      2.00000
      9       9.3652     -0.00000
     10       9.4468     -0.00000
     11      16.1814      0.00000
     12      16.3443      0.00000
     13      19.1615      0.00000
     14      19.5342      0.00000
     15      22.3698      0.00000
     16      22.8137      0.00000
     17      31.6631      0.00000
     18      32.5617      0.00000
     19      34.9771      0.00000
     20      35.1734      0.00000
     21      38.9196      0.00000
     22      39.7543      0.00000
     23      50.4653      0.00000
     24      51.1095      0.00000
     25      55.3019      0.00000
     26      55.7388      0.00000
     27      58.5493      0.00000
     28      58.9132      0.00000
     29      60.7770      0.00000
     30      61.2209      0.00000
     31      62.5337      0.00000
     32      62.8804      0.00000
     33      64.0315      0.00000
     34      64.0812      0.00000
     35      65.0416      0.00000
     36      66.5338      0.00000
     37      68.1789      0.00000
     38      69.3563      0.00000
     39      71.9990      0.00000
     40      72.3172      0.00000


--------------------------------------------------------------------------------------------------------


 soft charge-density along one line, spin component           1
         0         1         2         3         4         5         6         7         8         9
x     7.7888    0.0000    0.0590   -0.1022   -0.0493   -0.0854    0.0222   -0.0000    0.0010   -0.0017
x     0.0000    0.0000
y     7.7888    0.0000    0.0590    0.1022   -0.0493    0.0854    0.0222    0.0000    0.0010    0.0017
y     0.0000    0.0000
z     7.7888    0.0000    0.0000    0.0000    0.4180    0.0000    0.0000    0.0000   -0.1473    0.0000
z     0.0000    0.0000    0.0218   -0.0000    0.0000   -0.0000    0.0057   -0.0000    0.0000    0.0000
 total charge-density along one line
x    16.0000    0.0000    1.3903   -2.4080    0.2504    0.4337    0.0034   -0.0000    0.0022   -0.0039
x    -0.0005   -0.0008    0.0008   -0.0000   -0.0001    0.0002    0.0001    0.0001   -0.0001    0.0000
x     0.0000    0.0000
y    16.0000    0.0000    1.3903    2.4080    0.2504   -0.4337    0.0034    0.0000    0.0022    0.0039
y    -0.0005    0.0008    0.0008    0.0000   -0.0001   -0.0002    0.0001   -0.0001   -0.0001   -0.0000
y     0.0000   -0.0000
z    16.0000    0.0000    0.0000    0.0000    5.9088   -0.0000    0.0000    0.0000    1.2455   -0.0000
z     0.0000   -0.0000    0.0303   -0.0000   -0.0000   -0.0000    0.0070   -0.0000    0.0000   -0.0000
z     0.0001    0.0000   -0.0000   -0.0000   -0.0001    0.0000   -0.0000   -0.0000    0.0001    0.0000
z    -0.0000   -0.0000   -0.0000   -0.0000    0.0000    0.0000    0.0000   -0.0000
 
 pseudopotential strength for first ion, spin component:           1
 -3.542  -0.000  -0.000  -0.000  -0.000  -4.132  -0.000  -0.000
 -0.000  -3.519  -0.000  -0.000   0.000  -0.000  -4.109  -0.000
 -0.000  -0.000  -3.528  -0.000  -0.000  -0.000  -0.000  -4.118
 -0.000  -0.000  -0.000  -3.519  -0.000  -0.000  -0.000  -0.000
 -0.000   0.000  -0.000  -0.000  -3.542  -0.000   0.000  -0.000
 -4.132  -0.000  -0.000  -0.000  -0.000  -4.678  -0.000  -0.000
 -0.000  -4.109  -0.000  -0.000   0.000  -0.000  -4.655  -0.000
 -0.000  -0.000  -4.118  -0.000  -0.000  -0.000  -0.000  -4.664
 -0.000  -0.000  -0.000  -4.109  -0.000  -0.000  -0.000  -0.000
 -0.000   0.000  -0.000  -0.000  -4.132  -0.000   0.000  -0.000
  0.000   0.000  -0.000   0.000  -0.000   0.000   0.000  -0.001
  0.000   0.000  -0.000   0.000  -0.000   0.000   0.000  -0.001
 -0.000   0.000  -0.000  -0.000  -0.001  -0.000   0.000  -0.000
 -0.000  -0.000   0.000  -0.000   0.000  -0.000  -0.000   0.000
 -0.001  -0.000   0.000   0.000  -0.000  -0.001  -0.000   0.000
 -0.000   0.000  -0.000  -0.000  -0.001  -0.000   0.000  -0.000
 -0.000  -0.000   0.000  -0.000   0.000  -0.000  -0.000   0.000
 -0.001  -0.000   0.000   0.000  -0.000  -0.001  -0.000   0.000
 total augmentation occupancy for first ion, spin component:           1
  1.877   0.000   0.000   0.000  -0.000  -1.514   0.000  -0.000   0.000   0.000   0.000  -0.000   0.000  -0.000   0.040  -0.000
  0.000   2.421   0.000  -0.000  -0.000   0.000  -1.766  -0.000   0.000   0.000   0.000   0.000   0.000   0.000   0.000  -0.000
  0.000   0.000   1.482   0.000  -0.000  -0.000  -0.000  -1.149   0.000   0.000   0.060  -0.014   0.000   0.000   0.000  -0.000
  0.000  -0.000  -0.000   2.421   0.000   0.000   0.000   0.000  -1.766  -0.000   0.000   0.000   0.000   0.000  -0.000   0.000
  0.000  -0.000  -0.000  -0.000   1.877   0.000   0.000   0.000   0.000  -1.514   0.000  -0.000   0.040   0.000  -0.000  -0.001
 -1.514   0.000  -0.000   0.000  -0.000   2.538  -0.000   0.000   0.000  -0.000  -0.000   0.000  -0.000   0.000  -0.054   0.000
  0.000  -1.766   0.000   0.000   0.000   0.000   2.458   0.000  -0.000   0.000  -0.000   0.000   0.000   0.000  -0.000  -0.000
 -0.000   0.000  -1.149   0.000   0.000   0.000  -0.000   2.185  -0.000  -0.000  -0.147   0.007   0.000   0.000  -0.000   0.000
 -0.000   0.000  -0.000  -1.766   0.000  -0.000  -0.000  -0.000   2.458   0.000   0.000  -0.000   0.000   0.000   0.000   0.000
  0.000   0.000   0.000   0.000  -1.514   0.000   0.000  -0.000   0.000   2.538  -0.000   0.000  -0.054   0.000   0.000   0.002
  0.000  -0.000   0.060   0.000   0.000  -0.000  -0.000  -0.147  -0.000  -0.000   3.076  -0.368   0.000   0.000  -0.000   0.000
 -0.000  -0.000  -0.014   0.000  -0.000   0.000  -0.000   0.007  -0.000   0.000  -0.368   0.050   0.000   0.000   0.000   0.000
  0.000   0.000   0.000   0.000   0.040  -0.000   0.000   0.000   0.000  -0.054   0.000  -0.000   0.426   0.000  -0.000  -0.032
 -0.000   0.000   0.000   0.000   0.000   0.000   0.000   0.000   0.000   0.000   0.000   0.000   0.000   0.397   0.000  -0.000
  0.040   0.000   0.000   0.000  -0.000  -0.054  -0.000  -0.000   0.000   0.000   0.000  -0.000  -0.000   0.000   0.426   0.000
 -0.000   0.000   0.000   0.000  -0.001   0.000   0.000   0.000   0.000   0.002  -0.000   0.000  -0.032   0.000   0.000   0.003
 -0.000   0.000   0.000  -0.000  -0.000  -0.000   0.000   0.000  -0.000  -0.000   0.000   0.000  -0.000  -0.036   0.000   0.000
 -0.001   0.000  -0.000   0.000   0.000   0.002   0.000  -0.000  -0.000  -0.000   0.000   0.000   0.000   0.000  -0.032  -0.000


------------------------ aborting loop because EDIFF is reached ----------------------------------------


    CHARGE:  cpu time    0.0207: real time    0.0207
    FORLOC:  cpu time    0.0002: real time    0.0002
    FORNL :  cpu time    0.0878: real time    0.0878
    STRESS:  cpu time    0.1325: real time    0.1325
    FORCOR:  cpu time    0.0034: real time    0.0034
    FORHAR:  cpu time    0.0009: real time    0.0009
    MIXING:  cpu time    0.0003: real time    0.0003

  FORCE on cell =-STRESS in cart. coord.  units (eV):
  Direction    XX          YY          ZZ          XY          YZ          ZX
  --------------------------------------------------------------------------------------
  Alpha Z   154.05752   154.05752   154.05752
  Ewald    -406.75674  -406.75674  -465.67077     0.00000     0.00000    -0.00000
  Hartree    58.94982    58.94982    38.34455    -0.00000    -0.00000    -0.00000
  E(xc)     -80.09578   -80.09578   -79.74262     0.00009    -0.00000     0.00000
  Local     102.21056   102.21069   177.21069    -0.00055     0.00000     0.00000
  n-local   -49.29787   -48.74921   -52.08481    -5.27133     1.42175     0.93502
  augment    74.81265    74.81246    75.57726     0.00061    -0.00000     0.00000
  Kinetic   158.02032   151.45305   152.03335     1.66778    -0.87819     0.22573
  Fock        0.00000     0.00000     0.00000     0.00000     0.00000     0.00000
  -------------------------------------------------------------------------------------
  Total       8.89115     8.89115    -0.27483    -0.00000     0.00000     0.00000
  in kB     793.82874   793.82874   -24.53759    -0.00000     0.00000     0.00000
  external pressure =      521.04 kB  Pullay stress =        0.00 kB


 VOLUME and BASIS-vectors are now :
 -----------------------------------------------------------------------------
  energy-cutoff  :      280.00
  volume of cell :       17.94
      direct lattice vectors                 reciprocal lattice vectors
     2.260100000  0.000000000  0.000000000     0.442458298  0.255453418  0.000000000
    -1.130050000  1.957304015  0.000000000     0.000000000  0.510906835  0.000000000
     0.000000000  0.000000000  4.056540000     0.000000000  0.000000000  0.246515503

  length of vectors
     2.260100000  2.260100000  4.056540000     0.510906835  0.510906835  0.246515503


 FORCES acting on ions
    electron-ion (+dipol)            ewald-force                    non-local-force                 convergence-correction
 -----------------------------------------------------------------------------------------------
   0.840E-06 -.424E-06 0.430E-14   0.546E-12 -.315E-12 -.264E-13   -.128E-16 0.189E-17 -.175E-18   -.845E-09 0.487E-09 -.200E-13
   0.169E-05 0.208E-05 0.254E-12   -.542E-12 0.310E-12 0.264E-13   0.151E-16 -.171E-17 0.536E-19   0.825E-09 -.476E-09 0.322E-13
 -----------------------------------------------------------------------------------------------
   0.253E-05 0.165E-05 0.259E-12   0.345E-14 -.510E-14 -.739E-17   0.231E-17 0.185E-18 -.122E-18   -.198E-10 0.117E-10 0.122E-13
 
 
 POSITION                                       TOTAL-FORCE (eV/Angst)
 -----------------------------------------------------------------------------------
      0.00000      0.00000      0.00000         0.000000     -0.000000     -0.000000
      0.00000      1.30487      2.02827        -0.000000      0.000000      0.000000
 -----------------------------------------------------------------------------------
    total drift:                                0.000003      0.000002      0.000000


--------------------------------------------------------------------------------------------------------



  FREE ENERGIE OF THE ION-ELECTRON SYSTEM (eV)
  ---------------------------------------------------
  free  energy   TOTEN  =       -15.62040789 eV

  energy  without entropy=      -15.62195986  energy(sigma->0) =      -15.62092521
 


--------------------------------------------------------------------------------------------------------


    POTLOK:  cpu time    0.0056: real time    0.0056


--------------------------------------------------------------------------------------------------------


 writing wavefunctions
     LOOP+:  cpu time   10.1522: real time   10.1706
    4ORBIT:  cpu time    0.0000: real time    0.0000

 total amount of memory used by VASP MPI-rank0    48038. kBytes
=======================================================================

   base      :      30000. kBytes
   nonl-proj :       2757. kBytes
   grid      :        812. kBytes
   one-center:         31. kBytes
   wavefun   :      14438. kBytes
 
  
  
 General timing and accounting informations for this job:
 ========================================================
  
                  Total CPU time used (sec):       10.320
                            User time (sec):       10.272
                          System time (sec):        0.048
                         Elapsed time (sec):       10.327
  
                   Maximum memory used (kb):       53768.
                   Average memory used (kb):          N/A
  
                          Minor page faults:         7102
                          Major page faults:            0
                 Voluntary context switches:           26
