<?xml version="1.0" encoding="ISO-8859-1"?>
<modeling>
 <generator>
  <i name="program" type="string">vasp </i>
  <i name="version" type="string">6.2.0  </i>
  <i name="subversion" type="string">18Jan21 (build Mar 17 2021 09:06:54) complex                          serial </i>
  <i name="platform" type="string">LinuxIFC </i>
  <i name="date" type="string">2021 09 09 </i>
  <i name="time" type="string">12:00:10 </i>
 </generator>
 <incar>
  <i type="string" name="PREC">normal</i>
  <i type="int" name="ICHARG">     1</i>
  <i type="int" name="IBRION">     1</i>
  <i name="EDIFF">      0.00000100</i>
  <i type="int" name="NSW">     0</i>
  <i type="int" name="ISIF">     2</i>
  <i name="ENCUT">    280.00000000</i>
  <i type="int" name="NBANDS">    40</i>
  <i type="int" name="ISMEAR">     1</i>
  <i name="SIGMA">      0.20000000</i>
  <i type="logical" name="LCHARG"> T  </i>
  <i type="int" name="KPAR">     1</i>
  <i type="int" name="NCORE">     1</i>
  <i type="string" name="GGA">PE</i>
 </incar>
 <primitive_cell>
  <structure name="primitive_cell" >
   <crystal>
    <varray name="basis" >
     <v>       2.26010000       0.00000000       0.00000000 </v>
     <v>      -1.13005000       1.95730402       0.00000000 </v>
     <v>       0.00000000       0.00000000       4.05654000 </v>
    </varray>
    <i name="volume">     17.94492737 </i>
    <varray name="rec_basis" >
     <v>       0.44245830       0.25545342       0.00000000 </v>
     <v>       0.00000000       0.51090684       0.00000000 </v>
     <v>       0.00000000       0.00000000       0.24651550 </v>
    </varray>
   </crystal>
   <varray name="positions" >
    <v>       0.00000000       0.00000000       0.00000000 </v>
    <v>       0.33333333       0.66666667       0.50000000 </v>
   </varray>
  </structure>
  <varray name="primitive_index" >
   <v type="int" >        1 </v>
   <v type="int" >        2 </v>
  </varray>
 </primitive_cell>
 <kpoints>
  <generation param="Monkhorst-Pack">
   <v type="int" name="divisions">      11       11       11 </v>
   <v name="usershift">      0.00000000       0.00000000       0.00000000 </v>
   <v name="genvec1">      0.09090909       0.00000000       0.00000000 </v>
   <v name="genvec2">      0.00000000       0.09090909       0.00000000 </v>
   <v name="genvec3">      0.00000000       0.00000000       0.09090909 </v>
   <v name="shift">      0.00000000       0.00000000       0.00000000 </v>
  </generation>
  <varray name="kpointlist" >
   <v>       0.00000000       0.00000000       0.00000000 </v>
   <v>       0.09090909       0.00000000       0.00000000 </v>
   <v>       0.18181818      -0.00000000       0.00000000 </v>
   <v>       0.27272727       0.00000000       0.00000000 </v>
   <v>       0.36363636       0.00000000       0.00000000 </v>
   <v>       0.45454545      -0.00000000       0.00000000 </v>
   <v>       0.09090909       0.09090909       0.00000000 </v>
   <v>       0.18181818       0.09090909       0.00000000 </v>
   <v>       0.27272727       0.09090909       0.00000000 </v>
   <v>       0.36363636       0.09090909       0.00000000 </v>
   <v>       0.45454545       0.09090909       0.00000000 </v>
   <v>       0.18181818       0.18181818       0.00000000 </v>
   <v>       0.27272727       0.18181818       0.00000000 </v>
   <v>       0.36363636       0.18181818       0.00000000 </v>
   <v>       0.27272727       0.27272727       0.00000000 </v>
   <v>       0.36363636       0.27272727       0.00000000 </v>
   <v>       0.00000000       0.00000000       0.09090909 </v>
   <v>       0.09090909       0.00000000       0.09090909 </v>
   <v>       0.18181818      -0.00000000       0.09090909 </v>
   <v>       0.27272727       0.00000000       0.09090909 </v>
   <v>       0.36363636       0.00000000       0.09090909 </v>
   <v>       0.45454545      -0.00000000       0.09090909 </v>
   <v>       0.09090909       0.09090909       0.09090909 </v>
   <v>       0.18181818       0.09090909       0.09090909 </v>
   <v>       0.27272727       0.09090909       0.09090909 </v>
   <v>       0.36363636       0.09090909       0.09090909 </v>
   <v>       0.45454545       0.09090909       0.09090909 </v>
   <v>       0.18181818       0.18181818       0.09090909 </v>
   <v>       0.27272727       0.18181818       0.09090909 </v>
   <v>       0.36363636       0.18181818       0.09090909 </v>
   <v>       0.27272727       0.27272727       0.09090909 </v>
   <v>       0.36363636       0.27272727       0.09090909 </v>
   <v>       0.00000000       0.00000000       0.18181818 </v>
   <v>       0.09090909       0.00000000       0.18181818 </v>
   <v>       0.18181818      -0.00000000       0.18181818 </v>
   <v>       0.27272727       0.00000000       0.18181818 </v>
   <v>       0.36363636       0.00000000       0.18181818 </v>
   <v>       0.45454545      -0.00000000       0.18181818 </v>
   <v>       0.09090909       0.09090909       0.18181818 </v>
   <v>       0.18181818       0.09090909       0.18181818 </v>
   <v>       0.27272727       0.09090909       0.18181818 </v>
   <v>       0.36363636       0.09090909       0.18181818 </v>
   <v>       0.45454545       0.09090909       0.18181818 </v>
   <v>       0.18181818       0.18181818       0.18181818 </v>
   <v>       0.27272727       0.18181818       0.18181818 </v>
   <v>       0.36363636       0.18181818       0.18181818 </v>
   <v>       0.27272727       0.27272727       0.18181818 </v>
   <v>       0.36363636       0.27272727       0.18181818 </v>
   <v>       0.00000000       0.00000000       0.27272727 </v>
   <v>       0.09090909       0.00000000       0.27272727 </v>
   <v>       0.18181818      -0.00000000       0.27272727 </v>
   <v>       0.27272727       0.00000000       0.27272727 </v>
   <v>       0.36363636       0.00000000       0.27272727 </v>
   <v>       0.45454545      -0.00000000       0.27272727 </v>
   <v>       0.09090909       0.09090909       0.27272727 </v>
   <v>       0.18181818       0.09090909       0.27272727 </v>
   <v>       0.27272727       0.09090909       0.27272727 </v>
   <v>       0.36363636       0.09090909       0.27272727 </v>
   <v>       0.45454545       0.09090909       0.27272727 </v>
   <v>       0.18181818       0.18181818       0.27272727 </v>
   <v>       0.27272727       0.18181818       0.27272727 </v>
   <v>       0.36363636       0.18181818       0.27272727 </v>
   <v>       0.27272727       0.27272727       0.27272727 </v>
   <v>       0.36363636       0.27272727       0.27272727 </v>
   <v>       0.00000000       0.00000000       0.36363636 </v>
   <v>       0.09090909       0.00000000       0.36363636 </v>
   <v>       0.18181818      -0.00000000       0.36363636 </v>
   <v>       0.27272727       0.00000000       0.36363636 </v>
   <v>       0.36363636       0.00000000       0.36363636 </v>
   <v>       0.45454545      -0.00000000       0.36363636 </v>
   <v>       0.09090909       0.09090909       0.36363636 </v>
   <v>       0.18181818       0.09090909       0.36363636 </v>
   <v>       0.27272727       0.09090909       0.36363636 </v>
   <v>       0.36363636       0.09090909       0.36363636 </v>
   <v>       0.45454545       0.09090909       0.36363636 </v>
   <v>       0.18181818       0.18181818       0.36363636 </v>
   <v>       0.27272727       0.18181818       0.36363636 </v>
   <v>       0.36363636       0.18181818       0.36363636 </v>
   <v>       0.27272727       0.27272727       0.36363636 </v>
   <v>       0.36363636       0.27272727       0.36363636 </v>
   <v>       0.00000000       0.00000000       0.45454545 </v>
   <v>       0.09090909       0.00000000       0.45454545 </v>
   <v>       0.18181818      -0.00000000       0.45454545 </v>
   <v>       0.27272727       0.00000000       0.45454545 </v>
   <v>       0.36363636       0.00000000       0.45454545 </v>
   <v>       0.45454545      -0.00000000       0.45454545 </v>
   <v>       0.09090909       0.09090909       0.45454545 </v>
   <v>       0.18181818       0.09090909       0.45454545 </v>
   <v>       0.27272727       0.09090909       0.45454545 </v>
   <v>       0.36363636       0.09090909       0.45454545 </v>
   <v>       0.45454545       0.09090909       0.45454545 </v>
   <v>       0.18181818       0.18181818       0.45454545 </v>
   <v>       0.27272727       0.18181818       0.45454545 </v>
   <v>       0.36363636       0.18181818       0.45454545 </v>
   <v>       0.27272727       0.27272727       0.45454545 </v>
   <v>       0.36363636       0.27272727       0.45454545 </v>
  </varray>
  <varray name="weights" >
   <v>       0.00075131 </v>
   <v>       0.00450789 </v>
   <v>       0.00450789 </v>
   <v>       0.00450789 </v>
   <v>       0.00450789 </v>
   <v>       0.00450789 </v>
   <v>       0.00450789 </v>
   <v>       0.00901578 </v>
   <v>       0.00901578 </v>
   <v>       0.00901578 </v>
   <v>       0.00450789 </v>
   <v>       0.00450789 </v>
   <v>       0.00901578 </v>
   <v>       0.00901578 </v>
   <v>       0.00450789 </v>
   <v>       0.00450789 </v>
   <v>       0.00150263 </v>
   <v>       0.00901578 </v>
   <v>       0.00901578 </v>
   <v>       0.00901578 </v>
   <v>       0.00901578 </v>
   <v>       0.00901578 </v>
   <v>       0.00901578 </v>
   <v>       0.01803156 </v>
   <v>       0.01803156 </v>
   <v>       0.01803156 </v>
   <v>       0.00901578 </v>
   <v>       0.00901578 </v>
   <v>       0.01803156 </v>
   <v>       0.01803156 </v>
   <v>       0.00901578 </v>
   <v>       0.00901578 </v>
   <v>       0.00150263 </v>
   <v>       0.00901578 </v>
   <v>       0.00901578 </v>
   <v>       0.00901578 </v>
   <v>       0.00901578 </v>
   <v>       0.00901578 </v>
   <v>       0.00901578 </v>
   <v>       0.01803156 </v>
   <v>       0.01803156 </v>
   <v>       0.01803156 </v>
   <v>       0.00901578 </v>
   <v>       0.00901578 </v>
   <v>       0.01803156 </v>
   <v>       0.01803156 </v>
   <v>       0.00901578 </v>
   <v>       0.00901578 </v>
   <v>       0.00150263 </v>
   <v>       0.00901578 </v>
   <v>       0.00901578 </v>
   <v>       0.00901578 </v>
   <v>       0.00901578 </v>
   <v>       0.00901578 </v>
   <v>       0.00901578 </v>
   <v>       0.01803156 </v>
   <v>       0.01803156 </v>
   <v>       0.01803156 </v>
   <v>       0.00901578 </v>
   <v>       0.00901578 </v>
   <v>       0.01803156 </v>
   <v>       0.01803156 </v>
   <v>       0.00901578 </v>
   <v>       0.00901578 </v>
   <v>       0.00150263 </v>
   <v>       0.00901578 </v>
   <v>       0.00901578 </v>
   <v>       0.00901578 </v>
   <v>       0.00901578 </v>
   <v>       0.00901578 </v>
   <v>       0.00901578 </v>
   <v>       0.01803156 </v>
   <v>       0.01803156 </v>
   <v>       0.01803156 </v>
   <v>       0.00901578 </v>
   <v>       0.00901578 </v>
   <v>       0.01803156 </v>
   <v>       0.01803156 </v>
   <v>       0.00901578 </v>
   <v>       0.00901578 </v>
   <v>       0.00150263 </v>
   <v>       0.00901578 </v>
   <v>       0.00901578 </v>
   <v>       0.00901578 </v>
   <v>       0.00901578 </v>
   <v>       0.00901578 </v>
   <v>       0.00901578 </v>
   <v>       0.01803156 </v>
   <v>       0.01803156 </v>
   <v>       0.01803156 </v>
   <v>       0.00901578 </v>
   <v>       0.00901578 </v>
   <v>       0.01803156 </v>
   <v>       0.01803156 </v>
   <v>       0.00901578 </v>
   <v>       0.00901578 </v>
  </varray>
 </kpoints>
 <parameters>
  <separator name="general" >
   <i type="string" name="SYSTEM">unknown system</i>
   <i type="logical" name="LCOMPAT"> F  </i>
  </separator>
  <separator name="electronic" >
   <i type="string" name="PREC">normal</i>
   <i name="ENMAX">    280.00000000</i>
   <i name="ENAUG">    511.36800000</i>
   <i name="EDIFF">      0.00000100</i>
   <i type="int" name="IALGO">    38</i>
   <i type="int" name="IWAVPR">     0</i>
   <i type="int" name="NBANDS">    40</i>
   <i type="int" name="NBANDSLOW">    -1</i>
   <i type="int" name="NBANDSHIGH">    -1</i>
   <i name="NELECT">     16.00000000</i>
   <i type="int" name="TURBO">     0</i>
   <i type="int" name="IRESTART">     0</i>
   <i type="int" name="NREBOOT">     0</i>
   <i type="int" name="NMIN">     0</i>
   <i name="EREF">      0.00000000</i>
   <separator name="electronic smearing" >
    <i type="int" name="ISMEAR">     1</i>
    <i name="SIGMA">      0.20000000</i>
    <i name="KSPACING">      0.50000000</i>
    <i type="logical" name="KGAMMA"> T  </i>
    <i type="logical" name="KBLOWUP"> T  </i>
   </separator>
   <separator name="electronic projectors" >
    <i type="logical" name="LREAL"> F  </i>
    <v name="ROPT">      0.00000000</v>
    <i type="int" name="LMAXPAW">  -100</i>
    <i type="int" name="LMAXMIX">     2</i>
    <i type="logical" name="NLSPLINE"> F  </i>
   </separator>
   <separator name="electronic startup" >
    <i type="int" name="ISTART">     0</i>
    <i type="int" name="ICHARG">     1</i>
    <i type="int" name="INIWAV">     1</i>
   </separator>
   <separator name="electronic spin" >
    <i type="int" name="ISPIN">     1</i>
    <i type="logical" name="LNONCOLLINEAR"> F  </i>
    <v name="MAGMOM">      1.00000000      1.00000000</v>
    <i name="NUPDOWN">     -1.00000000</i>
    <i type="logical" name="LSORBIT"> F  </i>
    <v name="SAXIS">      0.00000000      0.00000000      1.00000000</v>
    <i type="logical" name="LSPIRAL"> F  </i>
    <v name="QSPIRAL">      0.00000000      0.00000000      0.00000000</v>
    <i type="logical" name="LZEROZ"> F  </i>
   </separator>
   <separator name="electronic exchange-correlation" >
    <i type="logical" name="LASPH"> F  </i>
    <i type="logical" name="LMETAGGA"> F  </i>
   </separator>
   <separator name="electronic convergence" >
    <i type="int" name="NELM">    60</i>
    <i type="int" name="NELMDL">    -5</i>
    <i type="int" name="NELMIN">     2</i>
    <i name="ENINI">    280.00000000</i>
    <separator name="electronic convergence detail" >
     <i type="logical" name="LDIAG"> T  </i>
     <i type="logical" name="LSUBROT"> F  </i>
     <i name="WEIMIN">      0.00000000</i>
     <i name="EBREAK">      0.00000001</i>
     <i name="DEPER">      0.30000000</i>
     <i type="int" name="NRMM">     4</i>
     <i name="TIME">      0.40000000</i>
    </separator>
   </separator>
   <separator name="electronic mixer" >
    <i name="AMIX">      0.40000000</i>
    <i name="BMIX">      1.00000000</i>
    <i name="AMIN">      0.10000000</i>
    <i name="AMIX_MAG">      1.60000000</i>
    <i name="BMIX_MAG">      1.00000000</i>
    <separator name="electronic mixer details" >
     <i type="int" name="IMIX">     4</i>
     <i type="logical" name="MIXFIRST"> F  </i>
     <i type="int" name="MAXMIX">   -45</i>
     <i name="WC">    100.00000000</i>
     <i type="int" name="INIMIX">     1</i>
     <i type="int" name="MIXPRE">     1</i>
     <i type="int" name="MREMOVE">     5</i>
    </separator>
   </separator>
   <separator name="electronic dipolcorrection" >
    <i type="logical" name="LDIPOL"> F  </i>
    <i type="logical" name="LMONO"> F  </i>
    <i type="int" name="IDIPOL">     0</i>
    <i name="EPSILON">      1.00000000</i>
    <v name="DIPOL">   -100.00000000   -100.00000000   -100.00000000</v>
    <i name="EFIELD">      0.00000000</i>
   </separator>
  </separator>
  <separator name="grids" >
   <i type="int" name="NGX">    10</i>
   <i type="int" name="NGY">    10</i>
   <i type="int" name="NGZ">    18</i>
   <i type="int" name="NGXF">    20</i>
   <i type="int" name="NGYF">    20</i>
   <i type="int" name="NGZF">    36</i>
   <i type="logical" name="ADDGRID"> F  </i>
  </separator>
  <separator name="ionic" >
   <i type="int" name="NSW">     0</i>
   <i type="int" name="IBRION">    -1</i>
   <i type="int" name="MDALGO">     0</i>
   <i type="int" name="ISIF">     2</i>
   <i name="PSTRESS">      0.00000000</i>
   <i name="EDIFFG">      0.00001000</i>
   <i type="int" name="NFREE">     0</i>
   <i name="POTIM">      0.50000000</i>
   <i name="SMASS">     -3.00000000</i>
   <i name="SCALEE">      1.00000000</i>
  </separator>
  <separator name="ionic md" >
   <i name="TEBEG">      0.00010000</i>
   <i name="TEEND">      0.00010000</i>
   <i type="int" name="NBLOCK">     1</i>
   <i type="int" name="KBLOCK">     1</i>
   <i type="int" name="NPACO">   256</i>
   <i name="APACO">     16.00000000</i>
  </separator>
  <separator name="symmetry" >
   <i type="int" name="ISYM">     2</i>
   <i name="SYMPREC">      0.00001000</i>
  </separator>
  <separator name="dos" >
   <i type="int" name="LORBIT">     0</i>
   <v name="RWIGS">     -1.00000000</v>
   <i type="int" name="NEDOS">   301</i>
   <i name="EMIN">     10.00000000</i>
   <i name="EMAX">    -10.00000000</i>
   <i name="EFERMI">      0.00000000</i>
  </separator>
  <separator name="writing" >
   <i type="int" name="NWRITE">     2</i>
   <i type="logical" name="LWAVE"> T  </i>
   <i type="logical" name="LDOWNSAMPLE"> F  </i>
   <i type="logical" name="LCHARG"> T  </i>
   <i type="logical" name="LPARD"> F  </i>
   <i type="logical" name="LVTOT"> F  </i>
   <i type="logical" name="LVHAR"> F  </i>
   <i type="logical" name="LELF"> F  </i>
   <i type="logical" name="LOPTICS"> F  </i>
   <v name="STM">      0.00000000      0.00000000      0.00000000      0.00000000      0.00000000      0.00000000      0.00000000</v>
  </separator>
  <separator name="performance" >
   <i type="int" name="NPAR">     1</i>
   <i type="int" name="NSIM">     4</i>
   <i type="int" name="NBLK">    -1</i>
   <i type="logical" name="LPLANE"> T  </i>
   <i type="logical" name="LSCALAPACK"> F  </i>
   <i type="logical" name="LSCAAWARE"> F  </i>
   <i type="logical" name="LSCALU"> F  </i>
   <i type="logical" name="LASYNC"> F  </i>
   <i type="logical" name="LORBITALREAL"> F  </i>
  </separator>
  <separator name="miscellaneous" >
   <i type="int" name="IDIOT">     3</i>
   <i type="int" name="PHON_NSTRUCT">    -1</i>
   <i type="logical" name="LMUSIC"> F  </i>
   <v name="POMASS">     55.84700000</v>
   <v name="DARWINR">      0.00000000</v>
   <v name="DARWINV">      1.00000000</v>
   <i type="logical" name="LCORR"> T  </i>
  </separator>
  <i type="logical" name="GGA_COMPAT"> T  </i>
  <i type="logical" name="LBERRY"> F  </i>
  <i type="int" name="ICORELEVEL">     0</i>
  <i type="logical" name="LDAU"> F  </i>
  <i type="int" name="I_CONSTRAINED_M">     0</i>
  <separator name="electronic exchange-correlation" >
   <i type="string" name="GGA">PE</i>
   <i type="int" name="VOSKOWN">     0</i>
   <i type="logical" name="LHFCALC"> F  </i>
   <i type="string" name="PRECFOCK"></i>
   <i type="logical" name="LSYMGRAD"> F  </i>
   <i type="logical" name="LHFONE"> F  </i>
   <i type="logical" name="LRHFCALC"> F  </i>
   <i type="logical" name="LTHOMAS"> F  </i>
   <i type="logical" name="LMODELHF"> F  </i>
   <i type="logical" name="LFOCKACE"> F  </i>
   <i name="ENCUT4O">     -1.00000000</i>
   <i type="int" name="EXXOEP">     0</i>
   <i type="int" name="FOURORBIT">     0</i>
   <i name="AEXX">      0.00000000</i>
   <i name="HFALPHA">      0.00000000</i>
   <i name="MCALPHA">      0.00000000</i>
   <i name="ALDAX">      1.00000000</i>
   <i name="AGGAX">      1.00000000</i>
   <i name="ALDAC">      1.00000000</i>
   <i name="AGGAC">      1.00000000</i>
   <i type="int" name="NKREDX">     1</i>
   <i type="int" name="NKREDY">     1</i>
   <i type="int" name="NKREDZ">     1</i>
   <i type="logical" name="SHIFTRED"> F  </i>
   <i type="logical" name="ODDONLY"> F  </i>
   <i type="logical" name="EVENONLY"> F  </i>
   <i type="int" name="LMAXFOCK">     0</i>
   <i type="int" name="NMAXFOCKAE">     0</i>
   <i type="logical" name="LFOCKAEDFT"> F  </i>
   <i name="HFSCREEN">      0.00000000</i>
   <i name="HFSCREENC">      0.00000000</i>
   <i type="int" name="NBANDSGWLOW">     0</i>
  </separator>
  <separator name="vdW DFT" >
   <i type="logical" name="LUSE_VDW"> F  </i>
   <i name="Zab_VDW">     -0.84910000</i>
   <i name="PARAM1">      0.12340000</i>
   <i name="PARAM2">      1.00000000</i>
   <i name="PARAM3">      0.00000000</i>
  </separator>
  <separator name="model GW" >
   <i type="int" name="MODEL_GW">     0</i>
   <i name="MODEL_EPS0">      5.38347821</i>
   <i name="MODEL_ALPHA">      1.00000000</i>
  </separator>
  <separator name="linear response parameters" >
   <i type="logical" name="LEPSILON"> F  </i>
   <i type="logical" name="LRPA"> F  </i>
   <i type="logical" name="LNABLA"> F  </i>
   <i type="logical" name="LVEL"> F  </i>
   <i type="int" name="KINTER">     0</i>
   <i name="CSHIFT">      0.10000000</i>
   <i name="OMEGAMAX">     -1.00000000</i>
   <i name="DEG_THRESHOLD">      0.00200000</i>
   <i name="RTIME">     -0.10000000</i>
   <i name="WPLASMAI">      0.00000000</i>
   <v name="DFIELD">      0.00000000      0.00000000      0.00000000</v>
   <v name="WPLASMA">      0.00000000      0.00000000      0.00000000      0.00000000      0.00000000      0.00000000      0.00000000      0.00000000      0.00000000</v>
  </separator>
  <separator name="orbital magnetization" >
   <i type="logical" name="NUCIND"> F  </i>
   <v name="MAGPOS">      0.00000000      0.00000000      0.00000000</v>
   <i type="logical" name="LNICSALL"> T  </i>
   <i type="logical" name="ORBITALMAG"> F  </i>
   <i type="logical" name="LMAGBLOCH"> F  </i>
   <i type="logical" name="LCHIMAG"> F  </i>
   <i type="logical" name="LGAUGE"> T  </i>
   <i type="int" name="MAGATOM">     0</i>
   <v name="MAGDIPOL">      0.00000000      0.00000000      0.00000000</v>
   <v name="AVECCONST">      0.00000000      0.00000000      0.00000000</v>
  </separator>
  <separator name="response functions" >
   <i type="logical" name="LFINITE_TEMPERATURE"> F  </i>
   <i type="logical" name="LADDER"> F  </i>
   <i type="logical" name="LRPAFORCE"> F  </i>
   <i type="logical" name="LFXC"> F  </i>
   <i type="logical" name="LHARTREE"> T  </i>
   <i type="int" name="IBSE">     0</i>
   <v type="int" name="KPOINT">    -1     0     0     0</v>
   <i type="logical" name="LTCTC"> F  </i>
   <i type="logical" name="LTCTE"> F  </i>
   <i type="logical" name="LTETE"> F  </i>
   <i type="logical" name="LTRIPLET"> F  </i>
   <i type="logical" name="LFXCEPS"> F  </i>
   <i type="logical" name="LFXHEG"> F  </i>
   <i type="int" name="NATURALO">     2</i>
   <i type="logical" name="LHOLEGF"> F  </i>
   <i type="logical" name="L2ORDER"> F  </i>
   <i type="logical" name="LDMP1"> F  </i>
   <i type="logical" name="LMP2LT"> F  </i>
   <i type="logical" name="LSMP2LT"> F  </i>
   <i type="logical" name="LGWLF"> F  </i>
   <i name="ENCUTGW">     -2.00000000</i>
   <i name="ENCUTGWSOFT">     -2.00000000</i>
   <i name="ENCUTLF">     -1.00000000</i>
   <i type="logical" name="LESF_SPLINES"> F  </i>
   <i type="int" name="LMAXMP2">    -1</i>
   <i name="SCISSOR">      0.00000000</i>
   <i type="int" name="NOMEGA">     0</i>
   <i type="int" name="NOMEGAR">     0</i>
   <i type="int" name="NBANDSGW">    -1</i>
   <i type="int" name="NBANDSO">    -1</i>
   <i type="int" name="NBANDSV">    -1</i>
   <i type="int" name="NELM">     1</i>
   <i type="int" name="NELMHF">     1</i>
   <i type="int" name="DIM">     3</i>
   <i type="int" name="IESPILON">     4</i>
   <i type="int" name="ANTIRES">     0</i>
   <i name="OMEGAMAX">    -30.00000000</i>
   <i name="OMEGAMIN">    -30.00000000</i>
   <i name="OMEGATL">   -200.00000000</i>
   <i type="int" name="OMEGAGRID">     0</i>
   <i name="CSHIFT">     -0.10000000</i>
   <i type="logical" name="LSELFENERGY"> F  </i>
   <i type="logical" name="LSPECTRAL"> F  </i>
   <i type="logical" name="LSPECTRALGW"> F  </i>
   <i type="logical" name="LSINGLES"> F  </i>
   <i type="logical" name="LFERMIGW"> F  </i>
   <i type="logical" name="ODDONLYGW"> F  </i>
   <i type="logical" name="EVENONLYGW"> F  </i>
   <i type="int" name="NKREDLFX">     1</i>
   <i type="int" name="NKREDLFY">     1</i>
   <i type="int" name="NKREDLFZ">     1</i>
   <i type="int" name="MAXMEM">  2800</i>
   <i type="int" name="TELESCOPE">     0</i>
   <i type="int" name="NTAUPAR">    -1</i>
   <i type="int" name="NOMEGAPAR">    -1</i>
   <i name="DAMP_NEWTON">      0.80000001</i>
   <i name="LAMBDA">      1.00000000</i>
  </separator>
  <separator name="External order field" >
   <i name="OFIELD_KAPPA">      0.00000000</i>
   <v name="OFIELD_K">      0.00000000      0.00000000      0.00000000</v>
   <i name="OFIELD_Q6_NEAR">      0.00000000</i>
   <i name="OFIELD_Q6_FAR">      0.00000000</i>
   <i name="OFIELD_A">      0.00000000</i>
  </separator>
 </parameters>
 <atominfo>
  <atoms>       2 </atoms>
  <types>       1 </types>
  <array name="atoms" >
   <dimension dim="1">ion</dimension>
   <field type="string">element</field>
   <field type="int">atomtype</field>
   <set>
    <rc><c>Fe</c><c>   1</c></rc>
    <rc><c>Fe</c><c>   1</c></rc>
   </set>
  </array>
  <array name="atomtypes" >
   <dimension dim="1">type</dimension>
   <field type="int">atomspertype</field>
   <field type="string">element</field>
   <field>mass</field>
   <field>valence</field>
   <field type="string">pseudopotential</field>
   <set>
    <rc><c>   2</c><c>Fe</c><c>     55.84700000</c><c>      8.00000000</c><c>  PAW_PBE Fe 06Sep2000                  </c></rc>
   </set>
  </array>
 </atominfo>
 <structure name="initialpos" >
  <crystal>
   <varray name="basis" >
    <v>       2.26010000       0.00000000       0.00000000 </v>
    <v>      -1.13005000       1.95730402       0.00000000 </v>
    <v>       0.00000000       0.00000000       4.05654000 </v>
   </varray>
   <i name="volume">     17.94492737 </i>
   <varray name="rec_basis" >
    <v>       0.44245830       0.25545342       0.00000000 </v>
    <v>       0.00000000       0.51090684       0.00000000 </v>
    <v>       0.00000000       0.00000000       0.24651550 </v>
   </varray>
  </crystal>
  <varray name="positions" >
   <v>       0.00000000       0.00000000       0.00000000 </v>
   <v>       0.33333333       0.66666667       0.50000000 </v>
  </varray>
 </structure>
 <calculation>
  <scstep>
   <time name="dav">    0.79    0.80</time>
   <time name="total">    0.80    0.82</time>
   <energy>
    <i name="alphaZ">    154.05752179 </i>
    <i name="ewald">  -1279.18341071 </i>
    <i name="hartreedc">   -189.28563913 </i>
    <i name="XCdc">      9.34291432 </i>
    <i name="pawpsdc">   1109.69170683 </i>
    <i name="pawaedc">  -1125.09647265 </i>
    <i name="eentropy">      0.00024346 </i>
    <i name="bandstr">    192.00585632 </i>
    <i name="atom">   1188.57490811 </i>
    <i name="e_fr_energy">     60.10762833 </i>
    <i name="e_wo_entrp">     60.10738488 </i>
    <i name="e_0_energy">     60.10754718 </i>
   </energy>
  </scstep>
  <scstep>
   <time name="dav">    0.67    0.67</time>
   <time name="total">    0.68    0.68</time>
   <energy>
    <i name="e_fr_energy">    -14.26703333 </i>
    <i name="e_wo_entrp">    -14.27060618 </i>
    <i name="e_0_energy">    -14.26822428 </i>
   </energy>
  </scstep>
  <scstep>
   <time name="dav">    0.78    0.78</time>
   <time name="total">    0.79    0.79</time>
   <energy>
    <i name="e_fr_energy">    -18.35012585 </i>
    <i name="e_wo_entrp">    -18.35041783 </i>
    <i name="e_0_energy">    -18.35022317 </i>
   </energy>
  </scstep>
  <scstep>
   <time name="dav">    0.73    0.73</time>
   <time name="total">    0.73    0.73</time>
   <energy>
    <i name="e_fr_energy">    -18.36412353 </i>
    <i name="e_wo_entrp">    -18.36440817 </i>
    <i name="e_0_energy">    -18.36421841 </i>
   </energy>
  </scstep>
  <scstep>
   <time name="dav">    0.75    0.75</time>
   <time name="total">    0.77    0.77</time>
   <energy>
    <i name="e_fr_energy">    -18.36413281 </i>
    <i name="e_wo_entrp">    -18.36441744 </i>
    <i name="e_0_energy">    -18.36422769 </i>
   </energy>
  </scstep>
  <scstep>
   <time name="dav">    0.89    0.89</time>
   <time name="total">    0.92    0.92</time>
   <energy>
    <i name="e_fr_energy">    -15.78101851 </i>
    <i name="e_wo_entrp">    -15.78270646 </i>
    <i name="e_0_energy">    -15.78158116 </i>
   </energy>
  </scstep>
  <scstep>
   <time name="dav">    0.79    0.79</time>
   <time name="total">    0.82    0.82</time>
   <energy>
    <i name="e_fr_energy">    -15.66314952 </i>
    <i name="e_wo_entrp">    -15.66461777 </i>
    <i name="e_0_energy">    -15.66363893 </i>
   </energy>
  </scstep>
  <scstep>
   <time name="dav">    0.83    0.83</time>
   <time name="total">    0.86    0.86</time>
   <energy>
    <i name="e_fr_energy">    -15.62639757 </i>
    <i name="e_wo_entrp">    -15.62793841 </i>
    <i name="e_0_energy">    -15.62691119 </i>
   </energy>
  </scstep>
  <scstep>
   <time name="dav">    0.84    0.84</time>
   <time name="total">    0.87    0.87</time>
   <energy>
    <i name="e_fr_energy">    -15.62041615 </i>
    <i name="e_wo_entrp">    -15.62196932 </i>
    <i name="e_0_energy">    -15.62093387 </i>
   </energy>
  </scstep>
  <scstep>
   <time name="dav">    0.70    0.70</time>
   <time name="total">    0.73    0.73</time>
   <energy>
    <i name="e_fr_energy">    -15.62042874 </i>
    <i name="e_wo_entrp">    -15.62198111 </i>
    <i name="e_0_energy">    -15.62094619 </i>
   </energy>
  </scstep>
  <scstep>
   <time name="dav">    0.72    0.72</time>
   <time name="total">    0.75    0.75</time>
   <energy>
    <i name="e_fr_energy">    -15.62040934 </i>
    <i name="e_wo_entrp">    -15.62196135 </i>
    <i name="e_0_energy">    -15.62092668 </i>
   </energy>
  </scstep>
  <scstep>
   <time name="dav">    0.58    0.58</time>
   <time name="total">    0.61    0.61</time>
   <energy>
    <i name="e_fr_energy">    -15.62040748 </i>
    <i name="e_wo_entrp">    -15.62195945 </i>
    <i name="e_0_energy">    -15.62092480 </i>
   </energy>
  </scstep>
  <scstep>
   <time name="dav">    0.51    0.51</time>
   <time name="total">    0.52    0.52</time>
   <energy>
    <i name="alphaZ">    154.05752179 </i>
    <i name="ewald">  -1279.18341071 </i>
    <i name="hartreedc">   -156.24462321 </i>
    <i name="XCdc">      7.78488628 </i>
    <i name="pawpsdc">   1651.08648440 </i>
    <i name="pawaedc">  -1670.06672747 </i>
    <i name="eentropy">      0.00155196 </i>
    <i name="bandstr">     88.36900095 </i>
    <i name="atom">   1188.57490811 </i>
    <i name="e_fr_energy">    -15.62040789 </i>
    <i name="e_wo_entrp">    -15.62195986 </i>
    <i name="e_0_energy">    -15.62092521 </i>
   </energy>
  </scstep>
  <structure>
   <crystal>
    <varray name="basis" >
     <v>       2.26010000       0.00000000       0.00000000 </v>
     <v>      -1.13005000       1.95730402       0.00000000 </v>
     <v>       0.00000000       0.00000000       4.05654000 </v>
    </varray>
    <i name="volume">     17.94492737 </i>
    <varray name="rec_basis" >
     <v>       0.44245830       0.25545342       0.00000000 </v>
     <v>       0.00000000       0.51090684       0.00000000 </v>
     <v>       0.00000000       0.00000000       0.24651550 </v>
    </varray>
   </crystal>
   <varray name="positions" >
    <v>       0.00000000       0.00000000       0.00000000 </v>
    <v>       0.33333333       0.66666667       0.50000000 </v>
   </varray>
  </structure>
  <varray name="forces" >
   <v>       0.00000000      -0.00000000      -0.00000000 </v>
   <v>      -0.00000000       0.00000000       0.00000000 </v>
  </varray>
  <varray name="stress" >
   <v>     793.82873856      -0.00000000       0.00000000 </v>
   <v>      -0.00000000     793.82873856      -0.00000000 </v>
   <v>       0.00000000       0.00000000     -24.53759125 </v>
  </varray>
  <energy>
   <i name="e_fr_energy">    -15.62040789 </i>
   <i name="e_wo_entrp">    -15.62195986 </i>
   <i name="e_0_energy">    -15.62092521 </i>
  </energy>
  <time name="totalsc">   10.15   10.17</time>
  <eigenvalues>
   <array>
    <dimension dim="1">band</dimension>
    <dimension dim="2">kpoint</dimension>
    <dimension dim="3">spin</dimension>
    <field>eigene</field>
    <field>occ</field>
    <set>
     <set comment="spin 1">
      <set comment="kpoint 1">
       <r>   -1.1909    1.0000 </r>
       <r>    2.6789    1.0000 </r>
       <r>    5.6680    1.0000 </r>
       <r>    6.5547    1.0000 </r>
       <r>    6.5547    1.0000 </r>
       <r>    6.9045    1.0000 </r>
       <r>    6.9045    1.0000 </r>
       <r>    7.4196    1.0000 </r>
       <r>    8.1685    1.0314 </r>
       <r>    8.1685    1.0314 </r>
       <r>    9.3550   -0.0000 </r>
       <r>    9.3550   -0.0000 </r>
       <r>   16.7443    0.0000 </r>
       <r>   32.7013    0.0000 </r>
       <r>   33.2684    0.0000 </r>
       <r>   36.4568    0.0000 </r>
       <r>   40.1705    0.0000 </r>
       <r>   40.1705    0.0000 </r>
       <r>   40.7202    0.0000 </r>
       <r>   40.8151    0.0000 </r>
       <r>   40.8152    0.0000 </r>
       <r>   42.9908    0.0000 </r>
       <r>   42.9908    0.0000 </r>
       <r>   44.0333    0.0000 </r>
       <r>   47.2032    0.0000 </r>
       <r>   47.2032    0.0000 </r>
       <r>   48.1599    0.0000 </r>
       <r>   52.1433    0.0000 </r>
       <r>   52.1435    0.0000 </r>
       <r>   53.7382    0.0000 </r>
       <r>   53.7383    0.0000 </r>
       <r>   56.4102    0.0000 </r>
       <r>   63.9073    0.0000 </r>
       <r>   64.2251    0.0000 </r>
       <r>   64.7766    0.0000 </r>
       <r>   64.7769    0.0000 </r>
       <r>   65.7997    0.0000 </r>
       <r>   68.2182    0.0000 </r>
       <r>   68.2183    0.0000 </r>
       <r>   69.8533    0.0000 </r>
      </set>
      <set comment="kpoint 2">
       <r>   -0.8201    1.0000 </r>
       <r>    2.9672    1.0000 </r>
       <r>    5.7195    1.0000 </r>
       <r>    6.4457    1.0000 </r>
       <r>    6.5241    1.0000 </r>
       <r>    6.7588    1.0000 </r>
       <r>    6.7886    1.0000 </r>
       <r>    7.1207    1.0000 </r>
       <r>    7.9642    1.0016 </r>
       <r>    8.0331    1.0060 </r>
       <r>    9.3910   -0.0000 </r>
       <r>   10.5369   -0.0000 </r>
       <r>   16.7634    0.0000 </r>
       <r>   32.2707    0.0000 </r>
       <r>   33.1216    0.0000 </r>
       <r>   35.1451    0.0000 </r>
       <r>   37.0544    0.0000 </r>
       <r>   38.6050    0.0000 </r>
       <r>   38.9902    0.0000 </r>
       <r>   40.5238    0.0000 </r>
       <r>   42.4391    0.0000 </r>
       <r>   43.6115    0.0000 </r>
       <r>   44.0079    0.0000 </r>
       <r>   44.6249    0.0000 </r>
       <r>   48.4133    0.0000 </r>
       <r>   48.6864    0.0000 </r>
       <r>   49.3038    0.0000 </r>
       <r>   49.5696    0.0000 </r>
       <r>   52.6623    0.0000 </r>
       <r>   55.3210    0.0000 </r>
       <r>   56.1862    0.0000 </r>
       <r>   58.1456    0.0000 </r>
       <r>   62.3872    0.0000 </r>
       <r>   63.8187    0.0000 </r>
       <r>   63.8743    0.0000 </r>
       <r>   64.3073    0.0000 </r>
       <r>   65.0229    0.0000 </r>
       <r>   68.7043    0.0000 </r>
       <r>   69.9190    0.0000 </r>
       <r>   70.3104    0.0000 </r>
      </set>
      <set comment="kpoint 3">
       <r>    0.2167    1.0000 </r>
       <r>    3.6291    1.0000 </r>
       <r>    5.3153    1.0000 </r>
       <r>    5.5908    1.0000 </r>
       <r>    6.1900    1.0000 </r>
       <r>    6.8711    1.0000 </r>
       <r>    7.4447    1.0000 </r>
       <r>    7.4899    1.0000 </r>
       <r>    7.7148    1.0000 </r>
       <r>    7.7306    1.0000 </r>
       <r>    9.4468   -0.0000 </r>
       <r>   12.5342   -0.0000 </r>
       <r>   16.8520    0.0000 </r>
       <r>   28.6830    0.0000 </r>
       <r>   33.7658    0.0000 </r>
       <r>   33.8213    0.0000 </r>
       <r>   33.9710    0.0000 </r>
       <r>   34.4637    0.0000 </r>
       <r>   39.5760    0.0000 </r>
       <r>   40.2374    0.0000 </r>
       <r>   40.9470    0.0000 </r>
       <r>   41.5916    0.0000 </r>
       <r>   45.0744    0.0000 </r>
       <r>   46.0620    0.0000 </r>
       <r>   49.1637    0.0000 </r>
       <r>   49.8890    0.0000 </r>
       <r>   51.2087    0.0000 </r>
       <r>   53.5748    0.0000 </r>
       <r>   56.0523    0.0000 </r>
       <r>   57.8659    0.0000 </r>
       <r>   58.9387    0.0000 </r>
       <r>   60.5920    0.0000 </r>
       <r>   61.2726    0.0000 </r>
       <r>   62.1268    0.0000 </r>
       <r>   62.1706    0.0000 </r>
       <r>   63.1670    0.0000 </r>
       <r>   66.3051    0.0000 </r>
       <r>   69.5033    0.0000 </r>
       <r>   70.0145    0.0000 </r>
       <r>   70.3534    0.0000 </r>
      </set>
      <set comment="kpoint 4">
       <r>    1.6363    1.0000 </r>
       <r>    3.8642    1.0000 </r>
       <r>    4.3531    1.0000 </r>
       <r>    5.6090    1.0000 </r>
       <r>    5.9987    1.0000 </r>
       <r>    6.9013    1.0000 </r>
       <r>    7.3541    1.0000 </r>
       <r>    7.7952    1.0000 </r>
       <r>    8.3755    0.7937 </r>
       <r>    8.5849    0.0502 </r>
       <r>    9.4701   -0.0000 </r>
       <r>   14.7834    0.0000 </r>
       <r>   17.0619    0.0000 </r>
       <r>   24.5367    0.0000 </r>
       <r>   30.1039    0.0000 </r>
       <r>   31.3091    0.0000 </r>
       <r>   32.2090    0.0000 </r>
       <r>   34.5223    0.0000 </r>
       <r>   37.9745    0.0000 </r>
       <r>   40.4438    0.0000 </r>
       <r>   40.9544    0.0000 </r>
       <r>   41.2822    0.0000 </r>
       <r>   42.5287    0.0000 </r>
       <r>   45.9156    0.0000 </r>
       <r>   52.7652    0.0000 </r>
       <r>   54.0416    0.0000 </r>
       <r>   54.9470    0.0000 </r>
       <r>   56.0634    0.0000 </r>
       <r>   56.6698    0.0000 </r>
       <r>   58.4887    0.0000 </r>
       <r>   59.8369    0.0000 </r>
       <r>   61.7263    0.0000 </r>
       <r>   61.8981    0.0000 </r>
       <r>   62.0172    0.0000 </r>
       <r>   63.3462    0.0000 </r>
       <r>   66.4075    0.0000 </r>
       <r>   66.5899    0.0000 </r>
       <r>   70.0689    0.0000 </r>
       <r>   70.2422    0.0000 </r>
       <r>   70.3812    0.0000 </r>
      </set>
      <set comment="kpoint 5">
       <r>    2.7597    1.0000 </r>
       <r>    3.5148    1.0000 </r>
       <r>    3.7042    1.0000 </r>
       <r>    5.8154    1.0000 </r>
       <r>    6.3852    1.0000 </r>
       <r>    6.5776    1.0000 </r>
       <r>    7.0538    1.0000 </r>
       <r>    9.3070   -0.0000 </r>
       <r>    9.3190   -0.0000 </r>
       <r>    9.4488   -0.0000 </r>
       <r>    9.4628   -0.0000 </r>
       <r>   16.9621    0.0000 </r>
       <r>   17.1673    0.0000 </r>
       <r>   21.4565    0.0000 </r>
       <r>   26.6549    0.0000 </r>
       <r>   29.2697    0.0000 </r>
       <r>   29.3368    0.0000 </r>
       <r>   33.7572    0.0000 </r>
       <r>   36.9157    0.0000 </r>
       <r>   40.2882    0.0000 </r>
       <r>   40.5160    0.0000 </r>
       <r>   42.1747    0.0000 </r>
       <r>   42.4363    0.0000 </r>
       <r>   45.8813    0.0000 </r>
       <r>   53.2799    0.0000 </r>
       <r>   55.1194    0.0000 </r>
       <r>   56.0780    0.0000 </r>
       <r>   59.3532    0.0000 </r>
       <r>   59.3547    0.0000 </r>
       <r>   59.4738    0.0000 </r>
       <r>   60.8837    0.0000 </r>
       <r>   62.9980    0.0000 </r>
       <r>   63.0468    0.0000 </r>
       <r>   63.8301    0.0000 </r>
       <r>   64.9721    0.0000 </r>
       <r>   66.5099    0.0000 </r>
       <r>   69.8015    0.0000 </r>
       <r>   70.1494    0.0000 </r>
       <r>   70.4566    0.0000 </r>
       <r>   70.9630    0.0000 </r>
      </set>
      <set comment="kpoint 6">
       <r>    3.0161    1.0000 </r>
       <r>    3.3148    1.0000 </r>
       <r>    3.3802    1.0000 </r>
       <r>    6.0882    1.0000 </r>
       <r>    6.5012    1.0000 </r>
       <r>    6.8652    1.0000 </r>
       <r>    6.8881    1.0000 </r>
       <r>    9.4510   -0.0000 </r>
       <r>    9.9118   -0.0000 </r>
       <r>   10.0297   -0.0000 </r>
       <r>   11.2739   -0.0000 </r>
       <r>   15.1002    0.0000 </r>
       <r>   19.4058    0.0000 </r>
       <r>   21.2993    0.0000 </r>
       <r>   23.9027    0.0000 </r>
       <r>   26.5249    0.0000 </r>
       <r>   28.1193    0.0000 </r>
       <r>   33.1123    0.0000 </r>
       <r>   36.5586    0.0000 </r>
       <r>   39.0241    0.0000 </r>
       <r>   40.3729    0.0000 </r>
       <r>   43.2086    0.0000 </r>
       <r>   44.8706    0.0000 </r>
       <r>   45.3344    0.0000 </r>
       <r>   49.9245    0.0000 </r>
       <r>   55.9589    0.0000 </r>
       <r>   56.8351    0.0000 </r>
       <r>   60.2317    0.0000 </r>
       <r>   61.0735    0.0000 </r>
       <r>   62.1674    0.0000 </r>
       <r>   63.3419    0.0000 </r>
       <r>   63.5713    0.0000 </r>
       <r>   63.7907    0.0000 </r>
       <r>   65.8789    0.0000 </r>
       <r>   66.7570    0.0000 </r>
       <r>   68.9660    0.0000 </r>
       <r>   69.1743    0.0000 </r>
       <r>   69.5350    0.0000 </r>
       <r>   72.2181    0.0000 </r>
       <r>   72.6576    0.0000 </r>
      </set>
      <set comment="kpoint 7">
       <r>   -0.1122    1.0000 </r>
       <r>    3.4695    1.0000 </r>
       <r>    5.6117    1.0000 </r>
       <r>    5.6367    1.0000 </r>
       <r>    6.4653    1.0000 </r>
       <r>    6.4855    1.0000 </r>
       <r>    7.2707    1.0000 </r>
       <r>    7.4856    1.0000 </r>
       <r>    7.5949    1.0000 </r>
       <r>    7.9714    1.0018 </r>
       <r>    9.3931   -0.0000 </r>
       <r>   11.9831   -0.0000 </r>
       <r>   16.8227    0.0000 </r>
       <r>   30.3766    0.0000 </r>
       <r>   32.0317    0.0000 </r>
       <r>   33.7887    0.0000 </r>
       <r>   35.5948    0.0000 </r>
       <r>   37.7564    0.0000 </r>
       <r>   37.8506    0.0000 </r>
       <r>   39.3822    0.0000 </r>
       <r>   40.2211    0.0000 </r>
       <r>   45.3367    0.0000 </r>
       <r>   46.0080    0.0000 </r>
       <r>   46.8992    0.0000 </r>
       <r>   47.2903    0.0000 </r>
       <r>   48.0367    0.0000 </r>
       <r>   48.2754    0.0000 </r>
       <r>   54.0964    0.0000 </r>
       <r>   56.3331    0.0000 </r>
       <r>   57.0924    0.0000 </r>
       <r>   57.1817    0.0000 </r>
       <r>   60.2692    0.0000 </r>
       <r>   60.8931    0.0000 </r>
       <r>   62.4738    0.0000 </r>
       <r>   63.2472    0.0000 </r>
       <r>   63.6839    0.0000 </r>
       <r>   64.9352    0.0000 </r>
       <r>   69.7723    0.0000 </r>
       <r>   69.8785    0.0000 </r>
       <r>   70.8501    0.0000 </r>
      </set>
      <set comment="kpoint 8">
       <r>    1.1539    1.0000 </r>
       <r>    4.0766    1.0000 </r>
       <r>    4.7048    1.0000 </r>
       <r>    5.3003    1.0000 </r>
       <r>    6.1040    1.0000 </r>
       <r>    6.9303    1.0000 </r>
       <r>    6.9976    1.0000 </r>
       <r>    7.6559    1.0000 </r>
       <r>    8.1282    1.0225 </r>
       <r>    8.4803    0.3755 </r>
       <r>    9.3754   -0.0000 </r>
       <r>   14.0019    0.0000 </r>
       <r>   17.0224    0.0000 </r>
       <r>   26.6569    0.0000 </r>
       <r>   29.4899    0.0000 </r>
       <r>   31.9602    0.0000 </r>
       <r>   34.0671    0.0000 </r>
       <r>   35.2745    0.0000 </r>
       <r>   38.1933    0.0000 </r>
       <r>   38.5431    0.0000 </r>
       <r>   39.8178    0.0000 </r>
       <r>   44.7079    0.0000 </r>
       <r>   44.7647    0.0000 </r>
       <r>   46.5828    0.0000 </r>
       <r>   49.5556    0.0000 </r>
       <r>   50.2086    0.0000 </r>
       <r>   52.5402    0.0000 </r>
       <r>   56.6606    0.0000 </r>
       <r>   58.2098    0.0000 </r>
       <r>   58.7583    0.0000 </r>
       <r>   59.4785    0.0000 </r>
       <r>   61.2194    0.0000 </r>
       <r>   61.3895    0.0000 </r>
       <r>   62.2909    0.0000 </r>
       <r>   63.6859    0.0000 </r>
       <r>   63.7021    0.0000 </r>
       <r>   65.7910    0.0000 </r>
       <r>   69.5426    0.0000 </r>
       <r>   70.4815    0.0000 </r>
       <r>   71.3902    0.0000 </r>
      </set>
      <set comment="kpoint 9">
       <r>    2.5483    1.0000 </r>
       <r>    3.9166    1.0000 </r>
       <r>    3.9956    1.0000 </r>
       <r>    5.4494    1.0000 </r>
       <r>    6.2257    1.0000 </r>
       <r>    6.4610    1.0000 </r>
       <r>    7.2133    1.0000 </r>
       <r>    7.9612    1.0015 </r>
       <r>    9.0659   -0.0001 </r>
       <r>    9.3486   -0.0000 </r>
       <r>    9.6324   -0.0000 </r>
       <r>   16.2939    0.0000 </r>
       <r>   17.3668    0.0000 </r>
       <r>   22.7967    0.0000 </r>
       <r>   27.6527    0.0000 </r>
       <r>   28.4495    0.0000 </r>
       <r>   31.8876    0.0000 </r>
       <r>   33.0338    0.0000 </r>
       <r>   37.8990    0.0000 </r>
       <r>   39.2357    0.0000 </r>
       <r>   39.6490    0.0000 </r>
       <r>   43.8726    0.0000 </r>
       <r>   44.1181    0.0000 </r>
       <r>   47.3774    0.0000 </r>
       <r>   51.6301    0.0000 </r>
       <r>   54.0782    0.0000 </r>
       <r>   55.3818    0.0000 </r>
       <r>   55.5159    0.0000 </r>
       <r>   57.9267    0.0000 </r>
       <r>   59.9994    0.0000 </r>
       <r>   60.2898    0.0000 </r>
       <r>   62.8212    0.0000 </r>
       <r>   63.6186    0.0000 </r>
       <r>   64.1689    0.0000 </r>
       <r>   64.3017    0.0000 </r>
       <r>   65.9578    0.0000 </r>
       <r>   69.0337    0.0000 </r>
       <r>   69.8014    0.0000 </r>
       <r>   70.0812    0.0000 </r>
       <r>   71.6617    0.0000 </r>
      </set>
      <set comment="kpoint 10">
       <r>    3.2329    1.0000 </r>
       <r>    3.5669    1.0000 </r>
       <r>    3.5774    1.0000 </r>
       <r>    5.9916    1.0000 </r>
       <r>    6.1572    1.0000 </r>
       <r>    6.7047    1.0000 </r>
       <r>    6.8470    1.0000 </r>
       <r>    9.1017   -0.0000 </r>
       <r>    9.3199   -0.0000 </r>
       <r>    9.7080   -0.0000 </r>
       <r>   11.0576   -0.0000 </r>
       <r>   16.5961    0.0000 </r>
       <r>   18.6872    0.0000 </r>
       <r>   21.1346    0.0000 </r>
       <r>   25.3305    0.0000 </r>
       <r>   26.1690    0.0000 </r>
       <r>   28.5234    0.0000 </r>
       <r>   32.0985    0.0000 </r>
       <r>   36.9731    0.0000 </r>
       <r>   38.7579    0.0000 </r>
       <r>   41.2276    0.0000 </r>
       <r>   44.0719    0.0000 </r>
       <r>   44.8719    0.0000 </r>
       <r>   46.6410    0.0000 </r>
       <r>   51.9211    0.0000 </r>
       <r>   54.2959    0.0000 </r>
       <r>   55.9065    0.0000 </r>
       <r>   57.6537    0.0000 </r>
       <r>   59.7445    0.0000 </r>
       <r>   61.0030    0.0000 </r>
       <r>   62.1124    0.0000 </r>
       <r>   63.2495    0.0000 </r>
       <r>   63.7071    0.0000 </r>
       <r>   66.4346    0.0000 </r>
       <r>   67.5677    0.0000 </r>
       <r>   67.8125    0.0000 </r>
       <r>   68.4352    0.0000 </r>
       <r>   70.9868    0.0000 </r>
       <r>   71.1128    0.0000 </r>
       <r>   72.6501    0.0000 </r>
      </set>
      <set comment="kpoint 11">
       <r>    3.2304    1.0000 </r>
       <r>    3.4248    1.0000 </r>
       <r>    3.5339    1.0000 </r>
       <r>    6.0541    1.0000 </r>
       <r>    6.4949    1.0000 </r>
       <r>    6.7040    1.0000 </r>
       <r>    6.8052    1.0000 </r>
       <r>    9.3068   -0.0000 </r>
       <r>    9.7567   -0.0000 </r>
       <r>    9.7913   -0.0000 </r>
       <r>   12.4114   -0.0000 </r>
       <r>   14.8669    0.0000 </r>
       <r>   20.3036    0.0000 </r>
       <r>   21.7594    0.0000 </r>
       <r>   23.4730    0.0000 </r>
       <r>   25.2160    0.0000 </r>
       <r>   27.0258    0.0000 </r>
       <r>   31.7497    0.0000 </r>
       <r>   36.5635    0.0000 </r>
       <r>   38.6004    0.0000 </r>
       <r>   41.5947    0.0000 </r>
       <r>   44.7245    0.0000 </r>
       <r>   45.6099    0.0000 </r>
       <r>   46.3362    0.0000 </r>
       <r>   49.7869    0.0000 </r>
       <r>   55.4226    0.0000 </r>
       <r>   56.3071    0.0000 </r>
       <r>   58.0965    0.0000 </r>
       <r>   61.3221    0.0000 </r>
       <r>   61.4291    0.0000 </r>
       <r>   63.6154    0.0000 </r>
       <r>   63.6977    0.0000 </r>
       <r>   64.1662    0.0000 </r>
       <r>   65.5545    0.0000 </r>
       <r>   67.5815    0.0000 </r>
       <r>   70.1929    0.0000 </r>
       <r>   70.3052    0.0000 </r>
       <r>   70.3109    0.0000 </r>
       <r>   70.3892    0.0000 </r>
       <r>   73.1799    0.0000 </r>
      </set>
      <set comment="kpoint 12">
       <r>    2.5068    1.0000 </r>
       <r>    4.1684    1.0000 </r>
       <r>    4.5895    1.0000 </r>
       <r>    4.7604    1.0000 </r>
       <r>    6.1982    1.0000 </r>
       <r>    6.3856    1.0000 </r>
       <r>    7.2809    1.0000 </r>
       <r>    7.3634    1.0000 </r>
       <r>    9.0355   -0.0001 </r>
       <r>    9.2181   -0.0000 </r>
       <r>    9.7190   -0.0000 </r>
       <r>   16.0234    0.0000 </r>
       <r>   17.5345    0.0000 </r>
       <r>   24.5155    0.0000 </r>
       <r>   25.5095    0.0000 </r>
       <r>   29.9409    0.0000 </r>
       <r>   31.7351    0.0000 </r>
       <r>   34.3855    0.0000 </r>
       <r>   35.0349    0.0000 </r>
       <r>   39.0131    0.0000 </r>
       <r>   41.3592    0.0000 </r>
       <r>   45.8552    0.0000 </r>
       <r>   46.5755    0.0000 </r>
       <r>   48.2023    0.0000 </r>
       <r>   49.2389    0.0000 </r>
       <r>   51.3612    0.0000 </r>
       <r>   52.3992    0.0000 </r>
       <r>   56.8541    0.0000 </r>
       <r>   58.8791    0.0000 </r>
       <r>   59.0603    0.0000 </r>
       <r>   59.5292    0.0000 </r>
       <r>   63.0758    0.0000 </r>
       <r>   63.0800    0.0000 </r>
       <r>   64.7683    0.0000 </r>
       <r>   65.5823    0.0000 </r>
       <r>   66.7643    0.0000 </r>
       <r>   66.9681    0.0000 </r>
       <r>   69.2452    0.0000 </r>
       <r>   69.8969    0.0000 </r>
       <r>   72.8056    0.0000 </r>
      </set>
      <set comment="kpoint 13">
       <r>    3.7109    1.0000 </r>
       <r>    3.8220    1.0000 </r>
       <r>    4.1888    1.0000 </r>
       <r>    5.1029    1.0000 </r>
       <r>    6.0628    1.0000 </r>
       <r>    6.5462    1.0000 </r>
       <r>    6.8678    1.0000 </r>
       <r>    7.9898    1.0027 </r>
       <r>    9.0848   -0.0000 </r>
       <r>    9.6166   -0.0000 </r>
       <r>   11.2504   -0.0000 </r>
       <r>   18.1529    0.0000 </r>
       <r>   18.3596    0.0000 </r>
       <r>   21.4893    0.0000 </r>
       <r>   23.7110    0.0000 </r>
       <r>   27.2875    0.0000 </r>
       <r>   29.9669    0.0000 </r>
       <r>   30.7132    0.0000 </r>
       <r>   33.7305    0.0000 </r>
       <r>   41.3451    0.0000 </r>
       <r>   41.8800    0.0000 </r>
       <r>   45.6961    0.0000 </r>
       <r>   47.6978    0.0000 </r>
       <r>   49.5755    0.0000 </r>
       <r>   50.2498    0.0000 </r>
       <r>   52.2683    0.0000 </r>
       <r>   53.6702    0.0000 </r>
       <r>   54.9051    0.0000 </r>
       <r>   58.1242    0.0000 </r>
       <r>   59.6740    0.0000 </r>
       <r>   61.8645    0.0000 </r>
       <r>   63.1876    0.0000 </r>
       <r>   64.0195    0.0000 </r>
       <r>   66.2630    0.0000 </r>
       <r>   67.6747    0.0000 </r>
       <r>   67.7840    0.0000 </r>
       <r>   69.6738    0.0000 </r>
       <r>   70.3400    0.0000 </r>
       <r>   72.1512    0.0000 </r>
       <r>   73.8418    0.0000 </r>
      </set>
      <set comment="kpoint 14">
       <r>    3.6640    1.0000 </r>
       <r>    3.8476    1.0000 </r>
       <r>    4.0912    1.0000 </r>
       <r>    5.7588    1.0000 </r>
       <r>    6.0175    1.0000 </r>
       <r>    6.4095    1.0000 </r>
       <r>    6.8697    1.0000 </r>
       <r>    8.8666   -0.0061 </r>
       <r>    9.0086   -0.0003 </r>
       <r>    9.5972   -0.0000 </r>
       <r>   13.0539   -0.0000 </r>
       <r>   16.4323    0.0000 </r>
       <r>   20.7316    0.0000 </r>
       <r>   21.7027    0.0000 </r>
       <r>   22.7555    0.0000 </r>
       <r>   24.5500    0.0000 </r>
       <r>   27.6076    0.0000 </r>
       <r>   29.2588    0.0000 </r>
       <r>   33.0553    0.0000 </r>
       <r>   41.9359    0.0000 </r>
       <r>   43.6036    0.0000 </r>
       <r>   45.7973    0.0000 </r>
       <r>   46.9653    0.0000 </r>
       <r>   48.2877    0.0000 </r>
       <r>   52.3019    0.0000 </r>
       <r>   52.7974    0.0000 </r>
       <r>   54.3675    0.0000 </r>
       <r>   55.6296    0.0000 </r>
       <r>   59.6170    0.0000 </r>
       <r>   60.4325    0.0000 </r>
       <r>   61.2482    0.0000 </r>
       <r>   63.4419    0.0000 </r>
       <r>   63.8685    0.0000 </r>
       <r>   64.6169    0.0000 </r>
       <r>   68.4544    0.0000 </r>
       <r>   69.6785    0.0000 </r>
       <r>   70.7361    0.0000 </r>
       <r>   71.9320    0.0000 </r>
       <r>   72.1629    0.0000 </r>
       <r>   72.2784    0.0000 </r>
      </set>
      <set comment="kpoint 15">
       <r>    3.8316    1.0000 </r>
       <r>    4.3990    1.0000 </r>
       <r>    4.7697    1.0000 </r>
       <r>    4.8161    1.0000 </r>
       <r>    5.8738    1.0000 </r>
       <r>    6.3685    1.0000 </r>
       <r>    6.9057    1.0000 </r>
       <r>    8.3050    0.9691 </r>
       <r>    8.8532   -0.0077 </r>
       <r>    9.5482   -0.0000 </r>
       <r>   13.2282   -0.0000 </r>
       <r>   18.6722    0.0000 </r>
       <r>   19.3247    0.0000 </r>
       <r>   20.7845    0.0000 </r>
       <r>   22.5276    0.0000 </r>
       <r>   26.5101    0.0000 </r>
       <r>   26.8890    0.0000 </r>
       <r>   29.4395    0.0000 </r>
       <r>   30.3168    0.0000 </r>
       <r>   43.0667    0.0000 </r>
       <r>   44.0616    0.0000 </r>
       <r>   48.6464    0.0000 </r>
       <r>   49.4963    0.0000 </r>
       <r>   49.7800    0.0000 </r>
       <r>   50.0022    0.0000 </r>
       <r>   50.6301    0.0000 </r>
       <r>   53.6239    0.0000 </r>
       <r>   56.0772    0.0000 </r>
       <r>   56.2845    0.0000 </r>
       <r>   60.2479    0.0000 </r>
       <r>   60.6486    0.0000 </r>
       <r>   63.4362    0.0000 </r>
       <r>   63.9833    0.0000 </r>
       <r>   64.5133    0.0000 </r>
       <r>   68.6817    0.0000 </r>
       <r>   69.7708    0.0000 </r>
       <r>   69.9327    0.0000 </r>
       <r>   70.8264    0.0000 </r>
       <r>   72.0610    0.0000 </r>
       <r>   74.1666    0.0000 </r>
      </set>
      <set comment="kpoint 16">
       <r>    3.8758    1.0000 </r>
       <r>    4.5086    1.0000 </r>
       <r>    4.6476    1.0000 </r>
       <r>    5.2222    1.0000 </r>
       <r>    5.9634    1.0000 </r>
       <r>    5.9861    1.0000 </r>
       <r>    7.0735    1.0000 </r>
       <r>    8.7644   -0.0245 </r>
       <r>    8.7675   -0.0238 </r>
       <r>    9.1474   -0.0000 </r>
       <r>   15.1133    0.0000 </r>
       <r>   16.6677    0.0000 </r>
       <r>   18.9390    0.0000 </r>
       <r>   22.9065    0.0000 </r>
       <r>   23.5071    0.0000 </r>
       <r>   24.3966    0.0000 </r>
       <r>   26.4315    0.0000 </r>
       <r>   27.6549    0.0000 </r>
       <r>   29.6967    0.0000 </r>
       <r>   43.3978    0.0000 </r>
       <r>   46.6835    0.0000 </r>
       <r>   47.6052    0.0000 </r>
       <r>   48.7567    0.0000 </r>
       <r>   49.1777    0.0000 </r>
       <r>   50.6809    0.0000 </r>
       <r>   52.0352    0.0000 </r>
       <r>   55.4081    0.0000 </r>
       <r>   55.9715    0.0000 </r>
       <r>   56.2411    0.0000 </r>
       <r>   59.6053    0.0000 </r>
       <r>   60.5055    0.0000 </r>
       <r>   61.2346    0.0000 </r>
       <r>   63.9240    0.0000 </r>
       <r>   63.9993    0.0000 </r>
       <r>   68.2310    0.0000 </r>
       <r>   69.9487    0.0000 </r>
       <r>   71.1604    0.0000 </r>
       <r>   71.6511    0.0000 </r>
       <r>   72.4790    0.0000 </r>
       <r>   73.2354    0.0000 </r>
      </set>
      <set comment="kpoint 17">
       <r>   -1.1045    1.0000 </r>
       <r>    2.6547    1.0000 </r>
       <r>    5.6446    1.0000 </r>
       <r>    6.5475    1.0000 </r>
       <r>    6.5476    1.0000 </r>
       <r>    6.8868    1.0000 </r>
       <r>    6.8868    1.0000 </r>
       <r>    7.1972    1.0000 </r>
       <r>    8.2081    1.0354 </r>
       <r>    8.2081    1.0354 </r>
       <r>    9.3436   -0.0000 </r>
       <r>    9.3437   -0.0000 </r>
       <r>   17.1185    0.0000 </r>
       <r>   31.9784    0.0000 </r>
       <r>   33.4994    0.0000 </r>
       <r>   36.2796    0.0000 </r>
       <r>   40.1942    0.0000 </r>
       <r>   40.1942    0.0000 </r>
       <r>   40.8144    0.0000 </r>
       <r>   40.8144    0.0000 </r>
       <r>   41.1397    0.0000 </r>
       <r>   42.9785    0.0000 </r>
       <r>   42.9785    0.0000 </r>
       <r>   44.3159    0.0000 </r>
       <r>   46.9132    0.0000 </r>
       <r>   46.9132    0.0000 </r>
       <r>   48.3987    0.0000 </r>
       <r>   52.3595    0.0000 </r>
       <r>   52.3596    0.0000 </r>
       <r>   54.0916    0.0000 </r>
       <r>   54.0916    0.0000 </r>
       <r>   56.1612    0.0000 </r>
       <r>   62.7051    0.0000 </r>
       <r>   64.3972    0.0000 </r>
       <r>   64.6323    0.0000 </r>
       <r>   64.6326    0.0000 </r>
       <r>   67.0946    0.0000 </r>
       <r>   67.0995    0.0000 </r>
       <r>   67.0996    0.0000 </r>
       <r>   68.1770    0.0000 </r>
      </set>
      <set comment="kpoint 18">
       <r>   -0.7361    1.0000 </r>
       <r>    2.9473    1.0000 </r>
       <r>    5.7052    1.0000 </r>
       <r>    6.3522    1.0000 </r>
       <r>    6.4187    1.0000 </r>
       <r>    6.7783    1.0000 </r>
       <r>    6.7935    1.0000 </r>
       <r>    7.1013    1.0000 </r>
       <r>    8.0162    1.0044 </r>
       <r>    8.0803    1.0126 </r>
       <r>    9.3766   -0.0000 </r>
       <r>   10.3850   -0.0000 </r>
       <r>   17.1744    0.0000 </r>
       <r>   32.0248    0.0000 </r>
       <r>   32.8314    0.0000 </r>
       <r>   35.0886    0.0000 </r>
       <r>   37.1213    0.0000 </r>
       <r>   38.0879    0.0000 </r>
       <r>   39.5139    0.0000 </r>
       <r>   40.8384    0.0000 </r>
       <r>   42.2083    0.0000 </r>
       <r>   43.7544    0.0000 </r>
       <r>   44.0802    0.0000 </r>
       <r>   44.8120    0.0000 </r>
       <r>   48.1210    0.0000 </r>
       <r>   48.4764    0.0000 </r>
       <r>   49.8124    0.0000 </r>
       <r>   50.0075    0.0000 </r>
       <r>   52.5732    0.0000 </r>
       <r>   55.4839    0.0000 </r>
       <r>   56.4313    0.0000 </r>
       <r>   57.9630    0.0000 </r>
       <r>   61.2649    0.0000 </r>
       <r>   63.5628    0.0000 </r>
       <r>   64.1114    0.0000 </r>
       <r>   64.4984    0.0000 </r>
       <r>   65.8275    0.0000 </r>
       <r>   67.7937    0.0000 </r>
       <r>   68.2686    0.0000 </r>
       <r>   69.1007    0.0000 </r>
      </set>
      <set comment="kpoint 19">
       <r>    0.2911    1.0000 </r>
       <r>    3.6229    1.0000 </r>
       <r>    5.2291    1.0000 </r>
       <r>    5.6091    1.0000 </r>
       <r>    6.1542    1.0000 </r>
       <r>    6.7970    1.0000 </r>
       <r>    7.4015    1.0000 </r>
       <r>    7.6101    1.0000 </r>
       <r>    7.6741    1.0000 </r>
       <r>    7.8361    1.0001 </r>
       <r>    9.4250   -0.0000 </r>
       <r>   12.1810   -0.0000 </r>
       <r>   17.3902    0.0000 </r>
       <r>   28.7424    0.0000 </r>
       <r>   32.9301    0.0000 </r>
       <r>   33.9551    0.0000 </r>
       <r>   34.0656    0.0000 </r>
       <r>   34.4876    0.0000 </r>
       <r>   39.0614    0.0000 </r>
       <r>   40.5851    0.0000 </r>
       <r>   41.1810    0.0000 </r>
       <r>   41.6163    0.0000 </r>
       <r>   45.3887    0.0000 </r>
       <r>   46.5167    0.0000 </r>
       <r>   49.4074    0.0000 </r>
       <r>   49.8291    0.0000 </r>
       <r>   51.0254    0.0000 </r>
       <r>   53.6533    0.0000 </r>
       <r>   55.6083    0.0000 </r>
       <r>   58.1655    0.0000 </r>
       <r>   59.1979    0.0000 </r>
       <r>   59.7950    0.0000 </r>
       <r>   60.7443    0.0000 </r>
       <r>   61.8173    0.0000 </r>
       <r>   62.9319    0.0000 </r>
       <r>   63.7196    0.0000 </r>
       <r>   66.2177    0.0000 </r>
       <r>   68.6627    0.0000 </r>
       <r>   68.7826    0.0000 </r>
       <r>   71.1216    0.0000 </r>
      </set>
      <set comment="kpoint 20">
       <r>    1.6814    1.0000 </r>
       <r>    3.8639    1.0000 </r>
       <r>    4.3342    1.0000 </r>
       <r>    5.5954    1.0000 </r>
       <r>    5.9682    1.0000 </r>
       <r>    6.9312    1.0000 </r>
       <r>    7.3767    1.0000 </r>
       <r>    7.8368    1.0001 </r>
       <r>    8.3854    0.7598 </r>
       <r>    8.5695    0.0823 </r>
       <r>    9.4427   -0.0000 </r>
       <r>   14.0711    0.0000 </r>
       <r>   17.8993    0.0000 </r>
       <r>   24.5998    0.0000 </r>
       <r>   29.7435    0.0000 </r>
       <r>   31.4229    0.0000 </r>
       <r>   32.4039    0.0000 </r>
       <r>   34.3538    0.0000 </r>
       <r>   37.6274    0.0000 </r>
       <r>   39.8689    0.0000 </r>
       <r>   40.0773    0.0000 </r>
       <r>   42.2412    0.0000 </r>
       <r>   43.3903    0.0000 </r>
       <r>   46.5247    0.0000 </r>
       <r>   52.8535    0.0000 </r>
       <r>   53.5780    0.0000 </r>
       <r>   54.5028    0.0000 </r>
       <r>   54.5639    0.0000 </r>
       <r>   58.2396    0.0000 </r>
       <r>   58.7287    0.0000 </r>
       <r>   60.0701    0.0000 </r>
       <r>   61.4925    0.0000 </r>
       <r>   61.6314    0.0000 </r>
       <r>   61.9122    0.0000 </r>
       <r>   63.7506    0.0000 </r>
       <r>   65.7081    0.0000 </r>
       <r>   66.9527    0.0000 </r>
       <r>   69.0729    0.0000 </r>
       <r>   69.5034    0.0000 </r>
       <r>   71.2221    0.0000 </r>
      </set>
      <set comment="kpoint 21">
       <r>    2.7284    1.0000 </r>
       <r>    3.4583    1.0000 </r>
       <r>    3.8380    1.0000 </r>
       <r>    5.5265    1.0000 </r>
       <r>    6.5360    1.0000 </r>
       <r>    6.7947    1.0000 </r>
       <r>    7.0932    1.0000 </r>
       <r>    9.2619   -0.0000 </r>
       <r>    9.3029   -0.0000 </r>
       <r>    9.3451   -0.0000 </r>
       <r>    9.5304   -0.0000 </r>
       <r>   15.5917    0.0000 </r>
       <r>   18.5633    0.0000 </r>
       <r>   21.5514    0.0000 </r>
       <r>   26.3369    0.0000 </r>
       <r>   29.3990    0.0000 </r>
       <r>   29.6623    0.0000 </r>
       <r>   33.7459    0.0000 </r>
       <r>   36.8213    0.0000 </r>
       <r>   38.8768    0.0000 </r>
       <r>   40.5665    0.0000 </r>
       <r>   41.9754    0.0000 </r>
       <r>   43.6704    0.0000 </r>
       <r>   46.5418    0.0000 </r>
       <r>   52.1282    0.0000 </r>
       <r>   55.8114    0.0000 </r>
       <r>   56.2727    0.0000 </r>
       <r>   58.1894    0.0000 </r>
       <r>   58.7863    0.0000 </r>
       <r>   60.6160    0.0000 </r>
       <r>   61.2083    0.0000 </r>
       <r>   63.0473    0.0000 </r>
       <r>   63.0515    0.0000 </r>
       <r>   64.0615    0.0000 </r>
       <r>   64.9737    0.0000 </r>
       <r>   66.4672    0.0000 </r>
       <r>   68.6487    0.0000 </r>
       <r>   69.9133    0.0000 </r>
       <r>   70.8142    0.0000 </r>
       <r>   71.3693    0.0000 </r>
      </set>
      <set comment="kpoint 22">
       <r>    2.9674    1.0000 </r>
       <r>    3.1056    1.0000 </r>
       <r>    3.6973    1.0000 </r>
       <r>    5.5949    1.0000 </r>
       <r>    6.7414    1.0000 </r>
       <r>    6.9318    1.0000 </r>
       <r>    7.2256    1.0000 </r>
       <r>    9.3853   -0.0000 </r>
       <r>    9.9149   -0.0000 </r>
       <r>   10.0308   -0.0000 </r>
       <r>   11.1680   -0.0000 </r>
       <r>   14.8748    0.0000 </r>
       <r>   19.3689    0.0000 </r>
       <r>   21.2992    0.0000 </r>
       <r>   24.0500    0.0000 </r>
       <r>   26.8484    0.0000 </r>
       <r>   28.2579    0.0000 </r>
       <r>   33.1407    0.0000 </r>
       <r>   36.5183    0.0000 </r>
       <r>   37.9963    0.0000 </r>
       <r>   41.4406    0.0000 </r>
       <r>   42.1916    0.0000 </r>
       <r>   43.8656    0.0000 </r>
       <r>   47.2172    0.0000 </r>
       <r>   49.8042    0.0000 </r>
       <r>   56.2822    0.0000 </r>
       <r>   56.5707    0.0000 </r>
       <r>   59.4641    0.0000 </r>
       <r>   61.0310    0.0000 </r>
       <r>   62.3230    0.0000 </r>
       <r>   63.2582    0.0000 </r>
       <r>   63.5640    0.0000 </r>
       <r>   64.4316    0.0000 </r>
       <r>   65.5683    0.0000 </r>
       <r>   67.3081    0.0000 </r>
       <r>   68.6804    0.0000 </r>
       <r>   69.2740    0.0000 </r>
       <r>   70.3416    0.0000 </r>
       <r>   72.1584    0.0000 </r>
       <r>   72.1966    0.0000 </r>
      </set>
      <set comment="kpoint 23">
       <r>   -0.0340    1.0000 </r>
       <r>    3.4589    1.0000 </r>
       <r>    5.5287    1.0000 </r>
       <r>    5.6232    1.0000 </r>
       <r>    6.3757    1.0000 </r>
       <r>    6.5095    1.0000 </r>
       <r>    7.2435    1.0000 </r>
       <r>    7.4967    1.0000 </r>
       <r>    7.6666    1.0000 </r>
       <r>    8.0195    1.0047 </r>
       <r>    9.3741   -0.0000 </r>
       <r>   11.6892   -0.0000 </r>
       <r>   17.3131    0.0000 </r>
       <r>   30.4001    0.0000 </r>
       <r>   32.0756    0.0000 </r>
       <r>   33.1978    0.0000 </r>
       <r>   35.2379    0.0000 </r>
       <r>   37.9389    0.0000 </r>
       <r>   38.2520    0.0000 </r>
       <r>   38.6974    0.0000 </r>
       <r>   40.9607    0.0000 </r>
       <r>   45.4339    0.0000 </r>
       <r>   45.9764    0.0000 </r>
       <r>   46.5971    0.0000 </r>
       <r>   47.1846    0.0000 </r>
       <r>   48.5129    0.0000 </r>
       <r>   48.8360    0.0000 </r>
       <r>   53.9512    0.0000 </r>
       <r>   55.9893    0.0000 </r>
       <r>   57.1846    0.0000 </r>
       <r>   57.5958    0.0000 </r>
       <r>   59.7567    0.0000 </r>
       <r>   59.8769    0.0000 </r>
       <r>   63.2007    0.0000 </r>
       <r>   63.3943    0.0000 </r>
       <r>   63.6514    0.0000 </r>
       <r>   65.1435    0.0000 </r>
       <r>   68.4244    0.0000 </r>
       <r>   69.1392    0.0000 </r>
       <r>   70.4150    0.0000 </r>
      </set>
      <set comment="kpoint 24">
       <r>    1.2147    1.0000 </r>
       <r>    4.0844    1.0000 </r>
       <r>    4.6439    1.0000 </r>
       <r>    5.3256    1.0000 </r>
       <r>    6.0718    1.0000 </r>
       <r>    6.7161    1.0000 </r>
       <r>    7.2597    1.0000 </r>
       <r>    7.6196    1.0000 </r>
       <r>    8.1904    1.0347 </r>
       <r>    8.4589    0.4645 </r>
       <r>    9.3585   -0.0000 </r>
       <r>   13.4523   -0.0000 </r>
       <r>   17.7201    0.0000 </r>
       <r>   26.7212    0.0000 </r>
       <r>   29.5512    0.0000 </r>
       <r>   31.6997    0.0000 </r>
       <r>   33.6045    0.0000 </r>
       <r>   35.6282    0.0000 </r>
       <r>   37.2019    0.0000 </r>
       <r>   38.9858    0.0000 </r>
       <r>   40.3332    0.0000 </r>
       <r>   44.3099    0.0000 </r>
       <r>   45.3510    0.0000 </r>
       <r>   47.0858    0.0000 </r>
       <r>   49.3740    0.0000 </r>
       <r>   50.2584    0.0000 </r>
       <r>   52.7174    0.0000 </r>
       <r>   55.7624    0.0000 </r>
       <r>   57.9967    0.0000 </r>
       <r>   58.9786    0.0000 </r>
       <r>   59.9643    0.0000 </r>
       <r>   61.0101    0.0000 </r>
       <r>   61.2076    0.0000 </r>
       <r>   62.3448    0.0000 </r>
       <r>   63.5245    0.0000 </r>
       <r>   64.1032    0.0000 </r>
       <r>   65.9404    0.0000 </r>
       <r>   68.8641    0.0000 </r>
       <r>   70.0015    0.0000 </r>
       <r>   70.8306    0.0000 </r>
      </set>
      <set comment="kpoint 25">
       <r>    2.5589    1.0000 </r>
       <r>    3.8819    1.0000 </r>
       <r>    4.0488    1.0000 </r>
       <r>    5.3994    1.0000 </r>
       <r>    6.1691    1.0000 </r>
       <r>    6.6074    1.0000 </r>
       <r>    7.2237    1.0000 </r>
       <r>    7.9774    1.0021 </r>
       <r>    9.0860   -0.0000 </r>
       <r>    9.2516   -0.0000 </r>
       <r>    9.6762   -0.0000 </r>
       <r>   15.2409    0.0000 </r>
       <r>   18.5174    0.0000 </r>
       <r>   22.8668    0.0000 </r>
       <r>   27.6452    0.0000 </r>
       <r>   28.2600    0.0000 </r>
       <r>   32.0682    0.0000 </r>
       <r>   32.9660    0.0000 </r>
       <r>   37.8659    0.0000 </r>
       <r>   38.4422    0.0000 </r>
       <r>   39.8656    0.0000 </r>
       <r>   43.6254    0.0000 </r>
       <r>   45.0036    0.0000 </r>
       <r>   47.9056    0.0000 </r>
       <r>   51.2880    0.0000 </r>
       <r>   52.8396    0.0000 </r>
       <r>   55.1128    0.0000 </r>
       <r>   56.8694    0.0000 </r>
       <r>   58.1377    0.0000 </r>
       <r>   59.3685    0.0000 </r>
       <r>   60.8303    0.0000 </r>
       <r>   62.6755    0.0000 </r>
       <r>   63.3809    0.0000 </r>
       <r>   64.0072    0.0000 </r>
       <r>   64.9231    0.0000 </r>
       <r>   65.9675    0.0000 </r>
       <r>   68.3719    0.0000 </r>
       <r>   69.7880    0.0000 </r>
       <r>   70.3777    0.0000 </r>
       <r>   70.8081    0.0000 </r>
      </set>
      <set comment="kpoint 26">
       <r>    3.1364    1.0000 </r>
       <r>    3.4418    1.0000 </r>
       <r>    3.8564    1.0000 </r>
       <r>    5.5168    1.0000 </r>
       <r>    6.6071    1.0000 </r>
       <r>    6.6864    1.0000 </r>
       <r>    6.9839    1.0000 </r>
       <r>    9.0849   -0.0000 </r>
       <r>    9.2475   -0.0000 </r>
       <r>    9.7238   -0.0000 </r>
       <r>   11.0368   -0.0000 </r>
       <r>   16.0260    0.0000 </r>
       <r>   19.0642    0.0000 </r>
       <r>   21.3658    0.0000 </r>
       <r>   25.0434    0.0000 </r>
       <r>   26.3958    0.0000 </r>
       <r>   28.8466    0.0000 </r>
       <r>   31.9412    0.0000 </r>
       <r>   37.1216    0.0000 </r>
       <r>   38.5920    0.0000 </r>
       <r>   40.5528    0.0000 </r>
       <r>   43.2000    0.0000 </r>
       <r>   45.9595    0.0000 </r>
       <r>   47.2293    0.0000 </r>
       <r>   51.4384    0.0000 </r>
       <r>   53.9708    0.0000 </r>
       <r>   55.9741    0.0000 </r>
       <r>   58.3080    0.0000 </r>
       <r>   60.0277    0.0000 </r>
       <r>   60.8307    0.0000 </r>
       <r>   62.0403    0.0000 </r>
       <r>   63.2168    0.0000 </r>
       <r>   63.6719    0.0000 </r>
       <r>   66.0475    0.0000 </r>
       <r>   67.5290    0.0000 </r>
       <r>   68.0210    0.0000 </r>
       <r>   68.8237    0.0000 </r>
       <r>   70.3760    0.0000 </r>
       <r>   70.9541    0.0000 </r>
       <r>   72.9263    0.0000 </r>
      </set>
      <set comment="kpoint 27">
       <r>    3.1684    1.0000 </r>
       <r>    3.2473    1.0000 </r>
       <r>    3.8430    1.0000 </r>
       <r>    5.5814    1.0000 </r>
       <r>    6.5883    1.0000 </r>
       <r>    6.9813    1.0000 </r>
       <r>    7.0072    1.0000 </r>
       <r>    9.2336   -0.0000 </r>
       <r>    9.7507   -0.0000 </r>
       <r>    9.7916   -0.0000 </r>
       <r>   12.3361   -0.0000 </r>
       <r>   14.7658    0.0000 </r>
       <r>   20.1920    0.0000 </r>
       <r>   21.3145    0.0000 </r>
       <r>   24.0769    0.0000 </r>
       <r>   25.4194    0.0000 </r>
       <r>   27.2339    0.0000 </r>
       <r>   31.5902    0.0000 </r>
       <r>   36.6888    0.0000 </r>
       <r>   38.5294    0.0000 </r>
       <r>   41.2600    0.0000 </r>
       <r>   43.0416    0.0000 </r>
       <r>   45.8284    0.0000 </r>
       <r>   48.2481    0.0000 </r>
       <r>   49.5876    0.0000 </r>
       <r>   54.4188    0.0000 </r>
       <r>   56.7901    0.0000 </r>
       <r>   58.7621    0.0000 </r>
       <r>   61.2749    0.0000 </r>
       <r>   61.4667    0.0000 </r>
       <r>   63.5013    0.0000 </r>
       <r>   63.5121    0.0000 </r>
       <r>   64.3728    0.0000 </r>
       <r>   65.6935    0.0000 </r>
       <r>   66.7197    0.0000 </r>
       <r>   69.8601    0.0000 </r>
       <r>   70.3027    0.0000 </r>
       <r>   70.7459    0.0000 </r>
       <r>   71.3750    0.0000 </r>
       <r>   72.9677    0.0000 </r>
      </set>
      <set comment="kpoint 28">
       <r>    2.5368    1.0000 </r>
       <r>    4.1207    1.0000 </r>
       <r>    4.6320    1.0000 </r>
       <r>    4.7815    1.0000 </r>
       <r>    6.1910    1.0000 </r>
       <r>    6.3348    1.0000 </r>
       <r>    7.3378    1.0000 </r>
       <r>    7.3858    1.0000 </r>
       <r>    9.0777   -0.0000 </r>
       <r>    9.1227   -0.0000 </r>
       <r>    9.7623   -0.0000 </r>
       <r>   15.1165    0.0000 </r>
       <r>   18.5553    0.0000 </r>
       <r>   24.5855    0.0000 </r>
       <r>   25.5916    0.0000 </r>
       <r>   29.6855    0.0000 </r>
       <r>   31.3744    0.0000 </r>
       <r>   34.7675    0.0000 </r>
       <r>   35.2016    0.0000 </r>
       <r>   38.1583    0.0000 </r>
       <r>   41.9532    0.0000 </r>
       <r>   46.4531    0.0000 </r>
       <r>   46.4986    0.0000 </r>
       <r>   48.0062    0.0000 </r>
       <r>   48.5806    0.0000 </r>
       <r>   52.0670    0.0000 </r>
       <r>   52.2326    0.0000 </r>
       <r>   56.9692    0.0000 </r>
       <r>   57.6765    0.0000 </r>
       <r>   59.2815    0.0000 </r>
       <r>   60.7561    0.0000 </r>
       <r>   63.0173    0.0000 </r>
       <r>   63.0426    0.0000 </r>
       <r>   64.6069    0.0000 </r>
       <r>   65.0025    0.0000 </r>
       <r>   66.9640    0.0000 </r>
       <r>   67.4685    0.0000 </r>
       <r>   69.1792    0.0000 </r>
       <r>   70.0842    0.0000 </r>
       <r>   70.7875    0.0000 </r>
      </set>
      <set comment="kpoint 29">
       <r>    3.5999    1.0000 </r>
       <r>    3.9111    1.0000 </r>
       <r>    4.2193    1.0000 </r>
       <r>    5.0823    1.0000 </r>
       <r>    6.1111    1.0000 </r>
       <r>    6.5245    1.0000 </r>
       <r>    6.9029    1.0000 </r>
       <r>    8.0232    1.0050 </r>
       <r>    9.0056   -0.0003 </r>
       <r>    9.6496   -0.0000 </r>
       <r>   11.2674   -0.0000 </r>
       <r>   16.8274    0.0000 </r>
       <r>   19.6920    0.0000 </r>
       <r>   21.6277    0.0000 </r>
       <r>   23.7843    0.0000 </r>
       <r>   26.9892    0.0000 </r>
       <r>   29.6178    0.0000 </r>
       <r>   31.1343    0.0000 </r>
       <r>   34.1189    0.0000 </r>
       <r>   39.8092    0.0000 </r>
       <r>   42.7641    0.0000 </r>
       <r>   45.9185    0.0000 </r>
       <r>   47.3802    0.0000 </r>
       <r>   49.7171    0.0000 </r>
       <r>   50.2228    0.0000 </r>
       <r>   51.4150    0.0000 </r>
       <r>   54.7298    0.0000 </r>
       <r>   55.1413    0.0000 </r>
       <r>   57.8504    0.0000 </r>
       <r>   60.1802    0.0000 </r>
       <r>   61.8529    0.0000 </r>
       <r>   63.1899    0.0000 </r>
       <r>   63.9583    0.0000 </r>
       <r>   66.2114    0.0000 </r>
       <r>   67.4987    0.0000 </r>
       <r>   68.0516    0.0000 </r>
       <r>   69.0635    0.0000 </r>
       <r>   70.7703    0.0000 </r>
       <r>   71.6868    0.0000 </r>
       <r>   72.5761    0.0000 </r>
      </set>
      <set comment="kpoint 30">
       <r>    3.5526    1.0000 </r>
       <r>    3.8736    1.0000 </r>
       <r>    4.2560    1.0000 </r>
       <r>    5.4219    1.0000 </r>
       <r>    6.2291    1.0000 </r>
       <r>    6.4085    1.0000 </r>
       <r>    6.9990    1.0000 </r>
       <r>    8.8737   -0.0054 </r>
       <r>    8.9271   -0.0019 </r>
       <r>    9.6183   -0.0000 </r>
       <r>   13.0683   -0.0000 </r>
       <r>   16.3076    0.0000 </r>
       <r>   20.3111    0.0000 </r>
       <r>   22.1279    0.0000 </r>
       <r>   22.6327    0.0000 </r>
       <r>   24.7619    0.0000 </r>
       <r>   27.9850    0.0000 </r>
       <r>   28.9282    0.0000 </r>
       <r>   33.4982    0.0000 </r>
       <r>   41.2043    0.0000 </r>
       <r>   43.1202    0.0000 </r>
       <r>   44.9444    0.0000 </r>
       <r>   47.9646    0.0000 </r>
       <r>   49.0046    0.0000 </r>
       <r>   51.7169    0.0000 </r>
       <r>   52.1710    0.0000 </r>
       <r>   55.1215    0.0000 </r>
       <r>   56.4873    0.0000 </r>
       <r>   59.7809    0.0000 </r>
       <r>   60.2399    0.0000 </r>
       <r>   61.4070    0.0000 </r>
       <r>   63.4284    0.0000 </r>
       <r>   63.6685    0.0000 </r>
       <r>   64.8805    0.0000 </r>
       <r>   68.3982    0.0000 </r>
       <r>   69.3352    0.0000 </r>
       <r>   70.8293    0.0000 </r>
       <r>   70.9941    0.0000 </r>
       <r>   71.6737    0.0000 </r>
       <r>   72.7317    0.0000 </r>
      </set>
      <set comment="kpoint 31">
       <r>    3.8270    1.0000 </r>
       <r>    4.4179    1.0000 </r>
       <r>    4.7289    1.0000 </r>
       <r>    4.8251    1.0000 </r>
       <r>    5.9578    1.0000 </r>
       <r>    6.2816    1.0000 </r>
       <r>    6.9422    1.0000 </r>
       <r>    8.3514    0.8676 </r>
       <r>    8.7697   -0.0232 </r>
       <r>    9.5791   -0.0000 </r>
       <r>   13.2700   -0.0000 </r>
       <r>   18.2273    0.0000 </r>
       <r>   19.4011    0.0000 </r>
       <r>   20.9152    0.0000 </r>
       <r>   22.8720    0.0000 </r>
       <r>   26.2701    0.0000 </r>
       <r>   26.5154    0.0000 </r>
       <r>   29.9451    0.0000 </r>
       <r>   30.7829    0.0000 </r>
       <r>   41.5389    0.0000 </r>
       <r>   44.8207    0.0000 </r>
       <r>   47.8245    0.0000 </r>
       <r>   48.0401    0.0000 </r>
       <r>   50.4799    0.0000 </r>
       <r>   50.5555    0.0000 </r>
       <r>   51.6772    0.0000 </r>
       <r>   54.3977    0.0000 </r>
       <r>   55.9708    0.0000 </r>
       <r>   56.2874    0.0000 </r>
       <r>   60.3459    0.0000 </r>
       <r>   60.8740    0.0000 </r>
       <r>   63.4081    0.0000 </r>
       <r>   63.7244    0.0000 </r>
       <r>   64.8097    0.0000 </r>
       <r>   68.5864    0.0000 </r>
       <r>   69.6904    0.0000 </r>
       <r>   69.8113    0.0000 </r>
       <r>   71.1971    0.0000 </r>
       <r>   72.1308    0.0000 </r>
       <r>   73.9143    0.0000 </r>
      </set>
      <set comment="kpoint 32">
       <r>    3.8839    1.0000 </r>
       <r>    4.5299    1.0000 </r>
       <r>    4.6803    1.0000 </r>
       <r>    5.1422    1.0000 </r>
       <r>    5.9320    1.0000 </r>
       <r>    6.0196    1.0000 </r>
       <r>    7.0978    1.0000 </r>
       <r>    8.6791   -0.0343 </r>
       <r>    8.8031   -0.0159 </r>
       <r>    9.1826   -0.0000 </r>
       <r>   15.1911    0.0000 </r>
       <r>   16.6553    0.0000 </r>
       <r>   18.9363    0.0000 </r>
       <r>   22.7283    0.0000 </r>
       <r>   22.7349    0.0000 </r>
       <r>   25.0422    0.0000 </r>
       <r>   26.3091    0.0000 </r>
       <r>   28.0488    0.0000 </r>
       <r>   30.1991    0.0000 </r>
       <r>   42.4089    0.0000 </r>
       <r>   45.4163    0.0000 </r>
       <r>   47.5874    0.0000 </r>
       <r>   48.1543    0.0000 </r>
       <r>   50.3733    0.0000 </r>
       <r>   51.2580    0.0000 </r>
       <r>   53.0610    0.0000 </r>
       <r>   55.0887    0.0000 </r>
       <r>   56.2787    0.0000 </r>
       <r>   56.5389    0.0000 </r>
       <r>   59.3783    0.0000 </r>
       <r>   60.4427    0.0000 </r>
       <r>   61.5655    0.0000 </r>
       <r>   63.9012    0.0000 </r>
       <r>   63.9925    0.0000 </r>
       <r>   68.1991    0.0000 </r>
       <r>   69.8413    0.0000 </r>
       <r>   71.0902    0.0000 </r>
       <r>   71.4450    0.0000 </r>
       <r>   72.8940    0.0000 </r>
       <r>   73.3399    0.0000 </r>
      </set>
      <set comment="kpoint 33">
       <r>   -0.8494    1.0000 </r>
       <r>    2.5630    1.0000 </r>
       <r>    5.5804    1.0000 </r>
       <r>    6.5323    1.0000 </r>
       <r>    6.5324    1.0000 </r>
       <r>    6.6576    1.0000 </r>
       <r>    6.8375    1.0000 </r>
       <r>    6.8375    1.0000 </r>
       <r>    8.3186    0.9450 </r>
       <r>    8.3186    0.9449 </r>
       <r>    9.3079   -0.0000 </r>
       <r>    9.3079   -0.0000 </r>
       <r>   18.1336    0.0000 </r>
[...]
       <r>   24.9255    0.0000 </r>
       <r>   25.6849    0.0000 </r>
       <r>   29.6867    0.0000 </r>
       <r>   30.8392    0.0000 </r>
       <r>   35.9206    0.0000 </r>
       <r>   37.0139    0.0000 </r>
       <r>   39.4675    0.0000 </r>
       <r>   41.0931    0.0000 </r>
       <r>   46.7871    0.0000 </r>
       <r>   47.2301    0.0000 </r>
       <r>   56.7803    0.0000 </r>
       <r>   57.2520    0.0000 </r>
       <r>   57.6841    0.0000 </r>
       <r>   58.8621    0.0000 </r>
       <r>   60.9055    0.0000 </r>
       <r>   61.3972    0.0000 </r>
       <r>   61.7129    0.0000 </r>
       <r>   62.1880    0.0000 </r>
       <r>   64.2968    0.0000 </r>
       <r>   64.6319    0.0000 </r>
       <r>   67.1512    0.0000 </r>
       <r>   67.4515    0.0000 </r>
       <r>   69.5959    0.0000 </r>
       <r>   69.7732    0.0000 </r>
       <r>   70.9728    0.0000 </r>
       <r>   71.8691    0.0000 </r>
      </set>
      <set comment="kpoint 95">
       <r>    3.8949    1.0000 </r>
       <r>    3.9814    1.0000 </r>
       <r>    5.0360    1.0000 </r>
       <r>    5.2766    1.0000 </r>
       <r>    5.7791    1.0000 </r>
       <r>    6.0218    1.0000 </r>
       <r>    7.3634    1.0000 </r>
       <r>    7.5869    1.0000 </r>
       <r>    9.3857   -0.0000 </r>
       <r>    9.6141   -0.0000 </r>
       <r>   14.2092    0.0000 </r>
       <r>   14.7499    0.0000 </r>
       <r>   20.9588    0.0000 </r>
       <r>   21.4204    0.0000 </r>
       <r>   23.0356    0.0000 </r>
       <r>   23.4753    0.0000 </r>
       <r>   29.9192    0.0000 </r>
       <r>   31.5695    0.0000 </r>
       <r>   35.9228    0.0000 </r>
       <r>   37.3708    0.0000 </r>
       <r>   39.1750    0.0000 </r>
       <r>   40.3638    0.0000 </r>
       <r>   49.1343    0.0000 </r>
       <r>   49.5873    0.0000 </r>
       <r>   54.0004    0.0000 </r>
       <r>   54.0489    0.0000 </r>
       <r>   59.2001    0.0000 </r>
       <r>   60.8669    0.0000 </r>
       <r>   61.0285    0.0000 </r>
       <r>   61.5870    0.0000 </r>
       <r>   62.6761    0.0000 </r>
       <r>   62.8366    0.0000 </r>
       <r>   62.9430    0.0000 </r>
       <r>   63.4318    0.0000 </r>
       <r>   66.4328    0.0000 </r>
       <r>   66.7563    0.0000 </r>
       <r>   69.4602    0.0000 </r>
       <r>   69.7341    0.0000 </r>
       <r>   70.2031    0.0000 </r>
       <r>   70.2201    0.0000 </r>
      </set>
      <set comment="kpoint 96">
       <r>    4.1364    1.0000 </r>
       <r>    4.2914    1.0000 </r>
       <r>    4.9555    1.0000 </r>
       <r>    5.0549    1.0000 </r>
       <r>    5.7784    1.0000 </r>
       <r>    5.9341    1.0000 </r>
       <r>    7.4160    1.0000 </r>
       <r>    7.5818    1.0000 </r>
       <r>    9.3652   -0.0000 </r>
       <r>    9.4468   -0.0000 </r>
       <r>   16.1814    0.0000 </r>
       <r>   16.3443    0.0000 </r>
       <r>   19.1615    0.0000 </r>
       <r>   19.5342    0.0000 </r>
       <r>   22.3698    0.0000 </r>
       <r>   22.8137    0.0000 </r>
       <r>   31.6631    0.0000 </r>
       <r>   32.5617    0.0000 </r>
       <r>   34.9771    0.0000 </r>
       <r>   35.1734    0.0000 </r>
       <r>   38.9196    0.0000 </r>
       <r>   39.7543    0.0000 </r>
       <r>   50.4653    0.0000 </r>
       <r>   51.1095    0.0000 </r>
       <r>   55.3019    0.0000 </r>
       <r>   55.7388    0.0000 </r>
       <r>   58.5493    0.0000 </r>
       <r>   58.9132    0.0000 </r>
       <r>   60.7770    0.0000 </r>
       <r>   61.2209    0.0000 </r>
       <r>   62.5337    0.0000 </r>
       <r>   62.8804    0.0000 </r>
       <r>   64.0315    0.0000 </r>
       <r>   64.0812    0.0000 </r>
       <r>   65.0416    0.0000 </r>
       <r>   66.5338    0.0000 </r>
       <r>   68.1789    0.0000 </r>
       <r>   69.3563    0.0000 </r>
       <r>   71.9990    0.0000 </r>
       <r>   72.3172    0.0000 </r>
      </set>
     </set>
    </set>
   </array>
  </eigenvalues>
  <separator name="orbital magnetization" >
   <v name="MAGDIPOLOUT">      0.00000000      0.00000000      0.00000000</v>
  </separator>
  <dos>
   <i name="efermi">      8.45047065 </i>
   <total>
    <array>
     <dimension dim="1">gridpoints</dimension>
     <dimension dim="2">spin</dimension>
     <field>energy</field>
     <field>total</field>
     <field>integrated</field>
     <set>
      <set comment="spin 1">
       <r>    -4.9588     0.0000     0.0000 </r>
       <r>    -4.6825     0.0000     0.0000 </r>
       <r>    -4.4062     0.0000     0.0000 </r>
       <r>    -4.1299     0.0000     0.0000 </r>
       <r>    -3.8535     0.0000     0.0000 </r>
       <r>    -3.5772     0.0000     0.0000 </r>
       <r>    -3.3009     0.0000     0.0000 </r>
       <r>    -3.0246    -0.0000    -0.0000 </r>
       <r>    -2.7483    -0.0000    -0.0000 </r>
       <r>    -2.4720    -0.0000    -0.0000 </r>
       <r>    -2.1957    -0.0000    -0.0000 </r>
       <r>    -1.9194    -0.0000    -0.0000 </r>
       <r>    -1.6431    -0.0000    -0.0000 </r>
       <r>    -1.3668    -0.0004    -0.0001 </r>
       <r>    -1.0904     0.0088     0.0023 </r>
       <r>    -0.8141     0.0438     0.0144 </r>
       <r>    -0.5378     0.0961     0.0410 </r>
       <r>    -0.2615     0.0532     0.0557 </r>
       <r>     0.0148     0.1308     0.0918 </r>
       <r>     0.2911     0.1571     0.1352 </r>
       <r>     0.5674     0.1912     0.1880 </r>
       <r>     0.8437     0.0869     0.2121 </r>
       <r>     1.1200     0.1774     0.2611 </r>
       <r>     1.3964     0.3091     0.3465 </r>
       <r>     1.6727     0.2723     0.4217 </r>
       <r>     1.9490     0.3284     0.5125 </r>
       <r>     2.2253     0.2290     0.5757 </r>
       <r>     2.5016     0.3811     0.6810 </r>
       <r>     2.7779     1.3791     1.0621 </r>
       <r>     3.0542     1.8748     1.5801 </r>
       <r>     3.3305     1.8116     2.0807 </r>
       <r>     3.6068     2.6656     2.8172 </r>
       <r>     3.8832     2.3336     3.4620 </r>
       <r>     4.1595     2.3781     4.1191 </r>
       <r>     4.4358     2.1644     4.7171 </r>
       <r>     4.7121     2.8216     5.4968 </r>
       <r>     4.9884     2.5811     6.2100 </r>
       <r>     5.2647     2.8776     7.0051 </r>
       <r>     5.5410     2.0657     7.5759 </r>
       <r>     5.8173     1.9144     8.1048 </r>
       <r>     6.0936     3.0455     8.9463 </r>
       <r>     6.3700     3.2078     9.8327 </r>
       <r>     6.6463     3.1757    10.7102 </r>
       <r>     6.9226     3.2470    11.6074 </r>
       <r>     7.1989     2.7942    12.3794 </r>
       <r>     7.4752     3.2006    13.2638 </r>
       <r>     7.7515     2.8769    14.0587 </r>
       <r>     8.0278     2.7084    14.8070 </r>
       <r>     8.3041     2.9787    15.6301 </r>
       <r>     8.5804     2.4389    16.3040 </r>
       <r>     8.8568     2.6286    17.0303 </r>
       <r>     9.1331     3.7343    18.0621 </r>
       <r>     9.4094     4.2252    19.2296 </r>
       <r>     9.6857     3.4381    20.1796 </r>
       <r>     9.9620     3.2023    21.0644 </r>
       <r>    10.2383     0.6783    21.2518 </r>
       <r>    10.5146     0.2377    21.3175 </r>
       <r>    10.7909     0.4919    21.4534 </r>
       <r>    11.0672     0.5956    21.6179 </r>
       <r>    11.3435     0.6545    21.7988 </r>
       <r>    11.6199     0.7278    21.9999 </r>
       <r>    11.8962     0.4520    22.1248 </r>
       <r>    12.1725     0.3167    22.2123 </r>
       <r>    12.4488     0.3747    22.3158 </r>
       <r>    12.7251     0.3905    22.4237 </r>
       <r>    13.0014     0.3620    22.5237 </r>
       <r>    13.2777     0.5777    22.6833 </r>
       <r>    13.5540     0.5187    22.8267 </r>
       <r>    13.8303     0.3448    22.9219 </r>
       <r>    14.1067     0.4723    23.0524 </r>
       <r>    14.3830     0.4264    23.1703 </r>
       <r>    14.6593     0.1034    23.1988 </r>
       <r>    14.9356     0.3784    23.3034 </r>
       <r>    15.2119     0.3070    23.3882 </r>
       <r>    15.4882     0.4173    23.5035 </r>
       <r>    15.7645     0.2205    23.5644 </r>
       <r>    16.0408     0.2638    23.6373 </r>
       <r>    16.3171     0.3331    23.7294 </r>
       <r>    16.5935     0.4201    23.8455 </r>
       <r>    16.8698     0.3429    23.9402 </r>
       <r>    17.1461     0.2247    24.0023 </r>
       <r>    17.4224     0.2823    24.0803 </r>
       <r>    17.6987     0.1405    24.1191 </r>
       <r>    17.9750     0.1258    24.1538 </r>
       <r>    18.2513     0.1492    24.1951 </r>
       <r>    18.5276     0.2967    24.2771 </r>
       <r>    18.8039     0.3376    24.3703 </r>
       <r>    19.0803     0.3686    24.4722 </r>
       <r>    19.3566     0.3990    24.5825 </r>
       <r>    19.6329     0.8420    24.8151 </r>
       <r>    19.9092     0.8373    25.0465 </r>
       <r>    20.1855     0.7492    25.2535 </r>
       <r>    20.4618     0.6545    25.4343 </r>
       <r>    20.7381     0.2742    25.5101 </r>
       <r>    21.0144     0.7451    25.7160 </r>
       <r>    21.2907     0.5098    25.8568 </r>
       <r>    21.5671     0.8181    26.0829 </r>
       <r>    21.8434     0.7300    26.2846 </r>
       <r>    22.1197     0.8190    26.5109 </r>
       <r>    22.3960     0.5124    26.6525 </r>
       <r>    22.6723     0.3923    26.7609 </r>
       <r>    22.9486     0.8332    26.9911 </r>
       <r>    23.2249     0.5978    27.1563 </r>
       <r>    23.5012     0.6784    27.3437 </r>
       <r>    23.7775     0.4805    27.4765 </r>
       <r>    24.0539     0.5928    27.6403 </r>
       <r>    24.3302     0.6196    27.8115 </r>
       <r>    24.6065     0.3576    27.9103 </r>
       <r>    24.8828     0.8879    28.1556 </r>
       <r>    25.1591     0.6043    28.3226 </r>
       <r>    25.4354     0.4599    28.4497 </r>
       <r>    25.7117     0.7555    28.6584 </r>
       <r>    25.9880     0.5159    28.8010 </r>
       <r>    26.2643     0.6051    28.9682 </r>
       <r>    26.5406     1.1129    29.2757 </r>
       <r>    26.8170     1.0810    29.5744 </r>
       <r>    27.0933     0.6836    29.7633 </r>
       <r>    27.3696     0.7490    29.9702 </r>
       <r>    27.6459     0.7373    30.1739 </r>
       <r>    27.9222     0.5271    30.3196 </r>
       <r>    28.1985     1.2660    30.6694 </r>
       <r>    28.4748     0.8341    30.8999 </r>
       <r>    28.7511     0.8865    31.1448 </r>
       <r>    29.0274     0.8945    31.3920 </r>
       <r>    29.3038     0.7153    31.5896 </r>
       <r>    29.5801     0.8513    31.8248 </r>
       <r>    29.8564     1.3911    32.2092 </r>
       <r>    30.1327     1.0658    32.5037 </r>
       <r>    30.4090     0.5555    32.6572 </r>
       <r>    30.6853     0.4636    32.7853 </r>
       <r>    30.9616     0.8613    33.0233 </r>
       <r>    31.2379     1.1341    33.3367 </r>
       <r>    31.5142     0.5829    33.4977 </r>
       <r>    31.7906     0.9162    33.7509 </r>
       <r>    32.0669     0.9827    34.0224 </r>
       <r>    32.3432     0.7496    34.2296 </r>
       <r>    32.6195     0.5739    34.3881 </r>
       <r>    32.8958     0.6238    34.5605 </r>
       <r>    33.1721     0.8498    34.7953 </r>
       <r>    33.4484     0.4818    34.9284 </r>
       <r>    33.7247     0.5587    35.0828 </r>
       <r>    34.0010     0.6388    35.2593 </r>
       <r>    34.2774     0.8563    35.4959 </r>
       <r>    34.5537     0.6203    35.6673 </r>
       <r>    34.8300     0.5155    35.8097 </r>
       <r>    35.1063     0.6815    35.9980 </r>
       <r>    35.3826     0.6522    36.1782 </r>
       <r>    35.6589     0.6934    36.3698 </r>
       <r>    35.9352     0.8716    36.6107 </r>
       <r>    36.2115     0.5776    36.7703 </r>
       <r>    36.4878     0.7499    36.9775 </r>
       <r>    36.7642     0.6559    37.1587 </r>
       <r>    37.0405     0.5436    37.3089 </r>
       <r>    37.3168     0.8464    37.5428 </r>
       <r>    37.5931     0.9247    37.7983 </r>
       <r>    37.8694     1.0598    38.0911 </r>
       <r>    38.1457     0.8720    38.3320 </r>
       <r>    38.4220     0.6468    38.5108 </r>
       <r>    38.6983     0.7883    38.7286 </r>
       <r>    38.9746     1.1596    39.0490 </r>
       <r>    39.2509     0.8773    39.2914 </r>
       <r>    39.5273     0.5881    39.4539 </r>
       <r>    39.8036     1.1769    39.7791 </r>
       <r>    40.0799     1.2518    40.1250 </r>
       <r>    40.3562     0.8472    40.3591 </r>
       <r>    40.6325     1.1598    40.6795 </r>
       <r>    40.9088     0.8041    40.9017 </r>
       <r>    41.1851     0.8485    41.1362 </r>
       <r>    41.4614     0.7659    41.3478 </r>
       <r>    41.7377     0.5039    41.4870 </r>
       <r>    42.0141     0.5330    41.6343 </r>
       <r>    42.2904     0.8703    41.8748 </r>
       <r>    42.5667     0.8216    42.1018 </r>
       <r>    42.8430     0.3765    42.2058 </r>
       <r>    43.1193     0.7251    42.4062 </r>
       <r>    43.3956     0.7951    42.6259 </r>
       <r>    43.6719     1.2115    42.9606 </r>
       <r>    43.9482     0.6675    43.1451 </r>
       <r>    44.2245     0.7523    43.3529 </r>
       <r>    44.5009     0.7031    43.5472 </r>
       <r>    44.7772     0.7071    43.7426 </r>
       <r>    45.0535     0.6632    43.9258 </r>
       <r>    45.3298     0.8019    44.1474 </r>
       <r>    45.6061     0.6519    44.3275 </r>
       <r>    45.8824     0.9157    44.5806 </r>
       <r>    46.1587     1.1550    44.8997 </r>
       <r>    46.4350     0.9502    45.1622 </r>
       <r>    46.7113     1.2824    45.5166 </r>
       <r>    46.9877     1.0382    45.8035 </r>
       <r>    47.2640     0.8890    46.0491 </r>
       <r>    47.5403     0.9187    46.3030 </r>
       <r>    47.8166     0.9545    46.5667 </r>
       <r>    48.0929     1.3750    46.9466 </r>
       <r>    48.3692     1.1481    47.2638 </r>
       <r>    48.6455     1.0289    47.5481 </r>
       <r>    48.9218     0.9483    47.8102 </r>
       <r>    49.1981     0.7890    48.0282 </r>
       <r>    49.4745     0.7930    48.2473 </r>
       <r>    49.7508     0.9424    48.5077 </r>
       <r>    50.0271     0.9564    48.7720 </r>
       <r>    50.3034     0.9402    49.0317 </r>
       <r>    50.5797     1.0429    49.3199 </r>
       <r>    50.8560     0.5475    49.4712 </r>
       <r>    51.1323     0.5580    49.6254 </r>
       <r>    51.4086     0.9472    49.8871 </r>
       <r>    51.6849     1.2774    50.2400 </r>
       <r>    51.9612     1.0045    50.5176 </r>
       <r>    52.2376     0.6483    50.6967 </r>
       <r>    52.5139     0.8051    50.9191 </r>
       <r>    52.7902     1.1371    51.2333 </r>
       <r>    53.0665     1.2094    51.5675 </r>
       <r>    53.3428     0.7439    51.7731 </r>
       <r>    53.6191     0.7974    51.9934 </r>
       <r>    53.8954     0.9145    52.2461 </r>
       <r>    54.1717     1.1962    52.5766 </r>
       <r>    54.4480     0.7643    52.7878 </r>
       <r>    54.7244     0.7365    52.9913 </r>
       <r>    55.0007     1.4207    53.3839 </r>
       <r>    55.2770     1.4479    53.7840 </r>
       <r>    55.5533     1.1351    54.0976 </r>
       <r>    55.8296     1.1769    54.4228 </r>
       <r>    56.1059     1.2585    54.7705 </r>
       <r>    56.3822     0.9402    55.0303 </r>
       <r>    56.6585     0.9777    55.3005 </r>
       <r>    56.9348     1.5166    55.7195 </r>
       <r>    57.2112     0.7796    55.9349 </r>
       <r>    57.4875     0.6868    56.1247 </r>
       <r>    57.7638     1.0685    56.4199 </r>
       <r>    58.0401     1.1950    56.7501 </r>
       <r>    58.3164     1.4526    57.1515 </r>
       <r>    58.5927     1.1553    57.4707 </r>
       <r>    58.8690     1.3362    57.8399 </r>
       <r>    59.1453     1.1385    58.1545 </r>
       <r>    59.4216     1.4563    58.5569 </r>
       <r>    59.6980     1.4184    58.9488 </r>
       <r>    59.9743     1.5708    59.3828 </r>
       <r>    60.2506     1.5050    59.7987 </r>
       <r>    60.5269     1.0936    60.1009 </r>
       <r>    60.8032     1.1994    60.4323 </r>
       <r>    61.0795     1.7390    60.9127 </r>
       <r>    61.3558     2.5144    61.6075 </r>
       <r>    61.6321     1.8786    62.1266 </r>
       <r>    61.9084     1.6909    62.5938 </r>
       <r>    62.1848     1.5627    63.0256 </r>
       <r>    62.4611     1.7198    63.5008 </r>
       <r>    62.7374     1.8094    64.0007 </r>
       <r>    63.0137     2.4941    64.6899 </r>
       <r>    63.2900     2.9770    65.5125 </r>
       <r>    63.5663     2.5534    66.2180 </r>
       <r>    63.8426     1.9252    66.7500 </r>
       <r>    64.1189     2.2318    67.3666 </r>
       <r>    64.3952     1.5113    67.7842 </r>
       <r>    64.6716     1.0887    68.0850 </r>
       <r>    64.9479     1.8002    68.5824 </r>
       <r>    65.2242     1.7973    69.0790 </r>
       <r>    65.5005     1.1971    69.4098 </r>
       <r>    65.7768     1.0898    69.7109 </r>
       <r>    66.0531     1.6486    70.1664 </r>
       <r>    66.3294     1.6201    70.6141 </r>
       <r>    66.6057     1.2656    70.9638 </r>
       <r>    66.8820     1.3142    71.3269 </r>
       <r>    67.1583     1.2770    71.6798 </r>
       <r>    67.4347     1.5161    72.0987 </r>
       <r>    67.7110     1.8301    72.6044 </r>
       <r>    67.9873     1.0749    72.9014 </r>
       <r>    68.2636     1.2526    73.2475 </r>
       <r>    68.5399     1.3051    73.6081 </r>
       <r>    68.8162     1.3056    73.9689 </r>
       <r>    69.0925     1.5403    74.3945 </r>
       <r>    69.3688     1.5156    74.8133 </r>
       <r>    69.6451     1.6946    75.2815 </r>
       <r>    69.9215     1.7483    75.7646 </r>
       <r>    70.1978     1.0652    76.0589 </r>
       <r>    70.4741     1.4654    76.4638 </r>
       <r>    70.7504     1.4347    76.8603 </r>
       <r>    71.0267     1.7747    77.3506 </r>
       <r>    71.3030     1.2572    77.6980 </r>
       <r>    71.5793     0.7622    77.9086 </r>
       <r>    71.8556     1.4026    78.2962 </r>
       <r>    72.1319     1.0173    78.5773 </r>
       <r>    72.4083     1.2925    78.9344 </r>
       <r>    72.6846     0.9562    79.1986 </r>
       <r>    72.9609     1.0521    79.4893 </r>
       <r>    73.2372     0.6545    79.6702 </r>
       <r>    73.5135     0.6716    79.8557 </r>
       <r>    73.7898     0.3218    79.9446 </r>
       <r>    74.0661     0.1329    79.9813 </r>
       <r>    74.3424     0.0705    80.0008 </r>
       <r>    74.6187    -0.0028    80.0000 </r>
       <r>    74.8951    -0.0001    80.0000 </r>
       <r>    75.1714    -0.0000    80.0000 </r>
       <r>    75.4477    -0.0000    80.0000 </r>
       <r>    75.7240     0.0000    80.0000 </r>
       <r>    76.0003     0.0000    80.0000 </r>
       <r>    76.2766     0.0000    80.0000 </r>
       <r>    76.5529     0.0000    80.0000 </r>
       <r>    76.8292     0.0000    80.0000 </r>
       <r>    77.1055     0.0000    80.0000 </r>
       <r>    77.3819     0.0000    80.0000 </r>
       <r>    77.6582     0.0000    80.0000 </r>
       <r>    77.9345     0.0000    80.0000 </r>
      </set>
     </set>
    </array>
   </total>
  </dos>
 </calculation>
 <structure name="finalpos" >
  <crystal>
   <varray name="basis" >
    <v>       2.26010000       0.00000000       0.00000000 </v>
    <v>      -1.13005000       1.95730402       0.00000000 </v>
    <v>       0.00000000       0.00000000       4.05654000 </v>
   </varray>
   <i name="volume">     17.94492737 </i>
   <varray name="rec_basis" >
    <v>       0.44245830       0.25545342       0.00000000 </v>
    <v>       0.00000000       0.51090684       0.00000000 </v>
    <v>       0.00000000       0.00000000       0.24651550 </v>
   </varray>
  </crystal>
  <varray name="positions" >
   <v>       0.00000000       0.00000000       0.00000000 </v>
   <v>       0.33333333       0.66666667       0.50000000 </v>
  </varray>
 </structure>
</modeling>
