unknown system                          
   1.00000000000000     
     2.260100    0.000000    0.000000
    -1.130050    1.957304    0.000000
     0.000000    0.000000    3.857690
   Fe
     2
Direct
  0.000000  0.000000  0.000000
  0.333333  0.666667  0.500000
 
   20   20   32
  143.06      135.99      116.87      90.906      64.022      40.897      24.126      14.240      9.9842      8.8467    
  8.5661      8.8468      9.9843      14.240      24.126      40.897      64.022      90.906      116.87      135.99    
  135.99      135.99      122.93      100.54      74.432      49.901      30.513      17.779      11.295      9.1005    
  8.5467      8.5466      9.1003      11.295      17.779      30.511      49.900      74.434      100.54      122.94    
  116.88      122.90      116.87      100.54      78.264      55.138      35.273      21.016      12.824      9.4596    
  8.5426      8.2730      8.5423      9.4597      12.824      21.015      35.271      55.137      78.266      100.54    
  90.904      100.46      100.46      90.906      74.432      55.138      37.036      22.950      14.062      9.8716    
  8.5485      8.0641      8.0640      8.5485      9.8722      14.062      22.950      37.034      55.135      74.429    
  64.016      74.329      78.122      74.334      64.022      49.901      35.273      22.950      14.537      10.153    
  8.5624      7.9331      7.7070      7.9330      8.5624      10.153      14.539      22.952      35.273      49.897    
  40.896      49.818      54.990      54.992      49.821      40.897      30.513      21.016      14.062      10.153    
  8.5717      7.8729      7.4974      7.4974      7.8726      8.5709      10.153      14.064      21.020      30.515    
  24.130      30.486      35.193      36.930      35.191      30.482      24.126      17.779      12.824      9.8716    
  8.5624      7.8729      7.4296      7.2802      7.4299      7.8722      8.5602      9.8696      12.824      17.782    
  14.240      17.801      21.029      22.945      22.943      21.024      17.797      14.240      11.295      9.4596    
  8.5485      7.9331      7.4974      7.2802      7.2807      7.4982      7.9329      8.5463      9.4558      11.292    
  9.9794      11.339      12.899      14.150      14.627      14.148      12.899      11.342      9.9843      9.1005    
  8.5426      8.0641      7.7070      7.4974      7.4299      7.4982      7.7089      8.0661      8.5426      9.0972    
  8.8466      9.1518      9.5586      10.007      10.307      10.307      10.009      9.5625      9.1550      8.8467    
  8.5467      8.2730      8.0640      7.9330      7.8726      7.8722      7.9329      8.0661      8.2770      8.5499    
  8.5708      8.6052      8.6503      8.6987      8.7431      8.7646      8.7452      8.7008      8.6501      8.6019    
  8.5661      8.5466      8.5423      8.5485      8.5624      8.5709      8.5602      8.5463      8.5426      8.5499    
  8.8466      8.6052      8.3859      8.2236      8.1288      8.0895      8.0899      8.1288      8.2215      8.3819    
  8.6021      8.8468      9.1003      9.4597      9.8722      10.153      10.153      9.8696      9.4558      9.0972    
  9.9794      9.1518      8.6503      8.2236      7.9096      7.7292      7.6720      7.7285      7.9077      8.2216    
  8.6503      9.1551      9.9843      11.295      12.824      14.062      14.539      14.064      12.824      11.292    
  14.240      11.339      9.5586      8.6987      8.1288      7.7292      7.5319      7.5315      7.7284      8.1289    
  8.7009      9.5623      11.342      14.240      17.779      21.015      22.950      22.953      21.020      17.782    
  24.130      17.801      12.899      10.007      8.7431      8.0895      7.6720      7.5315      7.6718      8.0902    
  8.7452      10.009      12.899      17.798      24.126      30.511      35.271      37.034      35.273      30.515    
  40.896      30.486      21.029      14.150      10.307      8.7646      8.0899      7.7285      7.7284      8.0902    
  8.7654      10.307      14.147      21.025      30.483      40.897      49.900      55.137      55.135      49.897    
  64.016      49.818      35.193      22.945      14.627      10.307      8.7452      8.1288      7.9077      8.1289    
  8.7452      10.307      14.625      22.943      35.193      49.822      64.022      74.434      78.266      74.429    
  90.904      74.329      54.990      36.930      22.943      14.148      10.009      8.7008      8.2215      8.2216    
  8.7009      10.009      14.147      22.943      36.932      54.994      74.332      90.906      100.54      100.54    
  116.88      100.46      78.122      54.992      35.191      21.024      12.899      9.5625      8.6501      8.3819    
  8.6503      9.5623      12.899      21.025      35.193      54.994      78.120      100.46      116.87      122.94    
  135.99      122.90      100.46      74.334      49.821      30.482      17.797      11.342      9.1550      8.6019    
  8.6021      9.1551      11.342      17.798      30.483      49.822      74.332      100.46      122.90      135.99    
  135.01      128.35      110.32      85.804      60.407      38.587      22.834      13.640      9.7535      8.7138    
  8.4383      8.7139      9.7536      13.640      22.834      38.587      60.408      85.804      110.32      128.35    
  128.35      128.35      116.03      94.893      70.228      47.060      28.803      16.899      10.923      8.9399    
  8.4080      8.4079      8.9398      10.923      16.898      28.801      47.059      70.230      94.898      116.04    
  110.33      116.01      110.32      94.893      73.844      51.993      33.263      19.896      12.305      9.2466    
  8.3969      8.1339      8.3966      9.2466      12.305      19.896      33.261      51.992      73.846      94.897    
  85.802      94.836      94.837      85.804      70.228      51.993      34.916      21.694      13.431      9.6030    
  8.3987      7.9273      7.9271      8.3986      9.6035      13.432      21.694      34.914      51.990      70.225    
  60.401      70.156      73.743      70.161      60.407      47.060      33.263      21.694      13.866      9.8487    
  8.4070      7.7987      7.5806      7.7986      8.4070      9.8493      13.867      21.696      33.263      47.056    
  38.587      47.013      51.904      51.906      47.016      38.587      28.803      19.896      13.431      9.8487    
  8.4131      7.7398      7.3783      7.3784      7.7396      8.4124      9.8486      13.433      19.900      28.805    
  22.838      28.811      33.248      34.887      33.246      28.808      22.834      16.899      12.305      9.6030    
  8.4070      7.7398      7.3132      7.1700      7.3134      7.7392      8.4050      9.6011      12.305      16.902    
  13.640      16.953      19.972      21.769      21.767      19.967      16.950      13.640      10.923      9.2466    
  8.3987      7.7987      7.3783      7.1700      7.1705      7.3791      7.7985      8.3967      9.2430      10.920    
  9.7490      10.996      12.437      13.596      14.039      13.595      12.437      10.999      9.7535      8.9399    
  8.3969      7.9273      7.5806      7.3784      7.3134      7.3791      7.5823      7.9292      8.3968      8.9368    
  8.7137      9.0177      9.3969      9.8093      10.085      10.086      9.8117      9.4005      9.0207      8.7138    
  8.4080      8.1339      7.9271      7.7986      7.7396      7.7392      7.7985      7.9292      8.1377      8.4110    
  8.4427      8.4916      8.5532      8.6169      8.6686      8.6913      8.6705      8.6189      8.5530      8.4886    
  8.4383      8.4079      8.3966      8.3986      8.4070      8.4124      8.4050      8.3967      8.3969      8.4110    
  8.7137      8.4916      8.2944      8.1531      8.0742      8.0434      8.0438      8.0743      8.1511      8.2907    
  8.4887      8.7139      8.9398      9.2466      9.6035      9.8493      9.8486      9.6011      9.2430      8.9368    
  9.7490      9.0177      8.5532      8.1531      7.8624      7.6975      7.6455      7.6968      7.8607      8.1512    
  8.5532      9.0208      9.7536      10.923      12.305      13.432      13.867      13.433      12.305      10.920    
  13.640      10.996      9.3969      8.6169      8.0742      7.6975      7.5126      7.5122      7.6967      8.0743    
  8.6189      9.4004      10.999      13.640      16.898      19.896      21.694      21.696      19.900      16.902    
  22.838      16.953      12.437      9.8093      8.6686      8.0434      7.6455      7.5122      7.6453      8.0440    
  8.6705      9.8112      12.436      16.950      22.834      28.801      33.261      34.914      33.263      28.805    
  38.587      28.811      19.972      13.596      10.085      8.6913      8.0438      7.6968      7.6967      8.0440    
  8.6921      10.085      13.594      19.968      28.809      38.587      47.059      51.992      51.990      47.056    
  60.401      47.013      33.248      21.769      14.039      10.086      8.6705      8.0743      7.8607      8.0743    
  8.6705      10.085      14.038      21.767      33.248      47.017      60.408      70.230      73.846      70.225    
  85.802      70.156      51.904      34.887      21.767      13.595      9.8117      8.6189      8.1511      8.1512    
  8.6189      9.8112      13.594      21.767      34.888      51.907      70.159      85.804      94.898      94.897    
  110.33      94.836      73.743      51.906      33.246      19.967      12.437      9.4005      8.5530      8.2907    
  8.5532      9.4004      12.436      19.968      33.248      51.907      73.741      94.831      110.32      116.04    
  128.35      116.01      94.837      70.161      47.016      28.808      16.950      10.999      9.0207      8.4886    
  8.4887      9.0208      10.999      16.950      28.809      47.017      70.159      94.831      116.01      128.35    
  113.54      107.95      92.799      72.145      50.743      32.452      19.452      12.110      9.1741      8.3507    
  8.0918      8.3507      9.1741      12.110      19.452      32.452      50.743      72.145      92.799      107.95    
  107.95      107.95      97.596      79.785      58.980      39.488      24.292      14.624      9.9888      8.5202    
  8.0337      8.0336      8.5201      9.9889      14.624      24.291      39.487      58.982      79.789      97.601    
  92.802      97.594      92.799      79.785      62.014      43.599      27.941      16.982      10.987      8.7068    
  8.0023      7.7598      8.0020      8.7068      10.987      16.981      27.939      43.597      62.016      79.789    
  72.143      79.780      79.780      72.145      58.980      43.599      29.298      18.409      11.821      8.9266    
  7.9907      7.5582      7.5581      7.9906      8.9269      11.822      18.409      29.296      43.596      58.978    
  50.738      58.988      62.025      58.992      50.743      39.488      27.941      18.409      12.146      9.0835    
  7.9893      7.4344      7.2390      7.4343      7.9893      9.0840      12.148      18.411      27.941      39.485    
  32.451      39.537      43.665      43.666      39.539      32.452      24.292      16.982      11.821      9.0835    
  7.9899      7.3780      7.0556      7.0557      7.3779      7.9894      9.0834      11.823      16.985      24.294    
  19.456      24.394      28.095      29.467      28.093      24.391      19.452      14.624      10.987      8.9266    
  7.9893      7.3780      6.9970      6.8709      6.9973      7.3776      7.9878      8.9251      10.987      14.627    
  12.110      14.762      17.217      18.691      18.690      17.213      14.759      12.110      9.9888      8.7068    
  7.9907      7.4344      7.0556      6.8709      6.8712      7.0562      7.4343      7.9891      8.7039      9.9864    
  9.1703      10.134      11.261      12.180      12.533      12.179      11.261      10.137      9.1741      8.5202    
  8.0023      7.5582      7.2390      7.0557      6.9973      7.0562      7.2402      7.5597      8.0023      8.5177    
  8.3505      8.6635      8.9845      9.3100      9.5252      9.5257      9.3118      8.9874      8.6659      8.3507    
  8.0337      7.7598      7.5581      7.4343      7.3779      7.3776      7.4343      7.5597      7.7629      8.0362    
  8.0954      8.1788      8.2777      8.3750      8.4479      8.4756      8.4494      8.3765      8.2775      8.1763    
  8.0918      8.0336      8.0020      7.9906      7.9893      7.9894      7.9878      7.9891      8.0023      8.0362    
  8.3505      8.1788      8.0361      7.9440      7.9012      7.8890      7.8893      7.9013      7.9424      8.0331    
  8.1764      8.3507      8.5201      8.7068      8.9269      9.0840      9.0834      8.9251      8.7040      8.5177    
  9.1703      8.6635      8.2777      7.9440      7.7093      7.5803      7.5405      7.5798      7.7080      7.9425    
  8.2777      8.6660      9.1741      9.9889      10.987      11.822      12.148      11.823      10.987      9.9864    
  12.110      10.134      8.9845      8.3750      7.9012      7.5803      7.4254      7.4251      7.5797      7.9013    
  8.3766      8.9873      10.137      12.110      14.624      16.981      18.409      18.411      16.985      14.627    
  19.456      14.762      11.261      9.3100      8.4479      7.8890      7.5406      7.4251      7.5403      7.8894    
  8.4494      9.3115      11.261      14.759      19.452      24.291      27.939      29.296      27.941      24.294    
  32.451      24.394      17.217      12.180      9.5252      8.4757      7.8893      7.5798      7.5797      7.8894    
  8.4762      9.5253      12.178      17.214      24.392      32.452      39.487      43.597      43.596      39.485    
  50.738      39.537      28.095      18.691      12.533      9.5257      8.4494      7.9012      7.7080      7.9013    
  8.4494      9.5253      12.532      18.690      28.095      39.540      50.743      58.982      62.016      58.978    
  72.143      58.988      43.665      29.467      18.690      12.179      9.3118      8.3765      7.9424      7.9425    
  8.3766      9.3115      12.178      18.690      29.468      43.667      58.990      72.145      79.789      79.789    
  92.802      79.780      62.025      43.666      28.093      17.213      11.261      8.9874      8.2775      8.0331    
  8.2777      8.9873      11.261      17.214      28.095      43.667      62.023      79.776      92.799      97.601    
  107.95      97.594      79.780      58.992      39.539      24.391      14.759      10.137      8.6659      8.1763    
  8.1764      8.6660      10.137      14.759      24.392      39.540      58.990      79.776      97.588      107.95    
  85.151      80.956      69.568      54.034      37.999      24.493      15.212      10.295      8.4903      7.8504    
  7.6221      7.8504      8.4903      10.295      15.212      24.493      37.999      54.034      69.568      80.956    
  80.958      80.956      73.163      59.746      44.101      29.583      18.540      11.853      8.9053      7.9594    
  7.5282      7.5281      7.9593      8.9054      11.853      18.539      29.583      44.102      59.749      73.166    
  69.571      73.186      69.568      59.746      46.355      32.580      21.093      13.370      9.4387      8.0476    
  7.4657      7.2571      7.4655      8.0476      9.4390      13.370      21.092      32.579      46.356      59.749    
  54.033      59.808      59.808      54.034      44.101      32.580      22.051      14.307      9.9063      8.1274    
  7.4298      7.0600      7.0599      7.4296      8.1275      9.9066      14.307      22.050      32.578      44.100    
  37.996      44.213      46.508      44.216      37.999      29.583      21.093      14.307      10.093      8.1862    
  7.4126      6.9385      6.7765      6.9385      7.4126      8.1865      10.094      14.308      21.093      29.581    
  24.493      29.752      32.842      32.843      29.754      24.493      18.540      13.370      9.9063      8.1862    
  7.4077      6.8826      6.6162      6.6163      6.8826      7.4073      8.1861      9.9074      13.372      18.541    
  15.215      18.758      21.459      22.468      21.458      18.756      15.212      11.853      9.4387      8.1274    
  7.4126      6.8826      6.5652      6.4620      6.5654      6.8824      7.4116      8.1264      9.4390      11.855    
  10.295      12.091      13.801      14.844      14.843      13.799      12.090      10.295      8.9053      8.0476    
  7.4298      6.9385      6.6162      6.4620      6.4622      6.6165      6.9384      7.4287      8.0457      8.9036    
  8.4876      9.1384      9.8843      10.499      10.738      10.498      9.8843      9.1402      8.4903      7.9594    
  7.4657      7.0600      6.7765      6.6163      6.5654      6.6165      6.7773      7.0610      7.4657      7.9576    
  7.8503      8.1813      8.4781      8.7228      8.8732      8.8736      8.7239      8.4799      8.1830      7.8504    
  7.5282      7.2571      7.0599      6.9385      6.8826      6.8824      6.9384      7.0610      7.2593      7.5299    
  7.6245      7.7463      7.8826      8.0111      8.1044      8.1391      8.1054      8.0120      7.8823      7.7445    
  7.6221      7.5281      7.4655      7.4296      7.4126      7.4073      7.4116      7.4287      7.4657      7.5299    
  7.8503      7.7463      7.6702      7.6334      7.6283      7.6346      7.6348      7.6284      7.6324      7.6681    
  7.7447      7.8504      7.9593      8.0476      8.1275      8.1865      8.1861      8.1264      8.0457      7.9576    
  8.4876      8.1813      7.8826      7.6334      7.4653      7.3767      7.3504      7.3765      7.4645      7.6325    
  7.8826      8.1831      8.4903      8.9054      9.4390      9.9066      10.094      9.9074      9.4390      8.9036    
  10.295      9.1384      8.4781      8.0111      7.6283      7.3767      7.2577      7.2576      7.3764      7.6284    
  8.0121      8.4799      9.1401      10.295      11.853      13.370      14.307      14.308      13.372      11.855    
  15.215      12.091      9.8843      8.7228      8.1044      7.6346      7.3504      7.2576      7.3501      7.6348    
  8.1054      8.7237      9.8840      12.090      15.212      18.539      21.092      22.050      21.093      18.541    
  24.493      18.758      13.801      10.499      8.8732      8.1391      7.6348      7.3765      7.3764      7.6348    
  8.1394      8.8734      10.498      13.799      18.756      24.493      29.583      32.579      32.578      29.581    
  37.996      29.752      21.459      14.844      10.738      8.8736      8.1054      7.6284      7.4645      7.6284    
  8.1054      8.8734      10.737      14.843      21.459      29.754      37.999      44.102      46.356      44.100    
  54.033      44.213      32.842      22.468      14.843      10.498      8.7239      8.0120      7.6324      7.6325    
  8.0121      8.7237      10.498      14.843      22.469      32.844      44.215      54.034      59.749      59.749    
  69.571      59.808      46.508      32.843      21.458      13.799      9.8843      8.4799      7.8823      7.6681    
  7.8826      8.4799      9.8840      13.799      21.459      32.844      46.507      59.805      69.568      73.166    
  80.958      73.186      59.808      44.216      29.754      18.756      12.090      9.1402      8.1830      7.7445    
  7.7447      8.1831      9.1401      12.090      18.756      29.754      44.215      59.805      73.182      80.956    
  56.938      54.125      46.495      36.139      25.604      17.017      11.476      8.8286      7.8598      7.3289    
  7.1434      7.3289      7.8599      8.8286      11.476      17.017      25.604      36.140      46.495      54.125    
  54.126      54.125      48.886      39.897      29.520      20.120      13.309      9.5260      8.0223      7.3640    
  7.0110      7.0109      7.3639      8.0224      9.5262      13.309      20.120      29.521      39.899      48.888    
  46.497      48.932      46.495      39.897      30.976      21.977      14.765      10.253      8.1926      7.3911    
  6.9106      6.7453      6.9104      7.3911      8.1928      10.253      14.764      21.976      30.976      39.899    
  36.139      40.017      40.018      36.139      29.520      21.977      15.319      10.719      8.3508      7.4043    
  6.8418      6.5497      6.5496      6.8416      7.4043      8.3509      10.719      15.318      21.976      29.519    
  25.602      29.723      31.255      29.725      25.604      20.120      14.765      10.719      8.4169      7.4077    
  6.8019      6.4257      6.3013      6.4258      6.8019      7.4077      8.4172      10.720      14.765      20.119    
  17.016      20.395      22.412      22.412      20.396      17.017      13.309      10.253      8.3508      7.4077    
  6.7889      6.3669      6.1612      6.1613      6.3670      6.7888      7.4076      8.3514      10.254      13.310    
  11.477      13.628      15.315      15.954      15.314      13.627      11.476      9.5260      8.1926      7.4042    
  6.8019      6.3669      6.1165      6.0366      6.1167      6.3668      6.8014      7.4037      8.1928      9.5271    
  8.8285      9.8551      10.857      11.481      11.480      10.856      9.8542      8.8286      8.0223      7.3911    
  6.8418      6.4258      6.1612      6.0366      6.0367      6.1613      6.4257      6.8412      7.3901      8.0214    
  7.8583      8.3378      8.7967      9.1584      9.2978      9.1579      8.7967      8.3388      7.8598      7.3640    
  6.9106      6.5497      6.3013      6.1613      6.1167      6.1613      6.3016      6.5502      6.9106      7.3629    
  7.3288      7.6633      7.9705      8.2049      8.3312      8.3314      8.2054      7.9715      7.6642      7.3289    
  7.0110      6.7453      6.5496      6.4258      6.3670      6.3668      6.4257      6.5502      6.7465      7.0120    
  7.1448      7.3025      7.4699      7.6220      7.7299      7.7692      7.7304      7.6225      7.4697      7.3015    
  7.1434      7.0109      6.9104      6.8416      6.8019      6.7888      6.8014      6.8412      6.9106      7.0120    
  7.3288      7.3025      7.2977      7.3169      7.3481      7.3716      7.3718      7.3483      7.3163      7.2965    
  7.3016      7.3289      7.3639      7.3911      7.4043      7.4077      7.4076      7.4037      7.3901      7.3629    
  7.8582      7.6633      7.4699      7.3169      7.2208      7.1747      7.1622      7.1748      7.2205      7.3164    
  7.4699      7.6643      7.8599      8.0224      8.1928      8.3509      8.4172      8.3514      8.1928      8.0214    
  8.8285      8.3378      7.9705      7.6220      7.3481      7.1747      7.0950      7.0949      7.1746      7.3482    
  7.6226      7.9715      8.3387      8.8286      9.5262      10.253      10.719      10.720      10.254      9.5271    
  11.477      9.8551      8.7967      8.2049      7.7299      7.3716      7.1622      7.0949      7.1620      7.3717    
  7.7304      8.2053      8.7965      9.8540      11.476      13.309      14.764      15.318      14.765      13.310    
  17.017      13.628      10.857      9.1584      8.3312      7.7692      7.3718      7.1747      7.1746      7.3717    
  7.7694      8.3313      9.1578      10.856      13.627      17.017      20.120      21.976      21.976      20.119    
  25.602      20.395      15.315      11.481      9.2978      8.3314      7.7304      7.3483      7.2205      7.3482    
  7.7304      8.3313      9.2975      11.480      15.315      20.396      25.604      29.521      30.976      29.519    
  36.139      29.723      22.412      15.954      11.480      9.1579      8.2054      7.6225      7.3163      7.3164    
  7.6226      8.2053      9.1578      11.480      15.954      22.413      29.724      36.140      39.899      39.899    
  46.497      40.017      31.255      22.412      15.314      10.856      8.7967      7.9715      7.4697      7.2965    
  7.4699      7.9715      8.7965      10.856      15.315      22.413      31.255      40.016      46.495      48.888    
  54.126      48.932      40.018      29.725      20.396      13.627      9.8542      8.3388      7.6642      7.3015    
  7.3016      7.6643      8.3387      9.8540      13.627      20.396      29.724      40.016      48.930      54.125    
  34.044      32.391      27.939      21.996      16.154      11.683      9.0817      7.9377      7.2942      6.8849    
  6.7478      6.8849      7.2942      7.9377      9.0817      11.683      16.154      21.996      27.939      32.391    
  32.392      32.391      29.313      24.093      18.220      13.155      9.7841      8.1180      7.3563      6.8382    
  6.5746      6.5746      6.8382      7.3564      8.1182      9.7843      13.155      18.221      24.093      29.314    
  27.939      29.372      27.939      24.093      19.000      14.065      10.381      8.3123      7.3882      6.7984    
  6.4338      6.3133      6.4337      6.7984      7.3884      8.3124      10.381      14.065      19.000      24.093    
  21.996      24.247      24.247      21.996      18.220      14.065      10.615      8.4470      7.3975      6.7657    
  6.3300      6.1158      6.1158      6.3299      6.7657      7.3975      8.4469      10.615      14.065      18.220    
  16.153      18.477      19.353      18.478      16.154      13.155      10.381      8.4470      7.3998      6.7463    
  6.2661      5.9861      5.8961      5.9861      6.2661      6.7463      7.3998      8.4471      10.381      13.155    
  11.683      13.494      14.604      14.604      13.495      11.683      9.7841      8.3123      7.3974      6.7463    
  6.2445      5.9223      5.7703      5.7704      5.9225      6.2445      6.7463      7.3977      8.3128      9.7846    
  9.0823      10.170      11.049      11.388      11.049      10.170      9.0817      8.1180      7.3882      6.7657    
  6.2661      5.9223      5.7297      5.6688      5.7298      5.9223      6.2660      6.7656      7.3884      8.1185    
  7.9376      8.5154      9.0422      9.3675      9.3673      9.0418      8.5151      7.9377      7.3563      6.7984    
  6.3300      5.9861      5.7703      5.6688      5.6688      5.7703      5.9860      6.3298      6.7980      7.3559    
  7.2934      7.7448      8.1264      8.3817      8.4728      8.3815      8.1264      7.7453      7.2942      6.8382    
  6.4338      6.1159      5.8961      5.7704      5.7298      5.7703      5.8961      6.1160      6.4338      6.8378    
  6.8849      7.2145      7.5226      7.7625      7.8939      7.8939      7.7626      7.5229      7.2149      6.8849    
  6.5746      6.3133      6.1158      5.9861      5.9225      5.9224      5.9860      6.1160      6.3138      6.5750    
  6.7484      6.9439      7.1435      7.3203      7.4434      7.4878      7.4436      7.3204      7.1434      6.9435    
  6.7478      6.5746      6.4337      6.3299      6.2661      6.2445      6.2660      6.3298      6.4338      6.5750    
  6.8848      6.9439      7.0176      7.0995      7.1731      7.2173      7.2174      7.1732      7.0993      7.0171    
  6.9435      6.8849      6.8382      6.7984      6.7657      6.7463      6.7463      6.7656      6.7980      6.8378    
  7.2934      7.2145      7.1435      7.0995      7.0852      7.0881      7.0917      7.0882      7.0852      7.0994    
  7.1435      7.2150      7.2942      7.3564      7.3884      7.3974      7.3998      7.3977      7.3884      7.3559    
  7.9376      7.7448      7.5226      7.3203      7.1731      7.0881      7.0526      7.0526      7.0881      7.1731    
  7.3205      7.5230      7.7452      7.9377      8.1182      8.3124      8.4469      8.4471      8.3128      8.1185    
  9.0823      8.5154      8.1264      7.7625      7.4434      7.2173      7.0917      7.0526      7.0915      7.2172    
  7.4436      7.7626      8.1263      8.5149      9.0817      9.7843      10.381      10.615      10.381      9.7846    
  11.683      10.170      9.0422      8.3817      7.8939      7.4878      7.2174      7.0882      7.0881      7.2172    
  7.4878      7.8940      8.3815      9.0417      10.169      11.683      13.155      14.065      14.065      13.155    
  16.153      13.494      11.049      9.3675      8.4728      7.8939      7.4435      7.1732      7.0852      7.1731    
  7.4436      7.8940      8.4729      9.3674      11.049      13.495      16.154      18.221      19.000      18.220    
  21.996      18.477      14.604      11.388      9.3673      8.3815      7.7626      7.3204      7.0993      7.0994    
  7.3205      7.7626      8.3815      9.3674      11.388      14.604      18.477      21.996      24.093      24.093    
  27.939      24.247      19.353      14.604      11.049      9.0418      8.1264      7.5229      7.1434      7.0171    
  7.1435      7.5230      8.1263      9.0417      11.049      14.604      19.353      24.246      27.939      29.314    
  32.392      29.372      24.247      18.478      13.495      10.170      8.5151      7.7453      7.2149      6.9435    
  6.9435      7.2150      7.7452      8.5149      10.169      13.495      18.477      24.246      29.371      32.391    
  18.815      18.016      15.898      13.173      10.663      8.9232      7.9738      7.3450      6.8673      6.5835    
  6.4914      6.5835      6.8674      7.3450      7.9738      8.9232      10.663      13.173      15.898      18.016    
  18.016      18.016      16.530      14.074      11.446      9.3580      8.0980      7.3812      6.8260      6.4526    
  6.2717      6.2717      6.4526      6.8261      7.3813      8.0982      9.3580      11.446      14.074      16.530    
  15.898      16.590      15.898      14.074      11.750      9.6462      8.2116      7.3937      6.7892      6.3466    