unknown system                          
   1.00000000000000     
     2.260100    0.000000    0.000000
    -1.130050    1.957304    0.000000
     0.000000    0.000000    3.857690
   Fe
     2
Direct
  0.000000  0.000000  0.000000
  0.333333  0.666667  0.500000
 
   20   20   32
 0.14305726491E+03 0.13598933203E+03 0.11687440636E+03 0.90906380048E+02 0.64022349553E+02
 0.40896988283E+02 0.24125653956E+02 0.14240003507E+02 0.99842482054E+01 0.88467288726E+01
 0.85661478599E+01 0.88467635021E+01 0.99842784540E+01 0.14240004255E+02 0.24125647080E+02
 0.40897010676E+02 0.64022400335E+02 0.90906419564E+02 0.11687440799E+03 0.13598931527E+03
 0.13599247979E+03 0.13598932810E+03 0.12293200682E+03 0.10053797966E+03 0.74432034182E+02
 0.49900578346E+02 0.30512689217E+02 0.17778943407E+02 0.11295005103E+02 0.91004610935E+01
 0.85466961262E+01 0.85465699050E+01 0.91003395474E+01 0.11295042002E+02 0.17778541926E+02
 0.30511427749E+02 0.49899759002E+02 0.74434208092E+02 0.10054403572E+03 0.12293904908E+03
 0.11687907496E+03 0.12290309914E+03 0.11687440744E+03 0.10053798382E+03 0.78264379399E+02
 0.55138363255E+02 0.35273253525E+02 0.21015682678E+02 0.12823763737E+02 0.94595885923E+01
 0.85425666762E+01 0.82729690811E+01 0.85423062209E+01 0.94596635417E+01 0.12823992149E+02
 0.21014881483E+02 0.35271140438E+02 0.55137001400E+02 0.78266444949E+02 0.10054328807E+03
 0.90904243085E+02 0.10046279175E+03 0.10046351709E+03 0.90906388025E+02 0.74432032240E+02
 0.55138359336E+02 0.37035712888E+02 0.22950357765E+02 0.14061616582E+02 0.98716320423E+01
 0.85485273512E+01 0.80641031192E+01 0.80639581158E+01 0.85484716016E+01 0.98721889204E+01
 0.14062456120E+02 0.22950322094E+02 0.37033957219E+02 0.55135265704E+02 0.74428867094E+02
 0.64015615381E+02 0.74329053148E+02 0.78121722037E+02 0.74334343522E+02 0.64022349823E+02
 0.49900570845E+02 0.35273257276E+02 0.22950361612E+02 0.14537213555E+02 0.10152628093E+02
 0.85623589051E+01 0.79330831298E+01 0.77070495245E+01 0.79329819664E+01 0.85623668971E+01
 0.10153349886E+02 0.14539096186E+02 0.22952498573E+02 0.35273258420E+02 0.49896594483E+02
 0.40896168302E+02 0.49817890971E+02 0.54990483091E+02 0.54992212558E+02 0.49821038263E+02
 0.40896985123E+02 0.30512691403E+02 0.21015690284E+02 0.14061611253E+02 0.10152624157E+02
 0.85717217905E+01 0.78728572536E+01 0.74973654187E+01 0.74974002880E+01 0.78725634963E+01
 0.85709010609E+01 0.10152507512E+02 0.14063790225E+02 0.21019636033E+02 0.30515434642E+02
 0.24130314052E+02 0.30485523534E+02 0.35193409622E+02 0.36930106205E+02 0.35191339579E+02
 0.30481560932E+02 0.24125651551E+02 0.17778947305E+02 0.12823759609E+02 0.98716239987E+01
 0.85623647015E+01 0.78728607004E+01 0.74296249722E+01 0.72802079045E+01 0.74298690763E+01
 0.78721588122E+01 0.85602489151E+01 0.98695747508E+01 0.12823992149E+02 0.17782144135E+02
 0.14239967850E+02 0.17800846790E+02 0.21028607061E+02 0.22945262778E+02 0.22943121377E+02
 0.21023918654E+02 0.17797277584E+02 0.14240000656E+02 0.11295006697E+02 0.94595836685E+01
 0.85485317774E+01 0.79330901337E+01 0.74973594049E+01 0.72802055407E+01 0.72806819997E+01
 0.74982062568E+01 0.79329455611E+01 0.85463315272E+01 0.94557877711E+01 0.11291841078E+02
 0.99793601054E+01 0.11338716253E+02 0.12899400312E+02 0.14149600510E+02 0.14626516113E+02
 0.14148276130E+02 0.12899399119E+02 0.11341894848E+02 0.99842523795E+01 0.91004627310E+01
 0.85425645295E+01 0.80641073430E+01 0.77070451369E+01 0.74973958102E+01 0.74298763493E+01
 0.74982077928E+01 0.77089161295E+01 0.80661345954E+01 0.85425575980E+01 0.90971750283E+01
 0.88466171006E+01 0.91518292950E+01 0.95586147547E+01 0.10006664135E+02 0.10306592073E+02
 0.10307408620E+02 0.10009226285E+02 0.95624546897E+01 0.91549784531E+01 0.88467340614E+01
 0.85466904346E+01 0.82729675996E+01 0.80639609415E+01 0.79329801375E+01 0.78725694118E+01
 0.78721612810E+01 0.79329367283E+01 0.80661331973E+01 0.82770276584E+01 0.85498808255E+01
 0.85708148314E+01 0.86052063315E+01 0.86502941156E+01 0.86987312070E+01 0.87431203325E+01
 0.87645732429E+01 0.87451877839E+01 0.87008382696E+01 0.86500695324E+01 0.86019407942E+01
 0.85661454663E+01 0.85465654741E+01 0.85423131524E+01 0.85484739312E+01 0.85623647015E+01
 0.85709008573E+01 0.85602409230E+01 0.85463294307E+01 0.85425666762E+01 0.85498820861E+01
 0.88466091534E+01 0.86052057928E+01 0.83858586235E+01 0.82236062858E+01 0.81287946264E+01
 0.80895221541E+01 0.80899183830E+01 0.81288263962E+01 0.82214619138E+01 0.83818662788E+01
 0.86020819543E+01 0.88467607437E+01 0.91003430119E+01 0.94596669824E+01 0.98721814079E+01
 0.10153346812E+02 0.10152508374E+02 0.98695752818E+01 0.94557961356E+01 0.90971768553E+01
 0.99793532827E+01 0.91518290507E+01 0.86503009115E+01 0.82236059074E+01 0.79095637860E+01
 0.77292426185E+01 0.76719907011E+01 0.77284644920E+01 0.79077242386E+01 0.82215816329E+01
 0.86502974837E+01 0.91551248546E+01 0.99842758054E+01 0.11295043102E+02 0.12823987560E+02
 0.14062453627E+02 0.14539103586E+02 0.14063793061E+02 0.12823991688E+02 0.11291840584E+02
 0.14239969301E+02 0.11338717865E+02 0.95586199997E+01 0.86987293924E+01 0.81287885126E+01
 0.77292434915E+01 0.75319113470E+01 0.75314591152E+01 0.77284302858E+01 0.81289119092E+01
 0.87008510349E+01 0.95623424944E+01 0.11341860642E+02 0.14240002855E+02 0.17778543822E+02
 0.21014882116E+02 0.22950327406E+02 0.22952500039E+02 0.21019629060E+02 0.17782142133E+02
 0.24130320927E+02 0.17800848383E+02 0.12899397765E+02 0.10006660797E+02 0.87431158132E+01
 0.80895250194E+01 0.76719958732E+01 0.75314581787E+01 0.76717627499E+01 0.80902176260E+01
 0.87451877839E+01 0.10008660922E+02 0.12899147742E+02 0.17797660141E+02 0.24125651551E+02
 0.30511430067E+02 0.35271139294E+02 0.37033955370E+02 0.35273253525E+02 0.30515434774E+02
 0.40896172249E+02 0.30485521549E+02 0.21028600021E+02 0.14149598594E+02 0.10306594745E+02
 0.87645773944E+01 0.80899220920E+01 0.77284616630E+01 0.77284265838E+01 0.80902184696E+01
 0.87654107186E+01 0.10306738987E+02 0.14147460095E+02 0.21024698283E+02 0.30482814657E+02
 0.40897011462E+02 0.49899754810E+02 0.55136998891E+02 0.55135267114E+02 0.49896597793E+02
 0.64015612920E+02 0.49817885651E+02 0.35193406208E+02 0.22945265779E+02 0.14626522640E+02
 0.10307410780E+02 0.87451854743E+01 0.81288227188E+01 0.79077220762E+01 0.81289143456E+01
 0.87451899936E+01 0.10306738474E+02 0.14624697829E+02 0.22943157782E+02 0.35193409240E+02
 0.49821880637E+02 0.64022398144E+02 0.74434208720E+02 0.78266449060E+02 0.74428869663E+02
 0.90904238511E+02 0.74329049914E+02 0.54990486185E+02 0.36930112932E+02 0.22943124242E+02
 0.14148273092E+02 0.10009221296E+02 0.87008367234E+01 0.82214643702E+01 0.82215844677E+01
 0.87008513033E+01 0.10008659270E+02 0.14147458972E+02 0.22943157646E+02 0.36931810053E+02
 0.54993511721E+02 0.74332201984E+02 0.90906422968E+02 0.10054403753E+03 0.10054328571E+03
 0.11687907334E+03 0.10046279522E+03 0.78121726873E+02 0.54992216655E+02 0.35191336546E+02
 0.21023911980E+02 0.12899397765E+02 0.95624578005E+01 0.86500729603E+01 0.83818668972E+01
 0.86502941156E+01 0.95623403604E+01 0.12899148935E+02 0.21024698648E+02 0.35193409622E+02
 0.54993512724E+02 0.78119604055E+02 0.10045746861E+03 0.11687440744E+03 0.12293904334E+03
 0.13599248067E+03 0.12290310671E+03 0.10046351859E+03 0.74334340090E+02 0.49821034289E+02
 0.30481556876E+02 0.17797280783E+02 0.11341900710E+02 0.91549776895E+01 0.86019374349E+01
 0.86020791337E+01 0.91551243352E+01 0.11341864892E+02 0.17797661746E+02 0.30482812585E+02
 0.49821881984E+02 0.74332201787E+02 0.10045746663E+03 0.12289603832E+03 0.13598931222E+03
 0.13501146697E+03 0.12834975556E+03 0.11032101141E+03 0.85803657689E+02 0.60407475561E+02
 0.38587390471E+02 0.22833909912E+02 0.13640377561E+02 0.97535431412E+01 0.87138405848E+01
 0.84383413494E+01 0.87138756166E+01 0.97535747239E+01 0.13640380021E+02 0.22833903106E+02
 0.38587409939E+02 0.60407521827E+02 0.85803694214E+02 0.11032101302E+03 0.12834974005E+03
 0.12835269646E+03 0.12834975159E+03 0.11603349205E+03 0.94892517061E+02 0.70228409639E+02
 0.47059941724E+02 0.28802565257E+02 0.16898740169E+02 0.10923402492E+02 0.89399222704E+01
 0.84080366449E+01 0.84079121832E+01 0.89398028248E+01 0.10923454485E+02 0.16898406583E+02
 0.28801426790E+02 0.47059191342E+02 0.70230432689E+02 0.94898163279E+02 0.11604006760E+03
 0.11032537484E+03 0.11601180229E+03 0.11032101229E+03 0.94892521127E+02 0.73844233318E+02
 0.51993258569E+02 0.33262929760E+02 0.19896434539E+02 0.12304668019E+02 0.92465746335E+01
 0.83968555112E+01 0.81339013711E+01 0.83965921624E+01 0.92466328145E+01 0.12304898161E+02
 0.19895718394E+02 0.33260973784E+02 0.51991978926E+02 0.73846146390E+02 0.94897469459E+02
 0.85801668756E+02 0.94836413819E+02 0.94837087225E+02 0.85803665481E+02 0.70228407790E+02
 0.51993254777E+02 0.34916057811E+02 0.21693590745E+02 0.13431370954E+02 0.96029652255E+01
 0.83987118821E+01 0.79272727077E+01 0.79271291797E+01 0.83986408982E+01 0.96034655692E+01
 0.13432138640E+02 0.21693541710E+02 0.34914401915E+02 0.51990354155E+02 0.70225450822E+02
 0.60401199224E+02 0.70155762493E+02 0.73743331495E+02 0.70160697968E+02 0.60407475952E+02
 0.47059934498E+02 0.33262933556E+02 0.21693594554E+02 0.13865703117E+02 0.98486891382E+01
 0.84069764836E+01 0.77986790681E+01 0.75805995683E+01 0.77985942476E+01 0.84069843257E+01
 0.98493410214E+01 0.13867426904E+02 0.21695567168E+02 0.33262934563E+02 0.47056234932E+02
 0.38586639420E+02 0.47013442479E+02 0.51904094017E+02 0.51905712922E+02 0.47016383108E+02
 0.38587387538E+02 0.28802567520E+02 0.19896442057E+02 0.13431365649E+02 0.98486852155E+01
 0.84131482600E+01 0.77398205796E+01 0.73783353785E+01 0.73783852543E+01 0.77395799032E+01
 0.84123995584E+01 0.98485705022E+01 0.13433393578E+02 0.19900139143E+02 0.28805153719E+02
 0.22838264929E+02 0.28811310521E+02 0.33247972562E+02 0.34886501909E+02 0.33246055370E+02
 0.28807623800E+02 0.22833907563E+02 0.16898743970E+02 0.12304663856E+02 0.96029572035E+01
 0.84069821368E+01 0.77398239618E+01 0.73131911540E+01 0.71700447908E+01 0.73134384166E+01
 0.77391924912E+01 0.84050235466E+01 0.96010570047E+01 0.12304898161E+02 0.16901746100E+02
 0.13640328599E+02 0.16953126489E+02 0.19971582824E+02 0.21768843944E+02 0.21766850644E+02
 0.19967222084E+02 0.16949815301E+02 0.13640374599E+02 0.10923403956E+02 0.92465697216E+01
 0.83987161981E+01 0.77986859516E+01 0.73783294639E+01 0.71700424821E+01 0.71704793203E+01
 0.73791043513E+01 0.77985428253E+01 0.83966668631E+01 0.92430340077E+01 0.10920446653E+02
 0.97489584160E+01 0.10996061025E+02 0.12436612692E+02 0.13595967619E+02 0.14039225182E+02
 0.13594722346E+02 0.12436611388E+02 0.10999045976E+02 0.97535471608E+01 0.89399239168E+01
 0.83968534394E+01 0.79272768950E+01 0.75805952583E+01 0.73783808862E+01 0.73134456383E+01
 0.73791058977E+01 0.75823058630E+01 0.79291546371E+01 0.83968466468E+01 0.89368464151E+01
 0.87137306906E+01 0.90177218826E+01 0.93969438924E+01 0.98093423331E+01 0.10085274512E+02
 0.10086022095E+02 0.98117050730E+01 0.94005116346E+01 0.90206641636E+01 0.87138458115E+01
 0.84080312127E+01 0.81339000132E+01 0.79271319690E+01 0.77985924479E+01 0.77395857806E+01
 0.77391949864E+01 0.77985341421E+01 0.79291532391E+01 0.81376965262E+01 0.84110135189E+01
 0.84427031730E+01 0.84916297642E+01 0.85532198617E+01 0.86169137957E+01 0.86685692527E+01
 0.86912882059E+01 0.86704839207E+01 0.86188593910E+01 0.85529935894E+01 0.84885732335E+01
 0.84383392432E+01 0.84079079487E+01 0.83965989550E+01 0.83986431139E+01 0.84069821368E+01
 0.84123994028E+01 0.84050157046E+01 0.83966647627E+01 0.83968555112E+01 0.84110147166E+01
 0.87137228362E+01 0.84916292707E+01 0.82944254481E+01 0.81531095385E+01 0.80742265965E+01
 0.80434110518E+01 0.80437895523E+01 0.80742717189E+01 0.81511133551E+01 0.82906939708E+01
 0.84887126441E+01 0.87138729889E+01 0.89398061682E+01 0.92466360480E+01 0.96034580593E+01
 0.98493379861E+01 0.98485713896E+01 0.96010575167E+01 0.92430421530E+01 0.89368481121E+01
 0.97489516698E+01 0.90177217309E+01 0.85532266611E+01 0.81531091930E+01 0.78623778962E+01
 0.76974549155E+01 0.76455323473E+01 0.76967590143E+01 0.78606928158E+01 0.81512311037E+01
 0.85532232372E+01 0.90208090896E+01 0.97535719974E+01 0.10923455378E+02 0.12304893504E+02
 0.13432136168E+02 0.13867434249E+02 0.13433396411E+02 0.12304897667E+02 0.10920446082E+02
 0.13640330033E+02 0.10996062691E+02 0.93969491753E+01 0.86169120560E+01 0.80742205504E+01
 0.76974557548E+01 0.75126275366E+01 0.75122131799E+01 0.76967114855E+01 0.80743419387E+01
 0.86188852579E+01 0.94004142374E+01 0.10998998447E+02 0.13640378492E+02 0.16898408392E+02
 0.19895719067E+02 0.21693547025E+02 0.21695568674E+02 0.19900132296E+02 0.16901744108E+02
 0.22838271736E+02 0.16953128086E+02 0.12436610216E+02 0.98093390560E+01 0.86685647696E+01
 0.80434138387E+01 0.76455374098E+01 0.75122122233E+01 0.76453026995E+01 0.80440395882E+01
 0.86704839207E+01 0.98111923625E+01 0.12436356904E+02 0.16950131663E+02 0.22833907563E+02
 0.28801429217E+02 0.33260972776E+02 0.34914400138E+02 0.33262929760E+02 0.28805153882E+02
 0.38586643344E+02 0.28811308562E+02 0.19971575832E+02 0.13595965671E+02 0.10085277110E+02
 0.86912922749E+01 0.80437931808E+01 0.76967561570E+01 0.76967077889E+01 0.80440404298E+01
 0.86920569945E+01 0.10085419895E+02 0.13593975220E+02 0.19967917789E+02 0.28808754034E+02
 0.38587410930E+02 0.47059187371E+02 0.51991976446E+02 0.51990355467E+02 0.47056238188E+02
 0.60401196825E+02 0.47013437275E+02 0.33247969145E+02 0.21768846795E+02 0.14039231552E+02
 0.10086024236E+02 0.86704816819E+01 0.80742680792E+01 0.78606906316E+01 0.80743443451E+01
 0.86704861650E+01 0.10085419438E+02 0.14037562754E+02 0.21766902066E+02 0.33247972282E+02
 0.47017153627E+02 0.60407519819E+02 0.70230433247E+02 0.73846150231E+02 0.70225453230E+02
 0.85801664253E+02 0.70155759445E+02 0.51904097125E+02 0.34886508445E+02 0.21766853359E+02
 0.13594719362E+02 0.98117002762E+01 0.86188579628E+01 0.81511157573E+01 0.81512338514E+01
 0.86188855694E+01 0.98111908428E+01 0.13593974184E+02 0.21766901930E+02 0.34888112237E+02
 0.51906935838E+02 0.70158704533E+02 0.85803697503E+02 0.94898164792E+02 0.94897466906E+02
 0.11032537324E+03 0.94836417471E+02 0.73743336462E+02 0.51905716934E+02 0.33246052232E+02
 0.19967215461E+02 0.12436610216E+02 0.94005148908E+01 0.85529970133E+01 0.82906944551E+01
 0.85532198617E+01 0.94004122107E+01 0.12436358207E+02 0.19967918157E+02 0.33247972562E+02
 0.51906936742E+02 0.73741370716E+02 0.94831448523E+02 0.11032101229E+03 0.11604006170E+03
 0.12835269732E+03 0.11601180999E+03 0.94837088960E+02 0.70160694635E+02 0.47016379030E+02
 0.28807619680E+02 0.16949818547E+02 0.10999051975E+02 0.90206634858E+01 0.84885697673E+01
 0.84887096714E+01 0.90208085634E+01 0.10999002780E+02 0.16950133312E+02 0.28808751873E+02
 0.47017154753E+02 0.70158704248E+02 0.94831446607E+02 0.11600521031E+03 0.12834973694E+03
 0.11354248104E+03 0.10795247345E+03 0.92798619764E+02 0.72144880659E+02 0.50743366534E+02
 0.32451904969E+02 0.19452219104E+02 0.12110096260E+02 0.91741092261E+01 0.83506539348E+01
 0.80918450106E+01 0.83506884509E+01 0.91741422037E+01 0.12110101862E+02 0.19452212495E+02
 0.32451917770E+02 0.50743402098E+02 0.72144909931E+02 0.92798621325E+02 0.10795246101E+03
 0.10795485955E+03 0.10795246943E+03 0.97595912835E+02 0.79784599131E+02 0.58979948594E+02
 0.39488011833E+02 0.24292116736E+02 0.14624118200E+02 0.99887640028E+01 0.85202146604E+01
 0.80337395317E+01 0.80336210631E+01 0.85201016570E+01 0.99888519341E+01 0.14623956945E+02
 0.24291299086E+02 0.39487443290E+02 0.58981569232E+02 0.79789149104E+02 0.97601237672E+02
 0.92802164569E+02 0.97593711404E+02 0.92798620190E+02 0.79784602949E+02 0.62014259994E+02
 0.43598531134E+02 0.27940590787E+02 0.16981693022E+02 0.10987056351E+02 0.87067894299E+01
 0.80022933859E+01 0.77597680838E+01 0.80020275290E+01 0.87068063277E+01 0.10987288026E+02
 0.16981197618E+02 0.27939051388E+02 0.43597472822E+02 0.62015767440E+02 0.79788598360E+02
 0.72143287266E+02 0.79779738391E+02 0.79780273341E+02 0.72144887963E+02 0.58979946963E+02
 0.43598527654E+02 0.29297836904E+02 0.18409060759E+02 0.11821279448E+02 0.89265818241E+01
 0.79907105509E+01 0.75581892598E+01 0.75580520769E+01 0.79906043455E+01 0.89269363799E+01
 0.11821858748E+02 0.18408979004E+02 0.29296451165E+02 0.43596146207E+02 0.58977548031E+02
 0.50738314893E+02 0.58988112160E+02 0.62024738128E+02 0.58992097239E+02 0.50743367198E+02
 0.39488005278E+02 0.27940594662E+02 0.18409064454E+02 0.12146441739E+02 0.90835396708E+01
 0.79893121078E+01 0.74343921042E+01 0.72389546762E+01 0.74343489661E+01 0.79893195259E+01
 0.90840091868E+01 0.12147747449E+02 0.18410601669E+02 0.27940595349E+02 0.39485044754E+02
 0.32451335674E+02 0.39536896787E+02 0.43664534250E+02 0.43665855964E+02 0.39539283080E+02
 0.32451902572E+02 0.24292119163E+02 0.16981700290E+02 0.11821274252E+02 0.90835358126E+01
 0.79899151450E+01 0.73780010171E+01 0.70556437003E+01 0.70557293070E+01 0.73778936475E+01
 0.79893542136E+01 0.90834270908E+01 0.11822899318E+02 0.16984728995E+02 0.24294279718E+02
 0.19455755739E+02 0.24394184392E+02 0.28094963221E+02 0.29467016111E+02 0.28093452563E+02
 0.24391234441E+02 0.19452216886E+02 0.14624121747E+02 0.10987052161E+02 0.89265739204E+01
 0.79893173855E+01 0.73780042162E+01 0.69970295420E+01 0.68708677695E+01 0.69972800466E+01
 0.73775549346E+01 0.79877755651E+01 0.89250703315E+01 0.10987288026E+02 0.14626598864E+02
 0.12110014692E+02 0.14761502192E+02 0.17216634037E+02 0.18691178829E+02 0.18689581271E+02
 0.17213148163E+02 0.14758878253E+02 0.12110093061E+02 0.99887651661E+01 0.87067845916E+01
 0.79907145791E+01 0.74343986394E+01 0.70556380501E+01 0.68708656000E+01 0.68711983230E+01
 0.70562242327E+01 0.74342617957E+01 0.79890688506E+01 0.87039442178E+01 0.99863662276E+01
 0.91703414005E+01 0.10134158174E+02 0.11261018551E+02 0.12179587930E+02 0.12533100958E+02
 0.12178556476E+02 0.11261016991E+02 0.10136620744E+02 0.91741128536E+01 0.85202163285E+01
 0.80022915060E+01 0.75581933148E+01 0.72389505592E+01 0.70557252204E+01 0.69972871013E+01
 0.70562257963E+01 0.72402410777E+01 0.75596747422E+01 0.80022850882E+01 0.85177031208E+01
 0.83505498838E+01 0.86635173441E+01 0.89845193720E+01 0.93100012652E+01 0.95251766073E+01
 0.95257423464E+01 0.93118354521E+01 0.89873610099E+01 0.86659047681E+01 0.83506592190E+01
 0.80337347500E+01 0.77597670098E+01 0.75580547477E+01 0.74343472426E+01 0.73778994002E+01
 0.73775574882E+01 0.74342535370E+01 0.75596733579E+01 0.77628559311E+01 0.80361581664E+01
 0.80953882546E+01 0.81788021452E+01 0.82777088625E+01 0.83749961630E+01 0.84478585017E+01
 0.84756466309E+01 0.84493668061E+01 0.83765132550E+01 0.82774811342E+01 0.81763069286E+01
 0.80918435975E+01 0.80336173139E+01 0.80020339468E+01 0.79906062778E+01 0.79893173855E+01
 0.79893541799E+01 0.79877681470E+01 0.79890667547E+01 0.80022933859E+01 0.80361591989E+01
 0.83505422989E+01 0.81788017635E+01 0.80361118455E+01 0.79440089360E+01 0.79011749386E+01
 0.78889818765E+01 0.78893111656E+01 0.79012528094E+01 0.79424087259E+01 0.80330799739E+01
 0.81764396955E+01 0.83506861501E+01 0.85201046926E+01 0.87068090572E+01 0.89269289394E+01
 0.90840062727E+01 0.90834280348E+01 0.89250707947E+01 0.87039517856E+01 0.85177044883E+01
 0.91703348825E+01 0.86635174082E+01 0.82777156275E+01 0.79440086650E+01 0.77092894002E+01
 0.75802614513E+01 0.75405499387E+01 0.75797798923E+01 0.77080121203E+01 0.79425203618E+01
 0.82777122338E+01 0.86660433352E+01 0.91741393132E+01 0.99888523364E+01 0.10987283261E+02
 0.11821856348E+02 0.12147754600E+02 0.11822902114E+02 0.10987287450E+02 0.99863654666E+01
 0.12110016079E+02 0.10134159962E+02 0.89845247116E+01 0.83749946050E+01 0.79011690953E+01
 0.75802622157E+01 0.74254406400E+01 0.74251261509E+01 0.75796997113E+01 0.79012842643E+01
 0.83765723051E+01 0.89873026237E+01 0.10136540563E+02 0.12110100050E+02 0.14623958545E+02
 0.16981198375E+02 0.18408984273E+02 0.18410603244E+02 0.16984722484E+02 0.14626596917E+02
 0.19455762348E+02 0.14761503804E+02 0.11261016249E+02 0.93099981470E+01 0.84478541303E+01
 0.78889844801E+01 0.75405547159E+01 0.74251251536E+01 0.75403188390E+01 0.78894348350E+01
 0.84493668061E+01 0.93114615796E+01 0.11260759431E+02 0.14759026388E+02 0.19452216886E+02
 0.24291301762E+02 0.27939050701E+02 0.29296449544E+02 0.27940590787E+02 0.24294279967E+02
 0.32451339548E+02 0.24394182517E+02 0.17216627198E+02 0.12179585908E+02 0.95251790106E+01
 0.84756504967E+01 0.78893145958E+01 0.75797769756E+01 0.75796960302E+01 0.78894356616E+01
 0.84762331829E+01 0.95253154924E+01 0.12177991055E+02 0.17213626413E+02 0.24392043245E+02
 0.32451919246E+02 0.39487439857E+02 0.43597470410E+02 0.43596147275E+02 0.39485047875E+02
 0.50738312666E+02 0.39536891896E+02 0.28094959815E+02 0.18691181294E+02 0.12533106906E+02
 0.95257444317E+01 0.84493647546E+01 0.79012492763E+01 0.77080098755E+01 0.79012865746E+01
 0.84493691260E+01 0.95253151744E+01 0.12531847893E+02 0.18689668442E+02 0.28094963187E+02
 0.39539865176E+02 0.50743400535E+02 0.58981569628E+02 0.62015770618E+02 0.58977550057E+02
 0.72143282967E+02 0.58988109571E+02 0.43664537364E+02 0.29467022145E+02 0.18689583602E+02
 0.12178553637E+02 0.93118311445E+01 0.83765121160E+01 0.79424109730E+01 0.79425228799E+01
 0.83765727241E+01 0.93114603901E+01 0.12177990238E+02 0.18689668307E+02 0.29468370419E+02
 0.43666871560E+02 0.58990499547E+02 0.72144912936E+02 0.79789149922E+02 0.79788595359E+02
 0.92802163008E+02 0.79779742431E+02 0.62024743361E+02 0.43665859743E+02 0.28093449190E+02
 0.17213141705E+02 0.11261016249E+02 0.89873646022E+01 0.82774845279E+01 0.80330801380E+01
 0.82777088625E+01 0.89873008765E+01 0.11260760992E+02 0.17213626795E+02 0.28094963221E+02
 0.43666872226E+02 0.62023194167E+02 0.79775730604E+02 0.92798620190E+02 0.97601231443E+02
 0.10795486035E+03 0.97593719313E+02 0.79780275610E+02 0.58992094156E+02 0.39539278789E+02
 0.24391230203E+02 0.14758881606E+02 0.10136627036E+02 0.86659043009E+01 0.81763032350E+01
 0.81764363835E+01 0.86660428038E+01 0.10136545067E+02 0.14759028129E+02 0.24392040882E+02
 0.39539865776E+02 0.58990499052E+02 0.79775728833E+02 0.97588375232E+02 0.10795245779E+03
 0.85150886192E+02 0.80956047848E+02 0.69568142222E+02 0.54034033851E+02 0.37998963991E+02
 0.24493134982E+02 0.15212459006E+02 0.10294872049E+02 0.84902787860E+01 0.78504087150E+01
 0.76220583870E+01 0.78504379978E+01 0.84903074090E+01 0.10294877700E+02 0.15212452678E+02
 0.24493142286E+02 0.37998989290E+02 0.54034055659E+02 0.69568143715E+02 0.80956038721E+02
 0.80957698615E+02 0.80956043858E+02 0.73162818010E+02 0.59746110253E+02 0.44101219184E+02
 0.29583088895E+02 0.18539873756E+02 0.11852840019E+02 0.89052897411E+01 0.79593691710E+01
 0.75281953213E+01 0.75280885729E+01 0.79592671762E+01 0.89054119719E+01 0.11852878437E+02
 0.18539454528E+02 0.29582752083E+02 0.44102312893E+02 0.59749215992E+02 0.73166488153E+02
 0.69570601467E+02 0.73186062284E+02 0.69568142237E+02 0.59746113750E+02 0.46354637519E+02
 0.32579529177E+02 0.21093385650E+02 0.13370239840E+02 0.94387390847E+01 0.80476454225E+01
 0.74657313581E+01 0.72571211952E+01 0.74654775878E+01 0.80476183589E+01 0.94389635321E+01
 0.13370015265E+02 0.21092384353E+02 0.32578766849E+02 0.46355617255E+02 0.59748851043E+02
 0.54032960299E+02 0.59807655035E+02 0.59808008982E+02 0.54034040524E+02 0.44101217757E+02
 0.32579526051E+02 0.22050739687E+02 0.14307493787E+02 0.99062802123E+01 0.81273688833E+01
 0.74297761525E+01 0.70599803089E+01 0.70598585227E+01 0.74296396950E+01 0.81275472361E+01
 0.99066224714E+01 0.14307377946E+02 0.22049719764E+02 0.32577837365E+02 0.44099557640E+02
 0.37995525991E+02 0.44212942330E+02 0.46508087144E+02 0.44215672044E+02 0.37998964871E+02
 0.29583083077E+02 0.21093389505E+02 0.14307497310E+02 0.10092809200E+02 0.81862356836E+01
 0.74125697757E+01 0.69385369572E+01 0.67764950426E+01 0.69385427346E+01 0.74125765856E+01
 0.81864786158E+01 0.10093584209E+02 0.14308473305E+02 0.21093389900E+02 0.29581092189E+02
 0.24492797353E+02 0.29752385868E+02 0.32842117679E+02 0.32843043537E+02 0.29754037278E+02
 0.24493133088E+02 0.18539876252E+02 0.13370246739E+02 0.99062752680E+01 0.81862320011E+01
 0.74076557878E+01 0.68825935199E+01 0.66161628265E+01 0.66162825309E+01 0.68826363053E+01
 0.74073279354E+01 0.81861336830E+01 0.99073728980E+01 0.13372385041E+02 0.18541459355E+02
 0.15214910431E+02 0.18757643329E+02 0.21458819466E+02 0.22468083765E+02 0.21457837469E+02
 0.18755660524E+02 0.15212456934E+02 0.11852843277E+02 0.94387350181E+01 0.81273613240E+01
 0.74125745645E+01 0.68825964509E+01 0.65651894955E+01 0.64620036860E+01 0.65654289849E+01
 0.68823691146E+01 0.74115710384E+01 0.81263741347E+01 0.94389635321E+01 0.11854616073E+02
 0.10294756427E+02 0.12091394877E+02 0.13800930327E+02 0.14843754153E+02 0.14842676740E+02
 0.13798592286E+02 0.12089667677E+02 0.10294868652E+02 0.89052906429E+01 0.80476408243E+01
 0.74297797967E+01 0.69385429778E+01 0.66161575116E+01 0.64620017002E+01 0.64622027017E+01
 0.66165061901E+01 0.69384214611E+01 0.74286656093E+01 0.80457147891E+01 0.89036308041E+01
 0.84876034307E+01 0.91384250087E+01 0.98842626081E+01 0.10498992524E+02 0.10737575758E+02
 0.10498249375E+02 0.98842608127E+01 0.91401862065E+01 0.84902820003E+01 0.79593708470E+01
 0.74657297091E+01 0.70599840972E+01 0.67764911304E+01 0.66162787851E+01 0.65654357214E+01
 0.66165077592E+01 0.67772543639E+01 0.70609538820E+01 0.74657238137E+01 0.79576072819E+01
 0.78503148726E+01 0.81813129237E+01 0.84780524417E+01 0.87227548816E+01 0.88732298692E+01
 0.88735638742E+01 0.87239071868E+01 0.84799433999E+01 0.81829649105E+01 0.78504139455E+01
 0.75281912845E+01 0.72571203684E+01 0.70598609720E+01 0.69385411261E+01 0.68826418340E+01
 0.68823717125E+01 0.69384138320E+01 0.70609525430E+01 0.72592691637E+01 0.75298715923E+01
 0.76245161394E+01 0.77462953998E+01 0.78825574966E+01 0.80110740527E+01 0.81044097048E+01
 0.81390777660E+01 0.81053895424E+01 0.80120367554E+01 0.78823370164E+01 0.77445464863E+01
 0.76220576860E+01 0.75280853728E+01 0.74654834833E+01 0.74296413096E+01 0.74125745645E+01
 0.74073280686E+01 0.74115642285E+01 0.74286635797E+01 0.74657313581E+01 0.75298724291E+01
 0.78503076979E+01 0.77462951379E+01 0.76702014188E+01 0.76334301793E+01 0.76283079447E+01
 0.76345544859E+01 0.76348135914E+01 0.76284200998E+01 0.76323504136E+01 0.76680967175E+01
 0.77446647169E+01 0.78504360536E+01 0.79592698300E+01 0.80476205678E+01 0.81275400832E+01
 0.81864759167E+01 0.81861346665E+01 0.81263745411E+01 0.80457215962E+01 0.79576082597E+01
 0.84875972636E+01 0.81813132182E+01 0.78825640923E+01 0.76334299858E+01 0.74653027366E+01
 0.73767376746E+01 0.73503706174E+01 0.73765217709E+01 0.74645465978E+01 0.76324514307E+01
 0.78825607865E+01 0.81830880357E+01 0.84903044560E+01 0.89054119165E+01 0.94389587882E+01
 0.99066202007E+01 0.10093590977E+02 0.99073755715E+01 0.94389628548E+01 0.89036298468E+01
 0.10294757758E+02 0.91384269018E+01 0.84780577323E+01 0.80110726855E+01 0.76283024168E+01
 0.73767383655E+01 0.72577457730E+01 0.72575585900E+01 0.73764074798E+01 0.76284068258E+01
 0.80121338330E+01 0.84799345658E+01 0.91400719154E+01 0.10294875635E+02 0.11852879826E+02
 0.13370016098E+02 0.14307383019E+02 0.14308474856E+02 0.13372378974E+02 0.11854614205E+02
 0.15214916758E+02 0.12091396502E+02 0.98842605290E+01 0.87227519550E+01 0.81044055361E+01
 0.76345568987E+01 0.73503750611E+01 0.72575575458E+01 0.73501468473E+01 0.76347865104E+01
 0.81053895424E+01 0.87237101255E+01 0.98840145868E+01 0.12089620340E+02 0.15212456934E+02
 0.18539457383E+02 0.21092383958E+02 0.22049718264E+02 0.21093385650E+02 0.18541459714E+02
 0.24492801151E+02 0.18757641607E+02 0.13800923769E+02 0.10498990437E+02 0.88732320280E+01
 0.81390813837E+01 0.76348167930E+01 0.73765188262E+01 0.73764038442E+01 0.76347872992E+01
 0.81394288099E+01 0.88733531690E+01 0.10497915544E+02 0.13798804843E+02 0.18756072096E+02
 0.24493144190E+02 0.29582749247E+02 0.32578764522E+02 0.32577838164E+02 0.29581095170E+02
 0.37995524029E+02 0.29752381395E+02 0.21458816129E+02 0.14843756156E+02 0.10737581161E+02
 0.88735658584E+01 0.81053877453E+01 0.76284167079E+01 0.74645442975E+01 0.76284089618E+01
 0.81053919140E+01 0.88733529944E+01 0.10736839774E+02 0.14842798013E+02 0.21458819678E+02
 0.29754382210E+02 0.37998988209E+02 0.44102313116E+02 0.46355619728E+02 0.44099559289E+02
 0.54032956306E+02 0.44212940235E+02 0.32842120705E+02 0.22468089155E+02 0.14842678611E+02
 0.10498246722E+02 0.87239034363E+01 0.80120359396E+01 0.76323524406E+01 0.76324536512E+01
 0.80121343843E+01 0.87237093016E+01 0.10497914978E+02 0.14842797881E+02 0.22469083568E+02
 0.32843776150E+02 0.44214594499E+02 0.54034058338E+02 0.59749216139E+02 0.59748847692E+02
 0.69570599974E+02 0.59807659336E+02 0.46508092489E+02 0.32843046983E+02 0.21457833920E+02
 0.13798586115E+02 0.98842605290E+01 0.84799472650E+01 0.78823403222E+01 0.76680965780E+01
 0.78825574966E+01 0.84799331403E+01 0.98840163822E+01 0.13798805230E+02 0.21458819466E+02
 0.32843776570E+02 0.46507081597E+02 0.59804909799E+02 0.69568142237E+02 0.73166481728E+02
 0.80957699328E+02 0.73186070207E+02 0.59808011680E+02 0.44215669261E+02 0.29754032875E+02
 0.18755656296E+02 0.12089671086E+02 0.91401926732E+01 0.81829646985E+01 0.77445426405E+01
 0.77446611331E+01 0.81830875292E+01 0.91400764890E+01 0.12089622123E+02 0.18756069591E+02
 0.29754382281E+02 0.44214593811E+02 0.59804908196E+02 0.73182385960E+02 0.80956035444E+02
 0.56938138080E+02 0.54124736136E+02 0.46495215142E+02 0.36139490049E+02 0.25604284658E+02
 0.17016626867E+02 0.11475640250E+02 0.88285854100E+01 0.78598428371E+01 0.73288966027E+01
 0.71433643041E+01 0.73289142889E+01 0.78598584186E+01 0.88285853547E+01 0.11475634269E+02
 0.17016633407E+02 0.25604305278E+02 0.36139507448E+02 0.46495216554E+02 0.54124729253E+02
 0.54125667438E+02 0.54124732369E+02 0.48886382142E+02 0.39896991806E+02 0.29520163794E+02
 0.20120350102E+02 0.13308943967E+02 0.95259938079E+01 0.80223056296E+01 0.73639529782E+01