   2   2   0   0
  0.8532637E+01  0.2260100E-09  0.2260100E-09  0.3857690E-09  0.5000000E-15
  1.000000000000000E-004
  CAR 
 unknown system                          
     80.22231825     -4.68985585  301      9.07298166      1.00000000
     -4.690  0.0000E+00  0.0000E+00
     -4.407  0.0000E+00  0.0000E+00
     -4.124  0.0000E+00  0.0000E+00
     -3.841  0.0000E+00  0.0000E+00
     -3.558  0.0000E+00  0.0000E+00
     -3.275  0.0000E+00  0.0000E+00
     -2.992  0.0000E+00  0.0000E+00
     -2.709 -0.6931E-40 -0.1962E-40
     -2.426 -0.2787E-29 -0.7887E-30
     -2.142 -0.1979E-20 -0.5601E-21
     -1.859 -0.2366E-13 -0.6697E-14
     -1.576 -0.4909E-08 -0.1390E-08
     -1.293 -0.1634E-04 -0.4625E-05
     -1.010 -0.4019E-03 -0.1184E-03
     -0.727  0.8385E-02  0.2255E-02
     -0.444  0.4222E-01  0.1420E-01
     -0.161  0.8740E-01  0.3894E-01
      0.122  0.5681E-01  0.5502E-01
      0.405  0.1205E+00  0.8914E-01
      0.688  0.1649E+00  0.1358E+00
      0.971  0.1548E+00  0.1796E+00
      1.254  0.1030E+00  0.2088E+00
      1.537  0.1618E+00  0.2546E+00
      1.820  0.3285E+00  0.3475E+00
      2.103  0.2456E+00  0.4171E+00
      2.386  0.3109E+00  0.5051E+00
      2.669  0.1952E+00  0.5603E+00
      2.952  0.7510E+00  0.7729E+00
      3.235  0.1792E+01  0.1280E+01
      3.518  0.1643E+01  0.1745E+01
      3.801  0.2419E+01  0.2430E+01
      4.084  0.2241E+01  0.3064E+01
      4.367  0.2570E+01  0.3791E+01
      4.650  0.1776E+01  0.4294E+01
      4.934  0.2298E+01  0.4945E+01
      5.217  0.2653E+01  0.5695E+01
      5.500  0.2537E+01  0.6414E+01
      5.783  0.2428E+01  0.7101E+01
      6.066  0.1734E+01  0.7591E+01
      6.349  0.1912E+01  0.8133E+01
      6.632  0.2984E+01  0.8977E+01
      6.915  0.3181E+01  0.9878E+01
      7.198  0.3162E+01  0.1077E+02
      7.481  0.3166E+01  0.1167E+02
      7.764  0.3651E+01  0.1270E+02
      8.047  0.3020E+01  0.1356E+02
      8.330  0.2292E+01  0.1421E+02
      8.613  0.2186E+01  0.1482E+02
      8.896  0.2670E+01  0.1558E+02
      9.179  0.2203E+01  0.1620E+02
      9.462  0.1639E+01  0.1667E+02
      9.745  0.3130E+01  0.1755E+02
     10.028  0.4003E+01  0.1869E+02
     10.311  0.4061E+01  0.1984E+02
     10.594  0.3837E+01  0.2092E+02
     10.877  0.1029E+01  0.2121E+02
     11.160  0.1464E+00  0.2125E+02
     11.443  0.1828E+00  0.2131E+02
     11.726  0.9728E+00  0.2158E+02
     12.010  0.6505E+00  0.2177E+02
     12.293  0.4029E+00  0.2188E+02
     12.576  0.4218E+00  0.2200E+02
     12.859  0.5928E+00  0.2217E+02
     13.142  0.2980E+00  0.2225E+02
     13.425  0.1806E+00  0.2230E+02
     13.708  0.4398E+00  0.2243E+02
     13.991  0.7534E+00  0.2264E+02
     14.274  0.4753E+00  0.2277E+02
     14.557  0.2618E+00  0.2285E+02
     14.840  0.2519E+00  0.2292E+02
     15.123  0.3846E+00  0.2303E+02
     15.406  0.4358E+00  0.2315E+02
     15.689  0.3891E+00  0.2326E+02
     15.972  0.2204E+00  0.2332E+02
     16.255  0.3091E+00  0.2341E+02
     16.538  0.2256E+00  0.2348E+02
     16.821  0.4004E+00  0.2359E+02
     17.104  0.3259E+00  0.2368E+02
     17.387  0.5276E+00  0.2383E+02
     17.670  0.1521E+00  0.2387E+02
     17.953  0.6280E-01  0.2389E+02
     18.236  0.1302E+00  0.2393E+02
     18.519  0.9282E-01  0.2396E+02
     18.803  0.1066E+00  0.2399E+02
     19.086  0.1941E+00  0.2404E+02
     19.369  0.2480E+00  0.2411E+02
     19.652  0.3434E+00  0.2421E+02
     19.935  0.3485E+00  0.2431E+02
     20.218  0.3194E+00  0.2440E+02
     20.501  0.4823E+00  0.2453E+02
     20.784  0.8991E+00  0.2479E+02
     21.067  0.7701E+00  0.2501E+02
     21.350  0.6797E+00  0.2520E+02
     21.633  0.3521E+00  0.2530E+02
     21.916  0.6376E+00  0.2548E+02
     22.199  0.5732E+00  0.2564E+02
     22.482  0.7558E+00  0.2585E+02
     22.765  0.7722E+00  0.2607E+02
     23.048  0.5110E+00  0.2622E+02
     23.331  0.6165E+00  0.2639E+02
     23.614  0.7147E+00  0.2659E+02
     23.897  0.7547E+00  0.2681E+02
     24.180  0.5677E+00  0.2697E+02
     24.463  0.6505E+00  0.2715E+02
     24.746  0.6312E+00  0.2733E+02
     25.029  0.6619E+00  0.2752E+02
     25.312  0.5310E+00  0.2767E+02
     25.595  0.3853E+00  0.2778E+02
     25.879  0.6318E+00  0.2796E+02
     26.162  0.4799E+00  0.2809E+02
     26.445  0.7067E+00  0.2829E+02
     26.728  0.6381E+00  0.2847E+02
     27.011  0.5311E+00  0.2862E+02
     27.294  0.6504E+00  0.2881E+02
     27.577  0.1061E+01  0.2911E+02
     27.860  0.7877E+00  0.2933E+02
     28.143  0.4867E+00  0.2947E+02
     28.426  0.1100E+01  0.2978E+02
     28.709  0.9095E+00  0.3004E+02
     28.992  0.4573E+00  0.3017E+02
     29.275  0.8962E+00  0.3042E+02
     29.558  0.8038E+00  0.3065E+02
     29.841  0.7228E+00  0.3085E+02
     30.124  0.9667E+00  0.3113E+02
     30.407  0.1357E+01  0.3151E+02
     30.690  0.4499E+00  0.3164E+02
     30.973  0.9467E+00  0.3191E+02
     31.256  0.8878E+00  0.3216E+02
     31.539  0.5104E+00  0.3230E+02
     31.822  0.7986E+00  0.3253E+02
     32.105  0.1184E+01  0.3286E+02
     32.388  0.7875E+00  0.3309E+02
     32.672  0.6779E+00  0.3328E+02
     32.955  0.1024E+01  0.3357E+02
     33.238  0.1041E+01  0.3386E+02
     33.521  0.7715E+00  0.3408E+02
     33.804  0.5771E+00  0.3424E+02
     34.087  0.3905E+00  0.3435E+02
     34.370  0.6792E+00  0.3455E+02
     34.653  0.8087E+00  0.3478E+02
     34.936  0.8958E+00  0.3503E+02
     35.219  0.7134E+00  0.3523E+02
     35.502  0.5227E+00  0.3538E+02
     35.785  0.7064E+00  0.3558E+02
     36.068  0.7611E+00  0.3579E+02
     36.351  0.6466E+00  0.3598E+02
     36.634  0.3168E+00  0.3607E+02
     36.917  0.4701E+00  0.3620E+02
     37.200  0.3793E+00  0.3631E+02
     37.483  0.8477E+00  0.3655E+02
     37.766  0.6678E+00  0.3674E+02
     38.049  0.8496E+00  0.3698E+02
     38.332  0.1001E+01  0.3726E+02
     38.615  0.9566E+00  0.3753E+02
     38.898  0.6848E+00  0.3772E+02
     39.181  0.6415E+00  0.3791E+02
     39.464  0.5714E+00  0.3807E+02
     39.748  0.9718E+00  0.3834E+02
     40.031  0.1177E+01  0.3868E+02
     40.314  0.8288E+00  0.3891E+02
     40.597  0.7005E+00  0.3911E+02
     40.880  0.8333E+00  0.3934E+02
     41.163  0.6805E+00  0.3954E+02
     41.446  0.7797E+00  0.3976E+02
     41.729  0.7714E+00  0.3998E+02
     42.012  0.8298E+00  0.4021E+02
     42.295  0.7301E+00  0.4042E+02
     42.578  0.1207E+01  0.4076E+02
     42.861  0.4466E+00  0.4089E+02
     43.144  0.6875E+00  0.4108E+02
     43.427  0.6891E+00  0.4128E+02
     43.710  0.8185E+00  0.4151E+02
     43.993  0.9542E+00  0.4178E+02
     44.276  0.6834E+00  0.4197E+02
     44.559  0.9562E+00  0.4224E+02
     44.842  0.7382E+00  0.4245E+02
     45.125  0.6337E+00  0.4263E+02
     45.408  0.8436E+00  0.4287E+02
     45.691  0.9062E+00  0.4313E+02
     45.974  0.1248E+01  0.4348E+02
     46.257  0.5355E+00  0.4363E+02
     46.540  0.6255E+00  0.4381E+02
     46.824  0.4934E+00  0.4395E+02
     47.107  0.7056E+00  0.4415E+02
     47.390  0.7168E+00  0.4435E+02
     47.673  0.5920E+00  0.4452E+02
     47.956  0.1235E+01  0.4487E+02
     48.239  0.1083E+01  0.4517E+02
     48.522  0.1205E+01  0.4551E+02
     48.805  0.1190E+01  0.4585E+02
     49.088  0.7675E+00  0.4607E+02
     49.371  0.7163E+00  0.4627E+02
     49.654  0.9557E+00  0.4654E+02
     49.937  0.1301E+01  0.4691E+02
     50.220  0.9080E+00  0.4717E+02
     50.503  0.9413E+00  0.4743E+02
     50.786  0.1007E+01  0.4772E+02
     51.069  0.1173E+01  0.4805E+02
     51.352  0.1000E+01  0.4833E+02
     51.635  0.1010E+01  0.4862E+02
     51.918  0.8121E+00  0.4885E+02
     52.201  0.5074E+00  0.4899E+02
     52.484  0.6259E+00  0.4917E+02
     52.767  0.9277E+00  0.4943E+02
     53.050  0.7902E+00  0.4966E+02
     53.333  0.3303E+00  0.4975E+02
     53.617  0.9628E+00  0.5002E+02
     53.900  0.7026E+00  0.5022E+02
     54.183  0.1088E+01  0.5053E+02
     54.466  0.1256E+01  0.5088E+02
     54.749  0.7440E+00  0.5110E+02
     55.032  0.1037E+01  0.5139E+02
     55.315  0.1233E+01  0.5174E+02
     55.598  0.1108E+01  0.5205E+02
     55.881  0.1141E+01  0.5237E+02
     56.164  0.5848E+00  0.5254E+02
     56.447  0.7333E+00  0.5275E+02
     56.730  0.8762E+00  0.5300E+02
     57.013  0.1077E+01  0.5330E+02
     57.296  0.1285E+01  0.5366E+02
     57.579  0.1382E+01  0.5406E+02
     57.862  0.9212E+00  0.5432E+02
     58.145  0.1291E+01  0.5468E+02
     58.428  0.1049E+01  0.5498E+02
     58.711  0.1308E+01  0.5535E+02
     58.994  0.1143E+01  0.5567E+02
     59.277  0.1198E+01  0.5601E+02
     59.560  0.1226E+01  0.5636E+02
     59.843  0.8924E+00  0.5661E+02
     60.126  0.1324E+01  0.5698E+02
     60.409  0.1290E+01  0.5735E+02
     60.693  0.1194E+01  0.5769E+02
     60.976  0.1620E+01  0.5815E+02
     61.259  0.1270E+01  0.5851E+02
     61.542  0.1642E+01  0.5897E+02
     61.825  0.1466E+01  0.5939E+02
     62.108  0.1483E+01  0.5981E+02
     62.391  0.1777E+01  0.6031E+02
     62.674  0.1926E+01  0.6085E+02
     62.957  0.2062E+01  0.6144E+02
     63.240  0.2296E+01  0.6209E+02
     63.523  0.2041E+01  0.6267E+02
     63.806  0.2073E+01  0.6325E+02
     64.089  0.2872E+01  0.6406E+02
     64.372  0.2981E+01  0.6491E+02
     64.655  0.2539E+01  0.6563E+02
     64.938  0.1738E+01  0.6612E+02
     65.221  0.1852E+01  0.6664E+02
     65.504  0.1947E+01  0.6719E+02
     65.787  0.1235E+01  0.6754E+02
     66.070  0.1343E+01  0.6792E+02
     66.353  0.1591E+01  0.6837E+02
     66.636  0.1509E+01  0.6880E+02
     66.919  0.1272E+01  0.6916E+02
     67.202  0.1323E+01  0.6954E+02
     67.485  0.1427E+01  0.6994E+02
     67.769  0.1168E+01  0.7027E+02
     68.052  0.1126E+01  0.7059E+02
     68.335  0.1474E+01  0.7101E+02
     68.618  0.1302E+01  0.7137E+02
     68.901  0.9768E+00  0.7165E+02
     69.184  0.9420E+00  0.7192E+02
     69.467  0.1445E+01  0.7233E+02
     69.750  0.1592E+01  0.7278E+02
     70.033  0.1018E+01  0.7307E+02
     70.316  0.1303E+01  0.7343E+02
     70.599  0.1517E+01  0.7386E+02
     70.882  0.2123E+01  0.7446E+02
     71.165  0.1279E+01  0.7483E+02
     71.448  0.8658E+00  0.7507E+02
     71.731  0.9012E+00  0.7533E+02
     72.014  0.1205E+01  0.7567E+02
     72.297  0.1384E+01  0.7606E+02
     72.580  0.1292E+01  0.7642E+02
     72.863  0.1392E+01  0.7682E+02
     73.146  0.1178E+01  0.7715E+02
     73.429  0.8666E+00  0.7740E+02
     73.712  0.8774E+00  0.7765E+02
     73.995  0.1452E+01  0.7806E+02
     74.278  0.1391E+01  0.7845E+02
     74.562  0.1119E+01  0.7877E+02
     74.845  0.9752E+00  0.7904E+02
     75.128  0.5893E+00  0.7921E+02
     75.411  0.1218E+01  0.7955E+02
     75.694  0.7248E+00  0.7976E+02
     75.977  0.5468E+00  0.7991E+02
     76.260  0.2212E+00  0.7998E+02
     76.543  0.8312E-01  0.8000E+02
     76.826 -0.2843E-02  0.8000E+02
     77.109 -0.1690E-03  0.8000E+02
     77.392 -0.5654E-07  0.8000E+02
     77.675 -0.2809E-12  0.8000E+02
     77.958  0.0000E+00  0.8000E+02
     78.241  0.0000E+00  0.8000E+02
     78.524  0.0000E+00  0.8000E+02
     78.807  0.0000E+00  0.8000E+02
     79.090  0.0000E+00  0.8000E+02
     79.373  0.0000E+00  0.8000E+02
     79.656  0.0000E+00  0.8000E+02
     79.939  0.0000E+00  0.8000E+02
     80.222  0.0000E+00  0.8000E+02
