 vasp.6.2.0 18Jan21 (build Mar 17 2021 09:06:54) complex                        
  
 executed on             LinuxIFC date 2021.09.09  11:59:22
 serial version


--------------------------------------------------------------------------------------------------------


 INCAR:
   ENCUT = 280.000000
   SIGMA = 0.200000
   EDIFF = 1.00e-06
   GGA = PE
   PREC = normal
   IBRION = 1
   ICHARG = 1
   ISIF = 2
   ISMEAR = 1
   KPAR = 1
   NBANDS = 40
   NSW = 0
   NCORE = 1
   LCHARG = .TRUE.

 POTCAR:    PAW_PBE Fe 06Sep2000                  
 POTCAR:    PAW_PBE Fe 06Sep2000                  
   SHA256 =  cd5a22d9368cc8b5cc476bea79732366149640da08ac9009b0e1b7fc627eea28 Fe/POTCAR             
   COPYR  = (c) Copyright 06Sep2000 Georg Kresse                                                    
   COPYR  = This file is part of the software VASP. Any use, copying, and all other rights are regul
   COPYR  = If you do not have a valid VASP license, you may not use, copy or distribute this file. 
   VRHFIN =Fe:  d7 s1                                                                               
   LEXCH  = PE                                                                                      
   EATOM  =   594.3153 eV,   43.6809 Ry                                                             
                                                                                                    
   TITEL  = PAW_PBE Fe 06Sep2000                                                                    
   LULTRA =        F    use ultrasoft PP ?                                                          
   IUNSCR =        1    unscreen: 0-lin 1-nonlin 2-no                                               
   RPACOR =    2.000    partial core radius                                                         
   POMASS =   55.847; ZVAL   =    8.000    mass and valenz                                          
   RCORE  =    2.300    outmost cutoff radius                                                       
   RWIGS  =    2.460; RWIGS  =    1.302    wigner-seitz radius (au A)                               
   ENMAX  =  267.882; ENMIN  =  200.911 eV                                                          
   RCLOC  =    1.701    cutoff for local pot                                                        
   LCOR   =        T    correct aug charges                                                         
   LPAW   =        T    paw PP                                                                      
   EAUG   =  511.368                                                                                
   DEXC   =    0.000                                                                                
   RMAX   =    2.356    core radius for proj-oper                                                   
   RAUG   =    1.300    factor for augmentation sphere                                              
   RDEP   =    2.442    radius for radial grids                                                     
   RDEPT  =    1.890    core radius for aug-charge                                                  
                                                                                                    
   Atomic configuration                                                                             
    9 entries                                                                                       
     n  l   j            E        occ.                                                              
     1  0  0.50     -6993.8440   2.0000                                                             
     2  0  0.50      -814.6047   2.0000                                                             
     2  1  1.50      -693.3689   6.0000                                                             
     3  0  0.50       -89.4732   2.0000                                                             
     3  1  1.50       -55.6373   6.0000                                                             
     3  2  2.50        -3.8151   7.0000                                                             
     4  0  0.50        -4.2551   1.0000                                                             
     4  1  1.50        -3.4015   0.0000                                                             
     4  3  2.50        -1.3606   0.0000                                                             
   Description                                                                                      
     l       E           TYP  RCUT    TYP  RCUT                                                     
     2     -3.8151135     23  2.300                                                                 
     2     -5.1756961     23  2.300                                                                 
     0     -4.2550963     23  2.300                                                                 
     0      7.2035603     23  2.300                                                                 
     1     -2.7211652     23  2.300                                                                 
     1     18.4316424     23  2.300                                                                 
  local pseudopotential read in
  partial core-charges read in
  partial kinetic energy density read in
  atomic valenz-charges read in
  non local Contribution for L=           2  read in
    real space projection operators read in
  non local Contribution for L=           2  read in
    real space projection operators read in
  non local Contribution for L=           0  read in
    real space projection operators read in
  non local Contribution for L=           0  read in
    real space projection operators read in
  non local Contribution for L=           1  read in
    real space projection operators read in
  non local Contribution for L=           1  read in
    real space projection operators read in
    PAW grid and wavefunctions read in
 
   number of l-projection  operators is LMAX  =           6
   number of lm-projection operators is LMMAX =          18
 
  PAW_PBE Fe 06Sep2000                  :
 energy of atom  1       EATOM= -594.3153
 kinetic energy error for atom=    0.0278 (will be added to EATOM!!)
 
 
 POSCAR: Fe
  positions in cartesian coordinates
  No initial velocities read in
 exchange correlation table for  LEXCH =        8
   RHO(1)=    0.500       N(1)  =     2000
   RHO(2)=  100.500       N(2)  =     4000
 


--------------------------------------------------------------------------------------------------------


 ion  position               nearest neighbor table
   1  0.000  0.000  0.000-   2 2.33   2 2.33   2 2.33   2 2.33   2 2.33   2 2.33
   2  0.333  0.667  0.500-   1 2.33   1 2.33   1 2.33   1 2.33   1 2.33   1 2.33
 
  LATTYP: Found a hexagonal cell.
 ALAT       =     2.2601000000
 C/A-ratio  =     1.7068669528
  
  Lattice vectors:
  
 A1 = (   2.2601000000,   0.0000000000,   0.0000000000)
 A2 = (  -1.1300500000,   1.9573040151,   0.0000000000)
 A3 = (   0.0000000000,   0.0000000000,   3.8576900000)


Analysis of symmetry for initial positions (statically):
=====================================================================
 Subroutine PRICEL returns:
 Original cell was already a primitive cell.
 

 Routine SETGRP: Setting up the symmetry group for a 
 hexagonal supercell.


 Subroutine GETGRP returns: Found 24 space group operations
 (whereof 12 operations were pure point group operations)
 out of a pool of 24 trial point group operations.


The static configuration has the point symmetry D_3h.
 The point group associated with its full space group is D_6h.


Analysis of symmetry for dynamics (positions and initial velocities):
=====================================================================
 Subroutine PRICEL returns:
 Original cell was already a primitive cell.
 

 Routine SETGRP: Setting up the symmetry group for a 
 hexagonal supercell.


 Subroutine GETGRP returns: Found 24 space group operations
 (whereof 12 operations were pure point group operations)
 out of a pool of 24 trial point group operations.


The dynamic configuration has the point symmetry D_3h.
 The point group associated with its full space group is D_6h.


 Subroutine INISYM returns: Found 24 space group operations
 (whereof 12 operations are pure point group operations),
 and found     1 'primitive' translations


----------------------------------------------------------------------------------------

                                     Primitive cell                                     

  volume of cell :      17.0653

  direct lattice vectors                    reciprocal lattice vectors
     2.260100000  0.000000000  0.000000000     0.442458298  0.255453418  0.000000000
    -1.130050000  1.957304015  0.000000000     0.000000000  0.510906835  0.000000000
     0.000000000  0.000000000  3.857690000     0.000000000  0.000000000  0.259222488

  length of vectors
     2.260100000  2.260100000  3.857690000     0.510906835  0.510906835  0.259222488

  position of ions in fractional coordinates (direct lattice)
     0.000000000  0.000000000  0.000000000
     0.333333333  0.666666667  0.500000000

  ion indices of the primitive-cell ions
   primitive index   ion index
                 1           1
                 2           2

----------------------------------------------------------------------------------------

 
 
 KPOINTS: KPOINTS created by Atomic Simulation Env

Automatic generation of k-mesh.
 Grid dimensions read from file:
 generate k-points for:   11   11   11

 Generating k-lattice:

  Cartesian coordinates                     Fractional coordinates (reciprocal lattice)
     0.040223482  0.023223038  0.000000000     0.090909091  0.000000000  0.000000000
     0.000000000  0.046446076  0.000000000     0.000000000  0.090909091  0.000000000
     0.000000000  0.000000000  0.023565681     0.000000000  0.000000000  0.090909091

  Length of vectors
     0.046446076  0.046446076  0.023565681

  Shift w.r.t. Gamma in fractional coordinates (k-lattice)
     0.000000000  0.000000000  0.000000000

 
 Subroutine IBZKPT returns following result:
 ===========================================
 
 Found     96 irreducible k-points:
 
 Following reciprocal coordinates:
            Coordinates               Weight
  0.000000  0.000000  0.000000      1.000000
  0.090909 -0.000000  0.000000      6.000000
  0.181818  0.000000  0.000000      6.000000
  0.272727  0.000000  0.000000      6.000000
  0.363636  0.000000  0.000000      6.000000
  0.454545  0.000000  0.000000      6.000000
  0.090909  0.090909  0.000000      6.000000
  0.181818  0.090909  0.000000     12.000000
  0.272727  0.090909  0.000000     12.000000
  0.363636  0.090909  0.000000     12.000000
  0.454545  0.090909  0.000000      6.000000
  0.181818  0.181818  0.000000      6.000000
  0.272727  0.181818  0.000000     12.000000
  0.363636  0.181818  0.000000     12.000000
  0.272727  0.272727  0.000000      6.000000
  0.363636  0.272727  0.000000      6.000000
  0.000000  0.000000  0.090909      2.000000
  0.090909 -0.000000  0.090909     12.000000
  0.181818  0.000000  0.090909     12.000000
  0.272727  0.000000  0.090909     12.000000
  0.363636  0.000000  0.090909     12.000000
  0.454545  0.000000  0.090909     12.000000
  0.090909  0.090909  0.090909     12.000000
  0.181818  0.090909  0.090909     24.000000
  0.272727  0.090909  0.090909     24.000000
  0.363636  0.090909  0.090909     24.000000
  0.454545  0.090909  0.090909     12.000000
  0.181818  0.181818  0.090909     12.000000
  0.272727  0.181818  0.090909     24.000000
  0.363636  0.181818  0.090909     24.000000
  0.272727  0.272727  0.090909     12.000000
  0.363636  0.272727  0.090909     12.000000
  0.000000  0.000000  0.181818      2.000000
  0.090909 -0.000000  0.181818     12.000000
  0.181818  0.000000  0.181818     12.000000
  0.272727  0.000000  0.181818     12.000000
  0.363636  0.000000  0.181818     12.000000
  0.454545  0.000000  0.181818     12.000000
  0.090909  0.090909  0.181818     12.000000
  0.181818  0.090909  0.181818     24.000000
  0.272727  0.090909  0.181818     24.000000
  0.363636  0.090909  0.181818     24.000000
  0.454545  0.090909  0.181818     12.000000
  0.181818  0.181818  0.181818     12.000000
  0.272727  0.181818  0.181818     24.000000
  0.363636  0.181818  0.181818     24.000000
  0.272727  0.272727  0.181818     12.000000
  0.363636  0.272727  0.181818     12.000000
  0.000000  0.000000  0.272727      2.000000
  0.090909 -0.000000  0.272727     12.000000
  0.181818  0.000000  0.272727     12.000000
  0.272727  0.000000  0.272727     12.000000
  0.363636  0.000000  0.272727     12.000000
  0.454545  0.000000  0.272727     12.000000
  0.090909  0.090909  0.272727     12.000000
  0.181818  0.090909  0.272727     24.000000
  0.272727  0.090909  0.272727     24.000000
  0.363636  0.090909  0.272727     24.000000
  0.454545  0.090909  0.272727     12.000000
  0.181818  0.181818  0.272727     12.000000
  0.272727  0.181818  0.272727     24.000000
  0.363636  0.181818  0.272727     24.000000
  0.272727  0.272727  0.272727     12.000000
  0.363636  0.272727  0.272727     12.000000
  0.000000  0.000000  0.363636      2.000000
  0.090909 -0.000000  0.363636     12.000000
  0.181818  0.000000  0.363636     12.000000
  0.272727  0.000000  0.363636     12.000000
  0.363636  0.000000  0.363636     12.000000
  0.454545  0.000000  0.363636     12.000000
  0.090909  0.090909  0.363636     12.000000
  0.181818  0.090909  0.363636     24.000000
  0.272727  0.090909  0.363636     24.000000
  0.363636  0.090909  0.363636     24.000000
  0.454545  0.090909  0.363636     12.000000
  0.181818  0.181818  0.363636     12.000000
  0.272727  0.181818  0.363636     24.000000
  0.363636  0.181818  0.363636     24.000000
  0.272727  0.272727  0.363636     12.000000
  0.363636  0.272727  0.363636     12.000000
  0.000000  0.000000  0.454545      2.000000
  0.090909 -0.000000  0.454545     12.000000
  0.181818  0.000000  0.454545     12.000000
  0.272727  0.000000  0.454545     12.000000
  0.363636  0.000000  0.454545     12.000000
  0.454545  0.000000  0.454545     12.000000
  0.090909  0.090909  0.454545     12.000000
  0.181818  0.090909  0.454545     24.000000
  0.272727  0.090909  0.454545     24.000000
  0.363636  0.090909  0.454545     24.000000
  0.454545  0.090909  0.454545     12.000000
  0.181818  0.181818  0.454545     12.000000
  0.272727  0.181818  0.454545     24.000000
  0.363636  0.181818  0.454545     24.000000
  0.272727  0.272727  0.454545     12.000000
  0.363636  0.272727  0.454545     12.000000
 
 Following cartesian coordinates:
            Coordinates               Weight
  0.000000  0.000000  0.000000      1.000000
  0.040223  0.023223  0.000000      6.000000
  0.080447  0.046446  0.000000      6.000000
  0.120670  0.069669  0.000000      6.000000
  0.160894  0.092892  0.000000      6.000000
  0.201117  0.116115  0.000000      6.000000
  0.040223  0.069669  0.000000      6.000000
  0.080447  0.092892  0.000000     12.000000
  0.120670  0.116115  0.000000     12.000000
  0.160894  0.139338  0.000000     12.000000
  0.201117  0.162561  0.000000      6.000000
  0.080447  0.139338  0.000000      6.000000
  0.120670  0.162561  0.000000     12.000000
  0.160894  0.185784  0.000000     12.000000
  0.120670  0.209007  0.000000      6.000000
  0.160894  0.232230  0.000000      6.000000
  0.000000  0.000000  0.023566      2.000000
  0.040223  0.023223  0.023566     12.000000
  0.080447  0.046446  0.023566     12.000000
  0.120670  0.069669  0.023566     12.000000
  0.160894  0.092892  0.023566     12.000000
  0.201117  0.116115  0.023566     12.000000
  0.040223  0.069669  0.023566     12.000000
  0.080447  0.092892  0.023566     24.000000
  0.120670  0.116115  0.023566     24.000000
  0.160894  0.139338  0.023566     24.000000
  0.201117  0.162561  0.023566     12.000000
  0.080447  0.139338  0.023566     12.000000
  0.120670  0.162561  0.023566     24.000000
  0.160894  0.185784  0.023566     24.000000
  0.120670  0.209007  0.023566     12.000000
  0.160894  0.232230  0.023566     12.000000
  0.000000  0.000000  0.047131      2.000000
  0.040223  0.023223  0.047131     12.000000
  0.080447  0.046446  0.047131     12.000000
  0.120670  0.069669  0.047131     12.000000
  0.160894  0.092892  0.047131     12.000000
  0.201117  0.116115  0.047131     12.000000
  0.040223  0.069669  0.047131     12.000000
  0.080447  0.092892  0.047131     24.000000
  0.120670  0.116115  0.047131     24.000000
  0.160894  0.139338  0.047131     24.000000
  0.201117  0.162561  0.047131     12.000000
  0.080447  0.139338  0.047131     12.000000
  0.120670  0.162561  0.047131     24.000000
  0.160894  0.185784  0.047131     24.000000
  0.120670  0.209007  0.047131     12.000000
  0.160894  0.232230  0.047131     12.000000
  0.000000  0.000000  0.070697      2.000000
  0.040223  0.023223  0.070697     12.000000
  0.080447  0.046446  0.070697     12.000000
  0.120670  0.069669  0.070697     12.000000
  0.160894  0.092892  0.070697     12.000000
  0.201117  0.116115  0.070697     12.000000
  0.040223  0.069669  0.070697     12.000000
  0.080447  0.092892  0.070697     24.000000
  0.120670  0.116115  0.070697     24.000000
  0.160894  0.139338  0.070697     24.000000
  0.201117  0.162561  0.070697     12.000000
  0.080447  0.139338  0.070697     12.000000
  0.120670  0.162561  0.070697     24.000000
  0.160894  0.185784  0.070697     24.000000
  0.120670  0.209007  0.070697     12.000000
  0.160894  0.232230  0.070697     12.000000
  0.000000  0.000000  0.094263      2.000000
  0.040223  0.023223  0.094263     12.000000
  0.080447  0.046446  0.094263     12.000000
  0.120670  0.069669  0.094263     12.000000
  0.160894  0.092892  0.094263     12.000000
  0.201117  0.116115  0.094263     12.000000
  0.040223  0.069669  0.094263     12.000000
  0.080447  0.092892  0.094263     24.000000
  0.120670  0.116115  0.094263     24.000000
  0.160894  0.139338  0.094263     24.000000
  0.201117  0.162561  0.094263     12.000000
  0.080447  0.139338  0.094263     12.000000
  0.120670  0.162561  0.094263     24.000000
  0.160894  0.185784  0.094263     24.000000
  0.120670  0.209007  0.094263     12.000000
  0.160894  0.232230  0.094263     12.000000
  0.000000  0.000000  0.117828      2.000000
  0.040223  0.023223  0.117828     12.000000
  0.080447  0.046446  0.117828     12.000000
  0.120670  0.069669  0.117828     12.000000
  0.160894  0.092892  0.117828     12.000000
  0.201117  0.116115  0.117828     12.000000
  0.040223  0.069669  0.117828     12.000000
  0.080447  0.092892  0.117828     24.000000
  0.120670  0.116115  0.117828     24.000000
  0.160894  0.139338  0.117828     24.000000
  0.201117  0.162561  0.117828     12.000000
  0.080447  0.139338  0.117828     12.000000
  0.120670  0.162561  0.117828     24.000000
  0.160894  0.185784  0.117828     24.000000
  0.120670  0.209007  0.117828     12.000000
  0.160894  0.232230  0.117828     12.000000
 


--------------------------------------------------------------------------------------------------------




 Dimension of arrays:
   k-points           NKPTS =     96   k-points in BZ     NKDIM =     96   number of bands    NBANDS=     40
   number of dos      NEDOS =    301   number of ions     NIONS =      2
   non local maximal  LDIM  =      6   non local SUM 2l+1 LMDIM =     18
   total plane-waves  NPLWV =   1600
   max r-space proj   IRMAX =      1   max aug-charges    IRDMAX=   3539
   dimension x,y,z NGX =    10 NGY =   10 NGZ =   16
   dimension x,y,z NGXF=    20 NGYF=   20 NGZF=   32
   support grid    NGXF=    20 NGYF=   20 NGZF=   32
   ions per type =               2
   NGX,Y,Z   is equivalent  to a cutoff of   7.36,  7.36,  6.90 a.u.
   NGXF,Y,Z  is equivalent  to a cutoff of  14.71, 14.71, 13.79 a.u.

 SYSTEM =  unknown system                          
 POSCAR =  Fe                                      

 Startparameter for this run:
   NWRITE =      2    write-flag & timer
   PREC   = normal    normal or accurate (medium, high low for compatibility)
   ISTART =      0    job   : 0-new  1-cont  2-samecut
   ICHARG =      1    charge: 1-file 2-atom 10-const
   ISPIN  =      1    spin polarized calculation?
   LNONCOLLINEAR =      F non collinear calculations
   LSORBIT =      F    spin-orbit coupling
   INIWAV =      1    electr: 0-lowe 1-rand  2-diag
   LASPH  =      F    aspherical Exc in radial PAW
   METAGGA=      F    non-selfconsistent MetaGGA calc.

 Electronic Relaxation 1
   ENCUT  =  280.0 eV  20.58 Ry    4.54 a.u.   3.08  3.08  5.26*2*pi/ulx,y,z
   ENINI  =  280.0     initial cutoff
   ENAUG  =  511.4 eV  augmentation charge cutoff
   NELM   =     60;   NELMIN=  2; NELMDL= -5     # of ELM steps 
   EDIFF  = 0.1E-05   stopping-criterion for ELM
   LREAL  =      F    real-space projection
   NLSPLINE    = F    spline interpolate recip. space projectors
   LCOMPAT=      F    compatible to vasp.4.4
   GGA_COMPAT  = T    GGA compatible to vasp.4.4-vasp.4.6
   LMAXPAW     = -100 max onsite density
   LMAXMIX     =    2 max onsite mixed and CHGCAR
   VOSKOWN=      0    Vosko Wilk Nusair interpolation
   ROPT   =    0.00000
 Ionic relaxation
   EDIFFG = 0.1E-04   stopping-criterion for IOM
   NSW    =      0    number of steps for IOM
   NBLOCK =      1;   KBLOCK =      1    inner block; outer block 
   IBRION =     -1    ionic relax: 0-MD 1-quasi-New 2-CG
   NFREE  =      0    steps in history (QN), initial steepest desc. (CG)
   ISIF   =      2    stress and relaxation
   IWAVPR =      0    prediction:  0-non 1-charg 2-wave 3-comb
   ISYM   =      2    0-nonsym 1-usesym 2-fastsym
   LCORR  =      T    Harris-Foulkes like correction to forces

   POTIM  = 0.5000    time-step for ionic-motion
   TEIN   =    0.0    initial temperature
   TEBEG  =    0.0;   TEEND  =   0.0 temperature during run
   SMASS  =  -3.00    Nose mass-parameter (am)
   estimated Nose-frequenzy (Omega)   =  0.10E-29 period in steps = 0.13E+47 mass=  -0.117E-27a.u.
   SCALEE = 1.0000    scale energy and forces
   NPACO  =    256;   APACO  = 16.0  distance and # of slots for P.C.
   PSTRESS=    0.0 pullay stress

  Mass of Ions in am
   POMASS =  55.85
  Ionic Valenz
   ZVAL   =   8.00
  Atomic Wigner-Seitz radii
   RWIGS  =  -1.00
  virtual crystal weights 
   VCA    =   1.00
   NELECT =      16.0000    total number of electrons
   NUPDOWN=      -1.0000    fix difference up-down

 DOS related values:
   EMIN   =  10.00;   EMAX   =-10.00  energy-range for DOS
   EFERMI =   0.00
   ISMEAR =     1;   SIGMA  =   0.20  broadening in eV -4-tet -1-fermi 0-gaus

 Electronic relaxation 2 (details)
   IALGO  =     38    algorithm
   LDIAG  =      T    sub-space diagonalisation (order eigenvalues)
   LSUBROT=      F    optimize rotation matrix (better conditioning)
   TURBO    =      0    0=normal 1=particle mesh
   IRESTART =      0    0=no restart 2=restart with 2 vectors
   NREBOOT  =      0    no. of reboots
   NMIN     =      0    reboot dimension
   EREF     =   0.00    reference energy to select bands
   IMIX   =      4    mixing-type and parameters
     AMIX     =   0.40;   BMIX     =  1.00
     AMIX_MAG =   1.60;   BMIX_MAG =  1.00
     AMIN     =   0.10
     WC   =   100.;   INIMIX=   1;  MIXPRE=   1;  MAXMIX= -45

 Intra band minimization:
   WEIMIN = 0.0000     energy-eigenvalue tresh-hold
   EBREAK =  0.62E-08  absolut break condition
   DEPER  =   0.30     relativ break condition  

   TIME   =   0.40     timestep for ELM

  volume/ion in A,a.u.               =       8.53        57.58
  Fermi-wavevector in a.u.,A,eV,Ry     =   1.602300  3.027907 34.931110  2.567364
  Thomas-Fermi vector in A             =   2.699142
 
 Write flags
   LWAVE        =      T    write WAVECAR
   LDOWNSAMPLE  =      F    k-point downsampling of WAVECAR
   LCHARG       =      T    write CHGCAR
   LVTOT        =      F    write LOCPOT, total local potential
   LVHAR        =      F    write LOCPOT, Hartree potential only
   LELF         =      F    write electronic localiz. function (ELF)
   LORBIT       =      0    0 simple, 1 ext, 2 COOP (PROOUT), +10 PAW based schemes


 Dipole corrections
   LMONO  =      F    monopole corrections only (constant potential shift)
   LDIPOL =      F    correct potential (dipole corrections)
   IDIPOL =      0    1-x, 2-y, 3-z, 4-all directions 
   EPSILON=  1.0000000 bulk dielectric constant

 Exchange correlation treatment:
   GGA     =    PE    GGA type
   LEXCH   =     8    internal setting for exchange type
   VOSKOWN=      0    Vosko Wilk Nusair interpolation
   LHFCALC =     F    Hartree Fock is set to
   LHFONE  =     F    Hartree Fock one center treatment
   AEXX    =    0.0000 exact exchange contribution

 Linear response parameters
   LEPSILON=     F    determine dielectric tensor
   LRPA    =     F    only Hartree local field effects (RPA)
   LNABLA  =     F    use nabla operator in PAW spheres
   LVEL    =     F    velocity operator in full k-point grid
   LINTERFAST=   F  fast interpolation
   KINTER  =     0    interpolate to denser k-point grid
   CSHIFT  =0.1000    complex shift for real part using Kramers Kronig
   OMEGAMAX=  -1.0    maximum frequency
   DEG_THRESHOLD= 0.2000000E-02 threshold for treating states as degnerate
   RTIME   =   -0.100 relaxation time in fs
  (WPLASMAI=    0.000 imaginary part of plasma frequency in eV, 0.658/RTIME)
   DFIELD  = 0.0000000 0.0000000 0.0000000 field for delta impulse in time
 
 Orbital magnetization related:
   ORBITALMAG=     F  switch on orbital magnetization
   LCHIMAG   =     F  perturbation theory with respect to B field
   DQ        =  0.001000  dq finite difference perturbation B field
   LLRAUG    =     F  two centre corrections for induced B field



--------------------------------------------------------------------------------------------------------


 Static calculation
 charge density and potential will be updated during run
 non-spin polarized calculation
 Variant of blocked Davidson
 Davidson routine will perform the subspace rotation
 perform sub-space diagonalisation
    after iterative eigenvector-optimisation
 modified Broyden-mixing scheme, WC =      100.0
 initial mixing is a Kerker type mixing with AMIX =  0.4000 and BMIX =      1.0000
 Hartree-type preconditioning will be used
 using additional bands           32
 reciprocal scheme for non local part
 use partial core corrections
 calculate Harris-corrections to forces 
   (improved forces if not selfconsistent)
 use gradient corrections 
 use of overlap-Matrix (Vanderbilt PP)
 Methfessel and Paxton  Order N= 1 SIGMA  =   0.20


--------------------------------------------------------------------------------------------------------


  energy-cutoff  :      280.00
  volume of cell :       17.07
      direct lattice vectors                 reciprocal lattice vectors
     2.260100000  0.000000000  0.000000000     0.442458298  0.255453418  0.000000000
    -1.130050000  1.957304015  0.000000000     0.000000000  0.510906835  0.000000000
     0.000000000  0.000000000  3.857690000     0.000000000  0.000000000  0.259222488

  length of vectors
     2.260100000  2.260100000  3.857690000     0.510906835  0.510906835  0.259222488


 
 k-points in units of 2pi/SCALE and weight: KPOINTS created by Atomic Simulation Env
   0.00000000  0.00000000  0.00000000       0.001
   0.04022348  0.02322304  0.00000000       0.005
   0.08044696  0.04644608  0.00000000       0.005
   0.12067044  0.06966911  0.00000000       0.005
   0.16089393  0.09289215  0.00000000       0.005
   0.20111741  0.11611519  0.00000000       0.005
   0.04022348  0.06966911  0.00000000       0.005
   0.08044696  0.09289215  0.00000000       0.009
   0.12067044  0.11611519  0.00000000       0.009
   0.16089393  0.13933823  0.00000000       0.009
   0.20111741  0.16256127  0.00000000       0.005
   0.08044696  0.13933823  0.00000000       0.005
   0.12067044  0.16256127  0.00000000       0.009
   0.16089393  0.18578430  0.00000000       0.009
   0.12067044  0.20900734  0.00000000       0.005
   0.16089393  0.23223038  0.00000000       0.005
   0.00000000  0.00000000  0.02356568       0.002
   0.04022348  0.02322304  0.02356568       0.009
   0.08044696  0.04644608  0.02356568       0.009
   0.12067044  0.06966911  0.02356568       0.009
   0.16089393  0.09289215  0.02356568       0.009
   0.20111741  0.11611519  0.02356568       0.009
   0.04022348  0.06966911  0.02356568       0.009
   0.08044696  0.09289215  0.02356568       0.018
   0.12067044  0.11611519  0.02356568       0.018
   0.16089393  0.13933823  0.02356568       0.018
   0.20111741  0.16256127  0.02356568       0.009
   0.08044696  0.13933823  0.02356568       0.009
   0.12067044  0.16256127  0.02356568       0.018
   0.16089393  0.18578430  0.02356568       0.018
   0.12067044  0.20900734  0.02356568       0.009
   0.16089393  0.23223038  0.02356568       0.009
   0.00000000  0.00000000  0.04713136       0.002
   0.04022348  0.02322304  0.04713136       0.009
   0.08044696  0.04644608  0.04713136       0.009
   0.12067044  0.06966911  0.04713136       0.009
   0.16089393  0.09289215  0.04713136       0.009
   0.20111741  0.11611519  0.04713136       0.009
   0.04022348  0.06966911  0.04713136       0.009
   0.08044696  0.09289215  0.04713136       0.018
   0.12067044  0.11611519  0.04713136       0.018
   0.16089393  0.13933823  0.04713136       0.018
   0.20111741  0.16256127  0.04713136       0.009
   0.08044696  0.13933823  0.04713136       0.009
   0.12067044  0.16256127  0.04713136       0.018
   0.16089393  0.18578430  0.04713136       0.018
   0.12067044  0.20900734  0.04713136       0.009
   0.16089393  0.23223038  0.04713136       0.009
   0.00000000  0.00000000  0.07069704       0.002
   0.04022348  0.02322304  0.07069704       0.009
   0.08044696  0.04644608  0.07069704       0.009
   0.12067044  0.06966911  0.07069704       0.009
   0.16089393  0.09289215  0.07069704       0.009
   0.20111741  0.11611519  0.07069704       0.009
   0.04022348  0.06966911  0.07069704       0.009
   0.08044696  0.09289215  0.07069704       0.018
   0.12067044  0.11611519  0.07069704       0.018
   0.16089393  0.13933823  0.07069704       0.018
   0.20111741  0.16256127  0.07069704       0.009
   0.08044696  0.13933823  0.07069704       0.009
   0.12067044  0.16256127  0.07069704       0.018
   0.16089393  0.18578430  0.07069704       0.018
   0.12067044  0.20900734  0.07069704       0.009
   0.16089393  0.23223038  0.07069704       0.009
   0.00000000  0.00000000  0.09426272       0.002
   0.04022348  0.02322304  0.09426272       0.009
   0.08044696  0.04644608  0.09426272       0.009
   0.12067044  0.06966911  0.09426272       0.009
   0.16089393  0.09289215  0.09426272       0.009
   0.20111741  0.11611519  0.09426272       0.009
   0.04022348  0.06966911  0.09426272       0.009
   0.08044696  0.09289215  0.09426272       0.018
   0.12067044  0.11611519  0.09426272       0.018
   0.16089393  0.13933823  0.09426272       0.018
   0.20111741  0.16256127  0.09426272       0.009
   0.08044696  0.13933823  0.09426272       0.009
   0.12067044  0.16256127  0.09426272       0.018
   0.16089393  0.18578430  0.09426272       0.018
   0.12067044  0.20900734  0.09426272       0.009
   0.16089393  0.23223038  0.09426272       0.009
   0.00000000  0.00000000  0.11782840       0.002
   0.04022348  0.02322304  0.11782840       0.009
   0.08044696  0.04644608  0.11782840       0.009
   0.12067044  0.06966911  0.11782840       0.009
   0.16089393  0.09289215  0.11782840       0.009
   0.20111741  0.11611519  0.11782840       0.009
   0.04022348  0.06966911  0.11782840       0.009
   0.08044696  0.09289215  0.11782840       0.018
   0.12067044  0.11611519  0.11782840       0.018
   0.16089393  0.13933823  0.11782840       0.018
   0.20111741  0.16256127  0.11782840       0.009
   0.08044696  0.13933823  0.11782840       0.009
   0.12067044  0.16256127  0.11782840       0.018
   0.16089393  0.18578430  0.11782840       0.018
   0.12067044  0.20900734  0.11782840       0.009
   0.16089393  0.23223038  0.11782840       0.009
 
 k-points in reciprocal lattice and weights: KPOINTS created by Atomic Simulation Env
   0.00000000  0.00000000  0.00000000       0.001
   0.09090909 -0.00000000  0.00000000       0.005
   0.18181818  0.00000000  0.00000000       0.005
   0.27272727  0.00000000  0.00000000       0.005
   0.36363636  0.00000000  0.00000000       0.005
   0.45454545  0.00000000  0.00000000       0.005
   0.09090909  0.09090909  0.00000000       0.005
   0.18181818  0.09090909  0.00000000       0.009
   0.27272727  0.09090909  0.00000000       0.009
   0.36363636  0.09090909  0.00000000       0.009
   0.45454545  0.09090909  0.00000000       0.005
   0.18181818  0.18181818  0.00000000       0.005
   0.27272727  0.18181818  0.00000000       0.009
   0.36363636  0.18181818  0.00000000       0.009
   0.27272727  0.27272727  0.00000000       0.005
   0.36363636  0.27272727  0.00000000       0.005
   0.00000000  0.00000000  0.09090909       0.002
   0.09090909 -0.00000000  0.09090909       0.009
   0.18181818  0.00000000  0.09090909       0.009
   0.27272727  0.00000000  0.09090909       0.009
   0.36363636  0.00000000  0.09090909       0.009
   0.45454545  0.00000000  0.09090909       0.009
   0.09090909  0.09090909  0.09090909       0.009
   0.18181818  0.09090909  0.09090909       0.018
   0.27272727  0.09090909  0.09090909       0.018
   0.36363636  0.09090909  0.09090909       0.018
   0.45454545  0.09090909  0.09090909       0.009
   0.18181818  0.18181818  0.09090909       0.009
   0.27272727  0.18181818  0.09090909       0.018
   0.36363636  0.18181818  0.09090909       0.018
   0.27272727  0.27272727  0.09090909       0.009
   0.36363636  0.27272727  0.09090909       0.009
   0.00000000  0.00000000  0.18181818       0.002
   0.09090909 -0.00000000  0.18181818       0.009
   0.18181818  0.00000000  0.18181818       0.009
   0.27272727  0.00000000  0.18181818       0.009
   0.36363636  0.00000000  0.18181818       0.009
   0.45454545  0.00000000  0.18181818       0.009
   0.09090909  0.09090909  0.18181818       0.009
   0.18181818  0.09090909  0.18181818       0.018
   0.27272727  0.09090909  0.18181818       0.018
   0.36363636  0.09090909  0.18181818       0.018
   0.45454545  0.09090909  0.18181818       0.009
   0.18181818  0.18181818  0.18181818       0.009
   0.27272727  0.18181818  0.18181818       0.018
   0.36363636  0.18181818  0.18181818       0.018
   0.27272727  0.27272727  0.18181818       0.009
   0.36363636  0.27272727  0.18181818       0.009
   0.00000000  0.00000000  0.27272727       0.002
   0.09090909 -0.00000000  0.27272727       0.009
   0.18181818  0.00000000  0.27272727       0.009
   0.27272727  0.00000000  0.27272727       0.009
   0.36363636  0.00000000  0.27272727       0.009
   0.45454545  0.00000000  0.27272727       0.009
   0.09090909  0.09090909  0.27272727       0.009
   0.18181818  0.09090909  0.27272727       0.018
   0.27272727  0.09090909  0.27272727       0.018
   0.36363636  0.09090909  0.27272727       0.018
   0.45454545  0.09090909  0.27272727       0.009
   0.18181818  0.18181818  0.27272727       0.009
   0.27272727  0.18181818  0.27272727       0.018
   0.36363636  0.18181818  0.27272727       0.018
   0.27272727  0.27272727  0.27272727       0.009
   0.36363636  0.27272727  0.27272727       0.009
   0.00000000  0.00000000  0.36363636       0.002
   0.09090909 -0.00000000  0.36363636       0.009
   0.18181818  0.00000000  0.36363636       0.009
   0.27272727  0.00000000  0.36363636       0.009
   0.36363636  0.00000000  0.36363636       0.009
   0.45454545  0.00000000  0.36363636       0.009
   0.09090909  0.09090909  0.36363636       0.009
   0.18181818  0.09090909  0.36363636       0.018
   0.27272727  0.09090909  0.36363636       0.018
   0.36363636  0.09090909  0.36363636       0.018
   0.45454545  0.09090909  0.36363636       0.009
   0.18181818  0.18181818  0.36363636       0.009
   0.27272727  0.18181818  0.36363636       0.018
   0.36363636  0.18181818  0.36363636       0.018
   0.27272727  0.27272727  0.36363636       0.009
   0.36363636  0.27272727  0.36363636       0.009
   0.00000000  0.00000000  0.45454545       0.002
   0.09090909 -0.00000000  0.45454545       0.009
   0.18181818  0.00000000  0.45454545       0.009
   0.27272727  0.00000000  0.45454545       0.009
   0.36363636  0.00000000  0.45454545       0.009
   0.45454545  0.00000000  0.45454545       0.009
   0.09090909  0.09090909  0.45454545       0.009
   0.18181818  0.09090909  0.45454545       0.018
   0.27272727  0.09090909  0.45454545       0.018
   0.36363636  0.09090909  0.45454545       0.018
   0.45454545  0.09090909  0.45454545       0.009
   0.18181818  0.18181818  0.45454545       0.009
   0.27272727  0.18181818  0.45454545       0.018
   0.36363636  0.18181818  0.45454545       0.018
   0.27272727  0.27272727  0.45454545       0.009
   0.36363636  0.27272727  0.45454545       0.009
 
 position of ions in fractional coordinates (direct lattice) 
   0.00000000  0.00000000  0.00000000
   0.33333333  0.66666667  0.50000000
 
 position of ions in cartesian coordinates  (Angst):
   0.00000000  0.00000000  0.00000000
   0.00000000  1.30486934  1.92884500
 


--------------------------------------------------------------------------------------------------------


 k-point   1 :   0.0000 0.0000 0.0000  plane waves:     173
 k-point   2 :   0.0909-0.0000 0.0000  plane waves:     173
 k-point   3 :   0.1818 0.0000 0.0000  plane waves:     173
 k-point   4 :   0.2727 0.0000 0.0000  plane waves:     181
 k-point   5 :   0.3636 0.0000 0.0000  plane waves:     178
 k-point   6 :   0.4545 0.0000 0.0000  plane waves:     180
 k-point   7 :   0.0909 0.0909 0.0000  plane waves:     173
 k-point   8 :   0.1818 0.0909 0.0000  plane waves:     179
 k-point   9 :   0.2727 0.0909 0.0000  plane waves:     179
 k-point  10 :   0.3636 0.0909 0.0000  plane waves:     183
 k-point  11 :   0.4545 0.0909 0.0000  plane waves:     181
 k-point  12 :   0.1818 0.1818 0.0000  plane waves:     185
 k-point  13 :   0.2727 0.1818 0.0000  plane waves:     186
 k-point  14 :   0.3636 0.1818 0.0000  plane waves:     191
 k-point  15 :   0.2727 0.2727 0.0000  plane waves:     193
 k-point  16 :   0.3636 0.2727 0.0000  plane waves:     189
 k-point  17 :   0.0000 0.0000 0.0909  plane waves:     167
 k-point  18 :   0.0909-0.0000 0.0909  plane waves:     176
 k-point  19 :   0.1818 0.0000 0.0909  plane waves:     175
 k-point  20 :   0.2727 0.0000 0.0909  plane waves:     183
 k-point  21 :   0.3636 0.0000 0.0909  plane waves:     184
 k-point  22 :   0.4545 0.0000 0.0909  plane waves:     183
 k-point  23 :   0.0909 0.0909 0.0909  plane waves:     175
 k-point  24 :   0.1818 0.0909 0.0909  plane waves:     177
 k-point  25 :   0.2727 0.0909 0.0909  plane waves:     177
 k-point  26 :   0.3636 0.0909 0.0909  plane waves:     182
 k-point  27 :   0.4545 0.0909 0.0909  plane waves:     181
 k-point  28 :   0.1818 0.1818 0.0909  plane waves:     179
 k-point  29 :   0.2727 0.1818 0.0909  plane waves:     184
 k-point  30 :   0.3636 0.1818 0.0909  plane waves:     189
 k-point  31 :   0.2727 0.2727 0.0909  plane waves:     192
 k-point  32 :   0.3636 0.2727 0.0909  plane waves:     191
 k-point  33 :   0.0000 0.0000 0.1818  plane waves:     173
 k-point  34 :   0.0909-0.0000 0.1818  plane waves:     178
 k-point  35 :   0.1818 0.0000 0.1818  plane waves:     176
 k-point  36 :   0.2727 0.0000 0.1818  plane waves:     177
 k-point  37 :   0.3636 0.0000 0.1818  plane waves:     183
 k-point  38 :   0.4545 0.0000 0.1818  plane waves:     184
 k-point  39 :   0.0909 0.0909 0.1818  plane waves:     177
 k-point  40 :   0.1818 0.0909 0.1818  plane waves:     181
 k-point  41 :   0.2727 0.0909 0.1818  plane waves:     179
 k-point  42 :   0.3636 0.0909 0.1818  plane waves:     181
 k-point  43 :   0.4545 0.0909 0.1818  plane waves:     181
 k-point  44 :   0.1818 0.1818 0.1818  plane waves:     181
 k-point  45 :   0.2727 0.1818 0.1818  plane waves:     184
 k-point  46 :   0.3636 0.1818 0.1818  plane waves:     183
 k-point  47 :   0.2727 0.2727 0.1818  plane waves:     189
 k-point  48 :   0.3636 0.2727 0.1818  plane waves:     188
 k-point  49 :   0.0000 0.0000 0.2727  plane waves:     172
 k-point  50 :   0.0909-0.0000 0.2727  plane waves:     178
 k-point  51 :   0.1818 0.0000 0.2727  plane waves:     175
 k-point  52 :   0.2727 0.0000 0.2727  plane waves:     181
 k-point  53 :   0.3636 0.0000 0.2727  plane waves:     182
 k-point  54 :   0.4545 0.0000 0.2727  plane waves:     183
 k-point  55 :   0.0909 0.0909 0.2727  plane waves:     177
 k-point  56 :   0.1818 0.0909 0.2727  plane waves:     178
 k-point  57 :   0.2727 0.0909 0.2727  plane waves:     179
 k-point  58 :   0.3636 0.0909 0.2727  plane waves:     178
 k-point  59 :   0.4545 0.0909 0.2727  plane waves:     184
 k-point  60 :   0.1818 0.1818 0.2727  plane waves:     180
 k-point  61 :   0.2727 0.1818 0.2727  plane waves:     184
 k-point  62 :   0.3636 0.1818 0.2727  plane waves:     183
 k-point  63 :   0.2727 0.2727 0.2727  plane waves:     185
 k-point  64 :   0.3636 0.2727 0.2727  plane waves:     187
 k-point  65 :   0.0000 0.0000 0.3636  plane waves:     184
 k-point  66 :   0.0909-0.0000 0.3636  plane waves:     176
 k-point  67 :   0.1818 0.0000 0.3636  plane waves:     180
 k-point  68 :   0.2727 0.0000 0.3636  plane waves:     177
 k-point  69 :   0.3636 0.0000 0.3636  plane waves:     184
 k-point  70 :   0.4545 0.0000 0.3636  plane waves:     182
 k-point  71 :   0.0909 0.0909 0.3636  plane waves:     178
 k-point  72 :   0.1818 0.0909 0.3636  plane waves:     180
 k-point  73 :   0.2727 0.0909 0.3636  plane waves:     181
 k-point  74 :   0.3636 0.0909 0.3636  plane waves:     182
 k-point  75 :   0.4545 0.0909 0.3636  plane waves:     182
 k-point  76 :   0.1818 0.1818 0.3636  plane waves:     182
 k-point  77 :   0.2727 0.1818 0.3636  plane waves:     182
 k-point  78 :   0.3636 0.1818 0.3636  plane waves:     184
 k-point  79 :   0.2727 0.2727 0.3636  plane waves:     184
 k-point  80 :   0.3636 0.2727 0.3636  plane waves:     187
 k-point  81 :   0.0000 0.0000 0.4545  plane waves:     184
 k-point  82 :   0.0909-0.0000 0.4545  plane waves:     174
 k-point  83 :   0.1818 0.0000 0.4545  plane waves:     180
 k-point  84 :   0.2727 0.0000 0.4545  plane waves:     180
 k-point  85 :   0.3636 0.0000 0.4545  plane waves:     179
 k-point  86 :   0.4545 0.0000 0.4545  plane waves:     186
 k-point  87 :   0.0909 0.0909 0.4545  plane waves:     180
 k-point  88 :   0.1818 0.0909 0.4545  plane waves:     182
 k-point  89 :   0.2727 0.0909 0.4545  plane waves:     183
 k-point  90 :   0.3636 0.0909 0.4545  plane waves:     183
 k-point  91 :   0.4545 0.0909 0.4545  plane waves:     184
 k-point  92 :   0.1818 0.1818 0.4545  plane waves:     183
 k-point  93 :   0.2727 0.1818 0.4545  plane waves:     183
 k-point  94 :   0.3636 0.1818 0.4545  plane waves:     185
 k-point  95 :   0.2727 0.2727 0.4545  plane waves:     180
 k-point  96 :   0.3636 0.2727 0.4545  plane waves:     183

 maximum number of plane-waves:       193
 maximum index in each direction: 
   IXMAX=    3   IYMAX=    3   IZMAX=    5
   IXMIN=   -3   IYMIN=   -3   IZMIN=   -5


 total amount of memory used by VASP MPI-rank0    47495. kBytes
=======================================================================

   base      :      30000. kBytes
   nonl-proj :       2674. kBytes
   grid      :        721. kBytes
   one-center:         31. kBytes
   wavefun   :      14069. kBytes
 
     INWAV:  cpu time    0.0000: real time    0.0000
 Broyden mixing: mesh for mixing (old mesh)
   NGX =  7   NGY =  7   NGZ = 11
  (NGX  = 20   NGY  = 20   NGZ  = 32)
  gives a total of    539 points

 initial charge density was supplied:
 charge density of overlapping atoms calculated
 number of electron      16.0000000 magnetization 
 keeping initial charge density in first step


--------------------------------------------------------------------------------------------------------


 Maximum index for augmentation-charges         3239 (set IRDMAX)


--------------------------------------------------------------------------------------------------------


 First call to EWALD:  gamma=   0.688
 Maximum number of real-space cells 3x 3x 2
 Maximum number of reciprocal cells 2x 2x 4

    FEWALD:  cpu time    0.0008: real time    0.0008


--------------------------------------- Iteration      1(   1)  ---------------------------------------


    POTLOK:  cpu time    0.0031: real time    0.0031
    SETDIJ:  cpu time    0.0022: real time    0.0022
     EDDAV:  cpu time    0.7680: real time    0.7873
       DOS:  cpu time    0.0055: real time    0.0055
    --------------------------------------------
      LOOP:  cpu time    0.7788: real time    0.7981

 eigenvalue-minimisations  :  9536
 total energy-change (2. order) : 0.5990303E+02  (-0.2396320E+03)
 number of electron      16.0000000 magnetization 
 augmentation part       16.0000000 magnetization 

 Free energy of the ion-electron system (eV)
  ---------------------------------------------------
  alpha Z        PSCENC =       161.99863116
  Ewald energy   TEWEN  =     -1302.20843287
  -Hartree energ DENC   =      -181.15335689
  -exchange      EXHF   =         0.00000000
  -V(xc)+E(xc)   XCENC  =         9.68729895
  PAW double counting   =      1109.69170683    -1125.09647265
  entropy T*S    EENTRO =         0.00414795
  eigenvalues    EBANDS =       198.40459449
  atomic energy  EATOM  =      1188.57490811
  Solvation  Ediel_sol  =         0.00000000
  ---------------------------------------------------
  free energy    TOTEN  =        59.90302509 eV

  energy without entropy =       59.89887713  energy(sigma->0) =       59.90164244


--------------------------------------------------------------------------------------------------------




--------------------------------------- Iteration      1(   2)  ---------------------------------------


     EDDAV:  cpu time    0.6228: real time    0.6229
       DOS:  cpu time    0.0057: real time    0.0057
    --------------------------------------------
      LOOP:  cpu time    0.6285: real time    0.6285

 eigenvalue-minimisations  :  7936
 total energy-change (2. order) :-0.7420538E+02  (-0.6340223E+02)
 number of electron      16.0000000 magnetization 
 augmentation part       16.0000000 magnetization 

 Free energy of the ion-electron system (eV)
  ---------------------------------------------------
  alpha Z        PSCENC =       161.99863116
  Ewald energy   TEWEN  =     -1302.20843287
  -Hartree energ DENC   =      -181.15335689
  -exchange      EXHF   =         0.00000000
  -V(xc)+E(xc)   XCENC  =         9.68729895
  PAW double counting   =      1109.69170683    -1125.09647265
  entropy T*S    EENTRO =        -0.00101972
  eigenvalues    EBANDS =       124.20438275
  atomic energy  EATOM  =      1188.57490811
  Solvation  Ediel_sol  =         0.00000000
  ---------------------------------------------------
  free energy    TOTEN  =       -14.30235432 eV

  energy without entropy =      -14.30133460  energy(sigma->0) =      -14.30201441


--------------------------------------------------------------------------------------------------------




--------------------------------------- Iteration      1(   3)  ---------------------------------------


     EDDAV:  cpu time    0.7198: real time    0.7198
       DOS:  cpu time    0.0060: real time    0.0060
    --------------------------------------------
      LOOP:  cpu time    0.7258: real time    0.7259

 eigenvalue-minimisations  :  9552
 total energy-change (2. order) :-0.3885745E+01  (-0.3733930E+01)
 number of electron      16.0000000 magnetization 
 augmentation part       16.0000000 magnetization 

 Free energy of the ion-electron system (eV)
  ---------------------------------------------------
  alpha Z        PSCENC =       161.99863116
  Ewald energy   TEWEN  =     -1302.20843287
  -Hartree energ DENC   =      -181.15335689
  -exchange      EXHF   =         0.00000000
  -V(xc)+E(xc)   XCENC  =         9.68729895
  PAW double counting   =      1109.69170683    -1125.09647265
  entropy T*S    EENTRO =        -0.00050223
  eigenvalues    EBANDS =       120.31812016
  atomic energy  EATOM  =      1188.57490811
  Solvation  Ediel_sol  =         0.00000000
  ---------------------------------------------------
  free energy    TOTEN  =       -18.18809942 eV

  energy without entropy =      -18.18759719  energy(sigma->0) =      -18.18793201


--------------------------------------------------------------------------------------------------------




--------------------------------------- Iteration      1(   4)  ---------------------------------------


     EDDAV:  cpu time    0.6526: real time    0.6526
       DOS:  cpu time    0.0061: real time    0.0061
    --------------------------------------------
      LOOP:  cpu time    0.6587: real time    0.6587

 eigenvalue-minimisations  :  8648
 total energy-change (2. order) :-0.1206542E-01  (-0.1206054E-01)
 number of electron      16.0000000 magnetization 
 augmentation part       16.0000000 magnetization 

 Free energy of the ion-electron system (eV)
  ---------------------------------------------------
  alpha Z        PSCENC =       161.99863116
  Ewald energy   TEWEN  =     -1302.20843287
  -Hartree energ DENC   =      -181.15335689
  -exchange      EXHF   =         0.00000000
  -V(xc)+E(xc)   XCENC  =         9.68729895
  PAW double counting   =      1109.69170683    -1125.09647265
  entropy T*S    EENTRO =        -0.00051386
  eigenvalues    EBANDS =       120.30606637
  atomic energy  EATOM  =      1188.57490811
  Solvation  Ediel_sol  =         0.00000000
  ---------------------------------------------------
  free energy    TOTEN  =       -18.20016485 eV

  energy without entropy =      -18.19965098  energy(sigma->0) =      -18.19999356


--------------------------------------------------------------------------------------------------------




--------------------------------------- Iteration      1(   5)  ---------------------------------------


     EDDAV:  cpu time    0.7032: real time    0.7032
       DOS:  cpu time    0.0062: real time    0.0062
    CHARGE:  cpu time    0.0176: real time    0.0176
    MIXING:  cpu time    0.0001: real time    0.0001
    --------------------------------------------
      LOOP:  cpu time    0.7272: real time    0.7272

 eigenvalue-minimisations  :  9360
 total energy-change (2. order) :-0.6310353E-05  (-0.6310799E-05)
 number of electron      16.0000125 magnetization 
 augmentation part        7.2305762 magnetization 

 Broyden mixing:
  rms(total) = 0.20938E+01    rms(broyden)= 0.20938E+01
  rms(prec ) = 0.30973E+01
  weight for this iteration     100.00

 Free energy of the ion-electron system (eV)
  ---------------------------------------------------
  alpha Z        PSCENC =       161.99863116
  Ewald energy   TEWEN  =     -1302.20843287
  -Hartree energ DENC   =      -181.15335689
  -exchange      EXHF   =         0.00000000
  -V(xc)+E(xc)   XCENC  =         9.68729895
  PAW double counting   =      1109.69170683    -1125.09647265
  entropy T*S    EENTRO =        -0.00051387
  eigenvalues    EBANDS =       120.30606007
  atomic energy  EATOM  =      1188.57490811
  Solvation  Ediel_sol  =         0.00000000
  ---------------------------------------------------
  free energy    TOTEN  =       -18.20017116 eV

  energy without entropy =      -18.19965728  energy(sigma->0) =      -18.19999986


--------------------------------------------------------------------------------------------------------




--------------------------------------- Iteration      1(   6)  ---------------------------------------


    POTLOK:  cpu time    0.0029: real time    0.0029
    SETDIJ:  cpu time    0.0021: real time    0.0021
     EDDAV:  cpu time    0.8289: real time    0.8289
       DOS:  cpu time    0.0064: real time    0.0064
    CHARGE:  cpu time    0.0171: real time    0.0171
    MIXING:  cpu time    0.0002: real time    0.0002
    --------------------------------------------
      LOOP:  cpu time    0.8576: real time    0.8576

 eigenvalue-minimisations  : 11328
 total energy-change (2. order) : 0.2528319E+01  (-0.1200046E+00)
 number of electron      16.0000145 magnetization 
 augmentation part        8.2814140 magnetization 

 Broyden mixing:
  rms(total) = 0.18299E+00    rms(broyden)= 0.18295E+00
  rms(prec ) = 0.19855E+00
  weight for this iteration     100.00

 eigenvalues of (default mixing * dielectric matrix)
  average eigenvalue GAMMA=   1.0669
  1.0669

 Free energy of the ion-electron system (eV)
  ---------------------------------------------------
  alpha Z        PSCENC =       161.99863116
  Ewald energy   TEWEN  =     -1302.20843287
  -Hartree energ DENC   =      -152.05198358
  -exchange      EXHF   =         0.00000000
  -V(xc)+E(xc)   XCENC  =         8.24941139
  PAW double counting   =      1370.81548032    -1383.64224552
  entropy T*S    EENTRO =        -0.00000691
  eigenvalues    EBANDS =        92.59238568
  atomic energy  EATOM  =      1188.57490811
  Solvation  Ediel_sol  =         0.00000000
  ---------------------------------------------------
  free energy    TOTEN  =       -15.67185222 eV

  energy without entropy =      -15.67184531  energy(sigma->0) =      -15.67184992


--------------------------------------------------------------------------------------------------------




--------------------------------------- Iteration      1(   7)  ---------------------------------------


    POTLOK:  cpu time    0.0030: real time    0.0030
    SETDIJ:  cpu time    0.0022: real time    0.0022
     EDDAV:  cpu time    0.7025: real time    0.7025
       DOS:  cpu time    0.0064: real time    0.0064
    CHARGE:  cpu time    0.0170: real time    0.0170
    MIXING:  cpu time    0.0002: real time    0.0002
    --------------------------------------------
      LOOP:  cpu time    0.7312: real time    0.7312

 eigenvalue-minimisations  :  9432
 total energy-change (2. order) : 0.1086849E+00  (-0.4374452E-02)
 number of electron      16.0000143 magnetization 
 augmentation part        8.1733599 magnetization 

 Broyden mixing:
  rms(total) = 0.17430E+00    rms(broyden)= 0.17430E+00
  rms(prec ) = 0.23432E+00
  weight for this iteration     100.00

 eigenvalues of (default mixing * dielectric matrix)
  average eigenvalue GAMMA=   1.3058
  0.8729  1.7387

 Free energy of the ion-electron system (eV)
  ---------------------------------------------------
  alpha Z        PSCENC =       161.99863116
  Ewald energy   TEWEN  =     -1302.20843287
  -Hartree energ DENC   =      -152.02284090
  -exchange      EXHF   =         0.00000000
  -V(xc)+E(xc)   XCENC  =         8.27457172
  PAW double counting   =      1503.34650436    -1519.54320796
  entropy T*S    EENTRO =        -0.00011400
  eigenvalues    EBANDS =        96.01681307
  atomic energy  EATOM  =      1188.57490811
  Solvation  Ediel_sol  =         0.00000000
  ---------------------------------------------------
  free energy    TOTEN  =       -15.56316731 eV

  energy without entropy =      -15.56305331  energy(sigma->0) =      -15.56312931


--------------------------------------------------------------------------------------------------------




--------------------------------------- Iteration      1(   8)  ---------------------------------------


    POTLOK:  cpu time    0.0028: real time    0.0028
    SETDIJ:  cpu time    0.0021: real time    0.0021
     EDDAV:  cpu time    0.7798: real time    0.7798
       DOS:  cpu time    0.0069: real time    0.0069
    CHARGE:  cpu time    0.0180: real time    0.0180
    MIXING:  cpu time    0.0002: real time    0.0002
    --------------------------------------------
      LOOP:  cpu time    0.8098: real time    0.8098

 eigenvalue-minimisations  : 10632
 total energy-change (2. order) : 0.4146840E-01  (-0.2200661E-03)
 number of electron      16.0000144 magnetization 
 augmentation part        8.1949266 magnetization 

 Broyden mixing:
  rms(total) = 0.50254E-01    rms(broyden)= 0.50254E-01
  rms(prec ) = 0.64478E-01
  weight for this iteration     100.00

 eigenvalues of (default mixing * dielectric matrix)
  average eigenvalue GAMMA=   1.5779
  2.7454  1.1047  0.8835

 Free energy of the ion-electron system (eV)
  ---------------------------------------------------
  alpha Z        PSCENC =       161.99863116
  Ewald energy   TEWEN  =     -1302.20843287
  -Hartree energ DENC   =      -149.27497993
  -exchange      EXHF   =         0.00000000
  -V(xc)+E(xc)   XCENC  =         8.16308828
  PAW double counting   =      1648.90896154    -1667.51198515
  entropy T*S    EENTRO =        -0.00008209
  eigenvalues    EBANDS =        95.82819203
  atomic energy  EATOM  =      1188.57490811
  Solvation  Ediel_sol  =         0.00000000
  ---------------------------------------------------
  free energy    TOTEN  =       -15.52169891 eV

  energy without entropy =      -15.52161682  energy(sigma->0) =      -15.52167155


--------------------------------------------------------------------------------------------------------




--------------------------------------- Iteration      1(   9)  ---------------------------------------


    POTLOK:  cpu time    0.0030: real time    0.0030
    SETDIJ:  cpu time    0.0021: real time    0.0021
     EDDAV:  cpu time    0.7629: real time    0.7629
       DOS:  cpu time    0.0063: real time    0.0063
    CHARGE:  cpu time    0.0179: real time    0.0179
    MIXING:  cpu time    0.0002: real time    0.0002
    --------------------------------------------
      LOOP:  cpu time    0.7924: real time    0.7924

 eigenvalue-minimisations  : 10200
 total energy-change (2. order) : 0.4009411E-02  (-0.5412818E-04)
 number of electron      16.0000144 magnetization 
 augmentation part        8.2010326 magnetization 

 Broyden mixing:
  rms(total) = 0.83280E-02    rms(broyden)= 0.83278E-02
  rms(prec ) = 0.11890E-01
  weight for this iteration     100.00

 eigenvalues of (default mixing * dielectric matrix)
  average eigenvalue GAMMA=   1.6604
  2.7093  0.8942  0.9925  2.0457

 Free energy of the ion-electron system (eV)
  ---------------------------------------------------
  alpha Z        PSCENC =       161.99863116
  Ewald energy   TEWEN  =     -1302.20843287
  -Hartree energ DENC   =      -148.04576046
  -exchange      EXHF   =         0.00000000
  -V(xc)+E(xc)   XCENC  =         8.11590623
  PAW double counting   =      1730.08272071    -1749.89873541
  entropy T*S    EENTRO =        -0.00007619
  eigenvalues    EBANDS =        95.86314921
  atomic energy  EATOM  =      1188.57490811
  Solvation  Ediel_sol  =         0.00000000
  ---------------------------------------------------
  free energy    TOTEN  =       -15.51768950 eV

  energy without entropy =      -15.51761331  energy(sigma->0) =      -15.51766410


--------------------------------------------------------------------------------------------------------




--------------------------------------- Iteration      1(  10)  ---------------------------------------


    POTLOK:  cpu time    0.0029: real time    0.0029
    SETDIJ:  cpu time    0.0021: real time    0.0021
     EDDAV:  cpu time    0.6519: real time    0.6519
       DOS:  cpu time    0.0063: real time    0.0063
    CHARGE:  cpu time    0.0176: real time    0.0176
    MIXING:  cpu time    0.0002: real time    0.0002
    --------------------------------------------
      LOOP:  cpu time    0.6810: real time    0.6810

 eigenvalue-minimisations  :  8640
 total energy-change (2. order) : 0.7238903E-04  (-0.1652558E-05)
 number of electron      16.0000144 magnetization 
 augmentation part        8.2003280 magnetization 

 Broyden mixing:
  rms(total) = 0.21016E-02    rms(broyden)= 0.21014E-02
  rms(prec ) = 0.31228E-02
  weight for this iteration     100.00

 eigenvalues of (default mixing * dielectric matrix)
  average eigenvalue GAMMA=   1.6724
  2.6455  2.4849  0.8923  1.0029  1.3363

 Free energy of the ion-electron system (eV)
  ---------------------------------------------------
  alpha Z        PSCENC =       161.99863116
  Ewald energy   TEWEN  =     -1302.20843287
  -Hartree energ DENC   =      -148.21213388
  -exchange      EXHF   =         0.00000000
  -V(xc)+E(xc)   XCENC  =         8.12386023
  PAW double counting   =      1727.36172971    -1747.01090442
  entropy T*S    EENTRO =        -0.00007860
  eigenvalues    EBANDS =        95.85480344
  atomic energy  EATOM  =      1188.57490811
  Solvation  Ediel_sol  =         0.00000000
  ---------------------------------------------------
  free energy    TOTEN  =       -15.51761711 eV

  energy without entropy =      -15.51753851  energy(sigma->0) =      -15.51759091


--------------------------------------------------------------------------------------------------------




--------------------------------------- Iteration      1(  11)  ---------------------------------------


    POTLOK:  cpu time    0.0028: real time    0.0028
    SETDIJ:  cpu time    0.0022: real time    0.0022
     EDDAV:  cpu time    0.6515: real time    0.6515
       DOS:  cpu time    0.0064: real time    0.0064
    CHARGE:  cpu time    0.0171: real time    0.0171
    MIXING:  cpu time    0.0002: real time    0.0002
    --------------------------------------------
      LOOP:  cpu time    0.6802: real time    0.6803

 eigenvalue-minimisations  :  8296
 total energy-change (2. order) : 0.1765915E-04  (-0.4133734E-07)
 number of electron      16.0000144 magnetization 
 augmentation part        8.2001560 magnetization 

 Broyden mixing:
  rms(total) = 0.12688E-03    rms(broyden)= 0.12687E-03
  rms(prec ) = 0.24814E-03
  weight for this iteration     100.00

 eigenvalues of (default mixing * dielectric matrix)
  average eigenvalue GAMMA=   1.5944
  2.5790  2.5790  0.8930  1.0107  1.0107  1.4940

 Free energy of the ion-electron system (eV)
  ---------------------------------------------------
  alpha Z        PSCENC =       161.99863116
  Ewald energy   TEWEN  =     -1302.20843287
  -Hartree energ DENC   =      -148.27185579
  -exchange      EXHF   =         0.00000000
  -V(xc)+E(xc)   XCENC  =         8.12657283
  PAW double counting   =      1725.93563530    -1745.52254789
  entropy T*S    EENTRO =        -0.00007852
  eigenvalues    EBANDS =        95.84956821
  atomic energy  EATOM  =      1188.57490811
  Solvation  Ediel_sol  =         0.00000000
  ---------------------------------------------------
  free energy    TOTEN  =       -15.51759945 eV

  energy without entropy =      -15.51752093  energy(sigma->0) =      -15.51757328


--------------------------------------------------------------------------------------------------------




--------------------------------------- Iteration      1(  12)  ---------------------------------------


    POTLOK:  cpu time    0.0030: real time    0.0030
    SETDIJ:  cpu time    0.0021: real time    0.0021
     EDDAV:  cpu time    0.5162: real time    0.5162
       DOS:  cpu time    0.0065: real time    0.0065
    --------------------------------------------
      LOOP:  cpu time    0.5278: real time    0.5278

 eigenvalue-minimisations  :  5920
 total energy-change (2. order) : 0.8863044E-06  (-0.6746300E-08)
 number of electron      16.0000144 magnetization 
 augmentation part        8.2001560 magnetization 

 Free energy of the ion-electron system (eV)
  ---------------------------------------------------
  alpha Z        PSCENC =       161.99863116
  Ewald energy   TEWEN  =     -1302.20843287
  -Hartree energ DENC   =      -148.27796365
  -exchange      EXHF   =         0.00000000
  -V(xc)+E(xc)   XCENC  =         8.12683731
  PAW double counting   =      1725.83746064    -1745.41896388
  entropy T*S    EENTRO =        -0.00007842
  eigenvalues    EBANDS =        95.85000303
  atomic energy  EATOM  =      1188.57490811
  Solvation  Ediel_sol  =         0.00000000
  ---------------------------------------------------
  free energy    TOTEN  =       -15.51759857 eV

  energy without entropy =      -15.51752015  energy(sigma->0) =      -15.51757243


--------------------------------------------------------------------------------------------------------




 average (electrostatic) potential at core
  the test charge radii are     1.0103
  (the norm of the test charge is              1.0000)
       1 -40.6508       2 -40.6509
 
 
 
 E-fermi :   9.0730     XC(G=0): -14.8628     alpha+bet :-18.1661

 Fermi energy:         9.0729816566

 k-point     1 :       0.0000    0.0000    0.0000
  band No.  band energies     occupation 
      1      -0.8302      2.00000
      2       3.0393      2.00000
      3       6.5181      2.00000
      4       7.0335      2.00000
      5       7.0336      2.00000
      6       7.5000      2.00000
      7       7.5000      2.00000
      8       8.4969      2.00036
      9       8.4969      2.00036
     10       8.6948      2.02237
     11      10.0471     -0.00000
     12      10.0471     -0.00000
     13      18.7298      0.00000
     14      33.5904      0.00000
     15      35.4304      0.00000
     16      37.2985      0.00000
     17      40.7316      0.00000
     18      40.7316      0.00000
     19      41.3573      0.00000
     20      41.3574      0.00000
     21      43.8531      0.00000
     22      43.8531      0.00000
     23      44.4484      0.00000
     24      45.0310      0.00000
     25      48.7166      0.00000
     26      48.7166      0.00000
     27      50.6314      0.00000
     28      53.5415      0.00000
     29      53.5416      0.00000
     30      55.0974      0.00000
     31      55.0975      0.00000
     32      59.0637      0.00000
     33      65.3610      0.00000
     34      66.3775      0.00000
     35      66.3778      0.00000
     36      66.9790      0.00000
     37      67.8519      0.00000
     38      70.6579      0.00000
     39      70.6581      0.00000
     40      74.5450      0.00000

 k-point     2 :       0.0909   -0.0000    0.0000
  band No.  band energies     occupation 
      1      -0.4568      2.00000
      2       3.3140      2.00000
      3       6.4105      2.00000
      4       7.0650      2.00000
      5       7.2718      2.00000
      6       7.3664      2.00000
      7       7.4549      2.00000
      8       7.7155      2.00000
      9       8.3467      2.00000
     10       8.3604      2.00001
     11      10.1015     -0.00000
     12      11.5349     -0.00000
     13      18.7376      0.00000
     14      32.7052      0.00000
     15      35.7291      0.00000
     16      35.8883      0.00000
     17      37.5972      0.00000
     18      39.6218      0.00000
     19      39.6625      0.00000
     20      43.4871      0.00000
     21      44.1123      0.00000
     22      44.5321      0.00000
     23      45.2545      0.00000
     24      45.7107      0.00000
     25      49.7666      0.00000
     26      49.7919      0.00000
     27      50.8514      0.00000
     28      51.0142      0.00000
     29      54.4118      0.00000
     30      56.9751      0.00000
     31      57.4857      0.00000
     32      60.2384      0.00000
     33      64.9817      0.00000
     34      65.1428      0.00000
     35      65.6525      0.00000
     36      66.9639      0.00000
     37      67.0343      0.00000
     38      70.8860      0.00000
     39      72.8197      0.00000
     40      74.5719      0.00000

 k-point     3 :       0.1818    0.0000    0.0000
  band No.  band energies     occupation 
      1       0.5848      2.00000
      2       3.9404      2.00000
      3       6.0233      2.00000
      4       6.0298      2.00000
      5       6.8893      2.00000
      6       7.6358      2.00000
      7       7.9417      2.00000
      8       7.9702      2.00000
      9       7.9963      2.00000
     10       8.3226      2.00000
     11      10.2009     -0.00000
     12      13.7453     -0.00000
     13      18.7859      0.00000
     14      29.3255      0.00000
     15      34.4740      0.00000
     16      34.5773      0.00000
     17      35.1232      0.00000
     18      36.4153      0.00000
     19      40.7371      0.00000
     20      42.9066      0.00000
     21      42.9691      0.00000
     22      43.4995      0.00000
     23      46.0794      0.00000
     24      47.9793      0.00000
     25      50.1355      0.00000
     26      50.6900      0.00000
     27      52.4056      0.00000
     28      54.8307      0.00000
     29      58.1222      0.00000
     30      59.4215      0.00000
     31      60.1894      0.00000
     32      62.2360      0.00000
     33      63.3713      0.00000
     34      64.1740      0.00000
     35      64.4909      0.00000
     36      65.2394      0.00000
     37      68.3072      0.00000
     38      71.4093      0.00000
     39      74.0282      0.00000
     40      74.7469      0.00000

 k-point     4 :       0.2727    0.0000    0.0000
  band No.  band energies     occupation 
      1       2.0028      2.00000
      2       4.1745      2.00000
      3       4.8904      2.00000
      4       5.9436      2.00000
      5       6.7237      2.00000
      6       7.4857      2.00000
      7       7.5988      2.00000
      8       8.5841      2.00296
      9       8.8919      2.02464
     10       9.1741      0.25381
     11      10.2698     -0.00000
     12      16.1450      0.00000
     13      18.8872      0.00000
     14      25.2869      0.00000
     15      31.4007      0.00000
     16      31.7543      0.00000
     17      33.2249      0.00000
     18      35.9653      0.00000
     19      39.6386      0.00000
     20      42.4392      0.00000
     21      43.3547      0.00000
     22      43.6394      0.00000
     23      43.7614      0.00000
     24      48.1906      0.00000
     25      53.4470      0.00000
     26      55.2293      0.00000
     27      55.9991      0.00000
     28      58.1876      0.00000
     29      59.4566      0.00000
     30      59.9863      0.00000
     31      61.9009      0.00000
     32      62.9243      0.00000
     33      63.4464      0.00000
     34      64.0142      0.00000
     35      64.5272      0.00000
     36      67.7471      0.00000
     37      67.8854      0.00000
     38      71.8851      0.00000
     39      74.0829      0.00000
     40      74.0903      0.00000

 k-point     5 :       0.3636    0.0000    0.0000
  band No.  band energies     occupation 
      1       3.1127      2.00000
      2       3.8492      2.00000
      3       4.1138      2.00000
      4       6.2861      2.00000
      5       7.0637      2.00000
      6       7.1380      2.00000
      7       7.2746      2.00000
      8       9.8551     -0.00000
      9      10.0418     -0.00000
     10      10.0871     -0.00000
     11      10.3006     -0.00000
     12      18.3665      0.00000
     13      18.6459      0.00000
     14      22.5452      0.00000
     15      28.0836      0.00000
     16      29.6571      0.00000
     17      30.6707      0.00000
     18      34.9184      0.00000
     19      38.3226      0.00000
     20      41.5646      0.00000
     21      42.2324      0.00000
     22      44.5116      0.00000
     23      45.8646      0.00000
     24      48.5147      0.00000
     25      56.7519      0.00000
     26      57.0928      0.00000
     27      57.3907      0.00000
     28      60.4303      0.00000
     29      61.0962      0.00000
     30      61.3294      0.00000
     31      63.0424      0.00000
     32      63.7509      0.00000
     33      64.2166      0.00000
     34      65.2214      0.00000
     35      65.5680      0.00000
     36      67.4565      0.00000
     37      72.1178      0.00000
     38      72.5943      0.00000
     39      73.3147      0.00000
     40      73.6961      0.00000

 k-point     6 :       0.4545    0.0000    0.0000
  band No.  band energies     occupation 
      1       3.3251      2.00000
      2       3.7141      2.00000
      3       3.7195      2.00000
      4       6.8215      2.00000
      5       6.9409      2.00000
      6       7.0930      2.00000
      7       7.4410      2.00000
      8      10.3091     -0.00000
      9      10.4519     -0.00000
     10      10.6331     -0.00000
     11      12.0624     -0.00000
     12      16.0460      0.00000
     13      20.9540      0.00000
     14      22.6787      0.00000
     15      25.4071      0.00000
     16      28.0740      0.00000
     17      28.4674      0.00000
     18      34.2000      0.00000
     19      37.8817      0.00000
     20      40.2990      0.00000
     21      42.0973      0.00000
     22      45.4089      0.00000
     23      48.0165      0.00000
     24      48.8294      0.00000
     25      53.4441      0.00000
     26      58.8534      0.00000
     27      59.0942      0.00000
     28      61.6809      0.00000
     29      62.6503      0.00000
     30      63.0433      0.00000
     31      63.9906      0.00000
     32      64.3538      0.00000
     33      65.3583      0.00000
     34      67.8574      0.00000
     35      67.9196      0.00000
     36      70.5587      0.00000
     37      70.8090      0.00000
     38      70.9967      0.00000
     39      73.4474      0.00000
     40      73.5021      0.00000

 k-point     7 :       0.0909    0.0909    0.0000
  band No.  band energies     occupation 
      1       0.2548      2.00000
      2       3.7888      2.00000
      3       6.0912      2.00000
      4       6.4077      2.00000
      5       7.1108      2.00000
      6       7.2661      2.00000
      7       7.7619      2.00000
      8       7.8331      2.00000
      9       8.1926      2.00000
     10       8.3530      2.00000
     11      10.1408     -0.00000
     12      13.1388     -0.00000
     13      18.7720      0.00000
     14      30.9081      0.00000
     15      32.7373      0.00000
     16      36.0542      0.00000
     17      36.6289      0.00000
     18      38.3081      0.00000
     19      38.6892      0.00000
     20      41.5123      0.00000
     21      43.4402      0.00000
     22      46.8545      0.00000
     23      47.0046      0.00000
     24      47.9925      0.00000
     25      48.7588      0.00000
     26      49.2270      0.00000
     27      49.5589      0.00000
     28      55.0805      0.00000
     29      57.8756      0.00000
     30      58.6887      0.00000
     31      58.9150      0.00000
     32      61.7390      0.00000
     33      62.9532      0.00000
     34      64.7125      0.00000
     35      65.5557      0.00000
     36      66.2364      0.00000
     37      66.6234      0.00000
     38      71.7869      0.00000
     39      73.9007      0.00000
     40      74.3724      0.00000

 k-point     8 :       0.1818    0.0909    0.0000
  band No.  band energies     occupation 
      1       1.5225      2.00000
      2       4.3601      2.00000
      3       5.3083      2.00000
      4       5.6635      2.00000
      5       6.8087      2.00000
      6       7.3229      2.00000
      7       7.8121      2.00000
      8       8.0492      2.00000
      9       8.6378      2.00869
     10       9.0837      0.90931
     11      10.1736     -0.00000
     12      15.3128      0.00000
     13      18.9040      0.00000
     14      27.3228      0.00000
     15      30.1373      0.00000
     16      33.1481      0.00000
     17      35.6129      0.00000
     18      36.2815      0.00000
     19      39.6883      0.00000
     20      41.0046      0.00000
     21      41.9000      0.00000
     22      46.4229      0.00000
     23      47.0066      0.00000
     24      47.8007      0.00000
     25      50.7874      0.00000
     26      51.5521      0.00000
     27      53.4255      0.00000
     28      58.8010      0.00000
     29      59.9809      0.00000
     30      60.7387      0.00000
     31      61.1275      0.00000
     32      62.5890      0.00000
     33      62.8758      0.00000
     34      64.2028      0.00000
     35      65.3584      0.00000
     36      65.4404      0.00000
     37      67.3561      0.00000
     38      72.3766      0.00000
     39      73.5168      0.00000
     40      73.9205      0.00000

 k-point     9 :       0.2727    0.0909    0.0000
  band No.  band energies     occupation 
      1       2.9067      2.00000
      2       4.2264      2.00000
      3       4.4510      2.00000
      4       5.7911      2.00000
      5       6.9145      2.00000
      6       6.9428      2.00000
      7       7.5933      2.00000
      8       8.7368      2.03878
      9       9.6105     -0.00096
     10      10.1917     -0.00000
     11      10.2516     -0.00000
     12      17.7265      0.00000
     13      19.0359      0.00000
     14      23.6292      0.00000
     15      28.2446      0.00000
     16      29.7943      0.00000
     17      33.1552      0.00000
     18      34.3435      0.00000
     19      39.3388      0.00000
     20      40.5938      0.00000
     21      42.2317      0.00000
     22      46.3889      0.00000
     23      46.5188      0.00000
     24      48.9970      0.00000
     25      53.0505      0.00000
     26      55.5224      0.00000
     27      57.5725      0.00000
     28      58.6093      0.00000
     29      59.0921      0.00000
     30      62.1285      0.00000
     31      62.3912      0.00000
     32      63.9406      0.00000
     33      64.5352      0.00000
     34      65.3899      0.00000
     35      65.4367      0.00000
     36      66.8282      0.00000
     37      70.8513      0.00000
     38      72.1078      0.00000
     39      72.1873      0.00000
     40      74.5173      0.00000

 k-point    10 :       0.3636    0.0909    0.0000
  band No.  band energies     occupation 
      1       3.5606      2.00000
      2       3.9177      2.00000
      3       3.9304      2.00000
      4       6.3742      2.00000
      5       6.7646      2.00000
      6       7.1625      2.00000
      7       7.3327      2.00000
      8       9.8159     -0.00000
      9      10.1919     -0.00000
     10      10.3044     -0.00000
     11      11.7256     -0.00000
     12      17.6346      0.00000
     13      20.2058      0.00000
     14      22.4492      0.00000
     15      26.7662      0.00000
     16      26.7909      0.00000
     17      29.9200      0.00000
     18      33.3156      0.00000
     19      38.3540      0.00000
     20      39.9895      0.00000
     21      43.0682      0.00000
     22      46.8886      0.00000
     23      47.9909      0.00000
     24      48.9587      0.00000
     25      55.3127      0.00000
     26      55.8110      0.00000
     27      58.4515      0.00000
     28      59.6296      0.00000
     29      61.5633      0.00000
     30      62.5738      0.00000
     31      63.0174      0.00000
     32      64.0243      0.00000
     33      64.5691      0.00000
     34      67.1971      0.00000
     35      69.0283      0.00000
     36      69.0394      0.00000
     37      69.6386      0.00000
     38      72.8546      0.00000
     39      73.9493      0.00000
     40      74.3998      0.00000

 k-point    11 :       0.4545    0.0909    0.0000
  band No.  band energies     occupation 
      1       3.5303      2.00000
      2       3.7376      2.00000
      3       3.9280      2.00000
      4       6.7699      2.00000
      5       6.8049      2.00000
      6       6.9367      2.00000
      7       7.4915      2.00000
      8      10.1893     -0.00000
      9      10.4203     -0.00000
     10      10.4355     -0.00000
     11      13.1204     -0.00000
     12      15.7117      0.00000
     13      21.8692      0.00000
     14      23.1248      0.00000
     15      24.9692      0.00000
     16      26.0022      0.00000
     17      28.3351      0.00000
     18      32.9415      0.00000
     19      37.9244      0.00000
[...]
     17      30.7638      0.00000
     18      32.0726      0.00000
     19      37.3763      0.00000
     20      37.9868      0.00000
     21      42.4748      0.00000
     22      43.2252      0.00000
     23      48.0255      0.00000
     24      49.1399      0.00000
     25      55.2820      0.00000
     26      57.0745      0.00000
     27      59.1438      0.00000
     28      59.8454      0.00000
     29      62.5784      0.00000
     30      63.3403      0.00000
     31      63.9762      0.00000
     32      64.2876      0.00000
     33      66.4011      0.00000
     34      66.9898      0.00000
     35      68.8717      0.00000
     36      69.5164      0.00000
     37      70.2659      0.00000
     38      72.3209      0.00000
     39      74.1546      0.00000
     40      74.6171      0.00000

 k-point    91 :       0.4545    0.0909    0.4545
  band No.  band energies     occupation 
      1       3.1887      2.00000
      2       3.3830      2.00000
      3       4.8709      2.00000
      4       5.0322      2.00000
      5       7.6674      2.00000
      6       8.2045      2.00000
      7       9.0380      1.29107
      8       9.4118     -0.03763
      9      10.2961     -0.00000
     10      10.3115     -0.00000
     11      12.9567     -0.00000
     12      13.5626     -0.00000
     13      20.5757      0.00000
     14      20.6206      0.00000
     15      29.0127      0.00000
     16      29.7942      0.00000
     17      31.4810      0.00000
     18      32.0249      0.00000
     19      37.2400      0.00000
     20      37.3053      0.00000
     21      41.7473      0.00000
     22      42.0248      0.00000
     23      48.2347      0.00000
     24      49.3772      0.00000
     25      55.6438      0.00000
     26      57.5175      0.00000
     27      61.6629      0.00000
     28      62.1479      0.00000
     29      62.2599      0.00000
     30      62.6552      0.00000
     31      63.6728      0.00000
     32      64.0988      0.00000
     33      67.9660      0.00000
     34      68.2684      0.00000
     35      69.0801      0.00000
     36      70.0911      0.00000
     37      71.9116      0.00000
     38      72.5041      0.00000
     39      74.6400      0.00000
     40      74.9372      0.00000

 k-point    92 :       0.1818    0.1818    0.4545
  band No.  band energies     occupation 
      1       3.5611      2.00000
      2       3.8067      2.00000
      3       5.6313      2.00000
      4       5.6758      2.00000
      5       6.2332      2.00000
      6       6.2991      2.00000
      7       8.0739      2.00000
      8       8.3942      2.00002
      9      10.0571     -0.00000
     10      10.1754     -0.00000
     11      10.8243     -0.00000
     12      11.5311     -0.00000
     13      26.8235      0.00000
     14      27.3287      0.00000
     15      27.6467      0.00000
     16      28.8906      0.00000
     17      29.4762      0.00000
     18      31.1325      0.00000
     19      41.4118      0.00000
     20      42.5310      0.00000
     21      43.2402      0.00000
     22      44.4730      0.00000
     23      46.9975      0.00000
     24      47.1136      0.00000
     25      53.9350      0.00000
     26      54.5174      0.00000
     27      57.9781      0.00000
     28      58.2679      0.00000
     29      60.7742      0.00000
     30      62.1117      0.00000
     31      62.6536      0.00000
     32      63.1596      0.00000
     33      63.7942      0.00000
     34      63.8940      0.00000
     35      65.9199      0.00000
     36      66.2228      0.00000
     37      70.3117      0.00000
     38      72.1196      0.00000
     39      72.6280      0.00000
     40      72.7440      0.00000

 k-point    93 :       0.2727    0.1818    0.4545
  band No.  band energies     occupation 
      1       3.7614      2.00000
      2       3.8873      2.00000
      3       5.3622      2.00000
      4       5.6386      2.00000
      5       6.5852      2.00000
      6       6.8139      2.00000
      7       8.0339      2.00000
      8       8.3351      2.00000
      9      10.1887     -0.00000
     10      10.4902     -0.00000
     11      12.5617     -0.00000
     12      13.2004     -0.00000
     13      23.5840      0.00000
     14      24.2167      0.00000
     15      26.5760      0.00000
     16      27.4002      0.00000
     17      30.2583      0.00000
     18      32.2073      0.00000
     19      39.4560      0.00000
     20      40.9436      0.00000
     21      42.5951      0.00000
     22      44.1079      0.00000
     23      47.1861      0.00000
     24      47.7812      0.00000
     25      55.2594      0.00000
     26      55.7965      0.00000
     27      59.3119      0.00000
     28      60.8737      0.00000
     29      62.8880      0.00000
     30      63.6207      0.00000
     31      63.9443      0.00000
     32      64.3674      0.00000
     33      65.4649      0.00000
     34      65.7792      0.00000
     35      66.5715      0.00000
     36      67.1724      0.00000
     37      70.7302      0.00000
     38      72.9992      0.00000
     39      73.2922      0.00000
     40      74.0704      0.00000

 k-point    94 :       0.3636    0.1818    0.4545
  band No.  band energies     occupation 
      1       3.7246      2.00000
      2       3.9264      2.00000
      3       5.1923      2.00000
      4       5.4633      2.00000
      5       6.7023      2.00000
      6       7.1454      2.00000
      7       8.4819      2.00024
      8       8.6365      2.00850
      9      10.1348     -0.00000
     10      10.3494     -0.00000
     11      14.4482     -0.00000
     12      14.9525      0.00000
     13      20.9385      0.00000
     14      21.3410      0.00000
     15      25.8794      0.00000
     16      26.7052      0.00000
     17      31.8657      0.00000
     18      33.1246      0.00000
     19      38.0681      0.00000
     20      39.1890      0.00000
     21      41.3187      0.00000
     22      42.9751      0.00000
     23      48.2447      0.00000
     24      48.7041      0.00000
     25      58.1067      0.00000
     26      58.6468      0.00000
     27      59.7820      0.00000
     28      61.4377      0.00000
     29      62.0930      0.00000
     30      62.5226      0.00000
     31      63.9219      0.00000
     32      64.3656      0.00000
     33      66.4290      0.00000
     34      66.9215      0.00000
     35      68.8782      0.00000
     36      69.6914      0.00000
     37      71.3973      0.00000
     38      72.2614      0.00000
     39      72.9553      0.00000
     40      74.3877      0.00000

 k-point    95 :       0.2727    0.2727    0.4545
  band No.  band energies     occupation 
      1       4.1895      2.00000
      2       4.2792      2.00000
      3       5.4450      2.00000
      4       5.7108      2.00000
      5       6.2271      2.00000
      6       6.5068      2.00000
      7       7.9760      2.00000
      8       8.2288      2.00000
      9      10.1538     -0.00000
     10      10.3836     -0.00000
     11      14.9870      0.00000
     12      15.5814      0.00000
     13      21.8245      0.00000
     14      22.3364      0.00000
     15      24.1452      0.00000
     16      24.6150      0.00000
     17      32.1135      0.00000
     18      33.9318      0.00000
     19      38.0263      0.00000
     20      39.6668      0.00000
     21      41.1301      0.00000
     22      42.4858      0.00000
     23      50.0021      0.00000
     24      50.4599      0.00000
     25      55.5449      0.00000
     26      55.5530      0.00000
     27      61.9781      0.00000
     28      62.4804      0.00000
     29      62.6010      0.00000
     30      63.5215      0.00000
     31      64.3665      0.00000
     32      64.4482      0.00000
     33      65.2878      0.00000
     34      66.1967      0.00000
     35      69.1578      0.00000
     36      69.7451      0.00000
     37      70.6024      0.00000
     38      70.7387      0.00000
     39      71.7503      0.00000
     40      73.9335      0.00000

 k-point    96 :       0.3636    0.2727    0.4545
  band No.  band energies     occupation 
      1       4.4243      2.00000
      2       4.5986      2.00000
      3       5.3098      2.00000
      4       5.3902      2.00000
      5       6.2907      2.00000
      6       6.4323      2.00000
      7       8.0711      2.00000
      8       8.2627      2.00000
      9      10.1118     -0.00000
     10      10.1984     -0.00000
     11      16.9601      0.00000
     12      17.1223      0.00000
     13      20.0703      0.00000
     14      20.4964      0.00000
     15      23.4894      0.00000
     16      23.9511      0.00000
     17      33.7676      0.00000
     18      34.8659      0.00000
     19      37.3018      0.00000
     20      37.4222      0.00000
     21      40.9641      0.00000
     22      41.8782      0.00000
     23      51.4561      0.00000
     24      52.1526      0.00000
     25      56.1610      0.00000
     26      56.5801      0.00000
     27      60.1517      0.00000
     28      60.4651      0.00000
     29      63.5152      0.00000
     30      64.3211      0.00000
     31      64.3747      0.00000
     32      64.5303      0.00000
     33      65.9233      0.00000
     34      66.4146      0.00000
     35      67.7610      0.00000
     36      68.8416      0.00000
     37      71.2944      0.00000
     38      73.6863      0.00000
     39      73.7783      0.00000
     40      74.7457      0.00000


--------------------------------------------------------------------------------------------------------


 soft charge-density along one line, spin component           1
         0         1         2         3         4         5         6         7         8         9
x     7.7999    0.0000    0.0640   -0.1109   -0.0511   -0.0885    0.0221   -0.0000    0.0010   -0.0017
x     0.0000    0.0000
y     7.7999    0.0000    0.0640    0.1109   -0.0511    0.0885    0.0221    0.0000    0.0010    0.0017
y     0.0000    0.0000
z     7.7999    0.0000    0.0000    0.0000    0.2113    0.0000    0.0000   -0.0000   -0.1261   -0.0000
z     0.0000    0.0000    0.0236   -0.0000    0.0000    0.0000    0.0000    0.0000
 total charge-density along one line
x    16.0000    0.0000    1.3930   -2.4128    0.2480    0.4296    0.0020   -0.0000    0.0022   -0.0037
x    -0.0005   -0.0008    0.0008   -0.0000   -0.0001    0.0001    0.0001    0.0001   -0.0001    0.0000
x     0.0000    0.0000
y    16.0000    0.0000    1.3930    2.4128    0.2480   -0.4296    0.0020    0.0000    0.0022    0.0037
y    -0.0005    0.0008    0.0008    0.0000   -0.0001   -0.0001    0.0001   -0.0001   -0.0001   -0.0000
y     0.0000   -0.0000
z    16.0000    0.0000    0.0000   -0.0000    5.4618    0.0000    0.0000    0.0000    0.9901    0.0000
z     0.0000   -0.0000    0.0001   -0.0000    0.0000    0.0000    0.0070    0.0000   -0.0000    0.0000
z    -0.0023   -0.0000   -0.0000   -0.0000    0.0011    0.0000   -0.0000   -0.0000   -0.0006    0.0000
z     0.0000   -0.0000    0.0005    0.0000
 
 pseudopotential strength for first ion, spin component:           1
 -3.163   0.000  -0.000  -0.000  -0.000  -3.763   0.000  -0.000
  0.000  -3.153   0.000  -0.000   0.000   0.000  -3.753   0.000
 -0.000   0.000  -3.163  -0.000  -0.000  -0.000   0.000  -3.763
 -0.000  -0.000  -0.000  -3.153   0.000  -0.000  -0.000  -0.000
 -0.000   0.000  -0.000   0.000  -3.163  -0.000   0.000  -0.000
 -3.763   0.000  -0.000  -0.000  -0.000  -4.320   0.000  -0.000
  0.000  -3.753   0.000  -0.000   0.000   0.000  -4.309   0.000
 -0.000   0.000  -3.763  -0.000  -0.000  -0.000   0.000  -4.319
 -0.000  -0.000  -0.000  -3.753   0.000  -0.000  -0.000  -0.000
 -0.000   0.000  -0.000   0.000  -3.763  -0.000   0.000  -0.000
  0.000   0.000   0.001  -0.000  -0.000   0.000   0.000   0.000
  0.000   0.000   0.002  -0.000  -0.000   0.000   0.000   0.001
 -0.000   0.000  -0.000   0.000  -0.002  -0.000   0.000  -0.000
  0.000  -0.000   0.000   0.000   0.000   0.000  -0.000   0.000
 -0.002   0.000   0.000   0.000  -0.000  -0.002   0.000   0.000
 -0.000   0.000  -0.000   0.000  -0.002  -0.000   0.000  -0.000
  0.000  -0.000   0.000   0.000   0.000   0.000  -0.000   0.000
 -0.002   0.000   0.000   0.000  -0.000  -0.002   0.000   0.000
 total augmentation occupancy for first ion, spin component:           1
  2.049   0.000   0.000   0.000  -0.000  -1.743   0.000  -0.000   0.000  -0.000   0.000  -0.000   0.000   0.000   0.043  -0.000
 -0.000   2.391  -0.000  -0.000   0.000   0.000  -1.905   0.000   0.000   0.000  -0.000   0.000   0.000   0.000   0.000   0.000
  0.000  -0.000   1.693   0.000  -0.000  -0.000   0.000  -1.476  -0.000   0.000  -0.004  -0.006   0.000   0.000   0.000   0.000
  0.000  -0.000   0.000   2.391   0.000   0.000   0.000  -0.000  -1.905   0.000   0.000   0.000   0.000   0.000   0.000   0.000
  0.000  -0.000  -0.000   0.000   2.049  -0.000   0.000   0.000   0.000  -1.743   0.000  -0.000   0.043  -0.000  -0.000  -0.002
 -1.743   0.000  -0.000   0.000  -0.000   2.823  -0.000   0.000   0.000   0.000  -0.000   0.000  -0.000  -0.000  -0.061   0.000
  0.000  -1.905   0.000   0.000  -0.000   0.000   2.779   0.000  -0.000   0.000   0.000   0.000   0.000   0.000  -0.000  -0.000
 -0.000  -0.000  -1.476   0.000   0.000   0.000   0.000   2.633   0.000  -0.000  -0.042   0.001   0.000   0.000  -0.000  -0.000
  0.000   0.000  -0.000  -1.905  -0.000   0.000  -0.000   0.000   2.779   0.000   0.000   0.000   0.000   0.000   0.000   0.000
 -0.000   0.000   0.000   0.000  -1.743  -0.000   0.000  -0.000   0.000   2.823  -0.000   0.000  -0.061  -0.000   0.000   0.001
  0.000  -0.000  -0.004   0.000   0.000  -0.000   0.000  -0.042  -0.000  -0.000   3.251  -0.396   0.000   0.000   0.000   0.000
 -0.000   0.000  -0.006   0.000  -0.000   0.000  -0.000   0.001   0.000   0.000  -0.396   0.054  -0.000   0.000   0.000   0.000
  0.000   0.000  -0.000   0.000   0.043  -0.000  -0.000   0.000   0.000  -0.061  -0.000   0.000   0.451  -0.000  -0.000  -0.034
  0.000   0.000   0.000   0.000  -0.000  -0.000  -0.000   0.000   0.000  -0.000   0.000   0.000   0.000   0.443  -0.000  -0.000
  0.043  -0.000   0.000  -0.000  -0.000  -0.061   0.000  -0.000   0.000   0.000   0.000   0.000  -0.000   0.000   0.451   0.000
 -0.000   0.000   0.000   0.000  -0.002   0.000  -0.000  -0.000   0.000   0.001   0.000   0.000  -0.034   0.000   0.000   0.003
 -0.000  -0.000   0.000  -0.000   0.000   0.000  -0.000   0.000  -0.000  -0.000   0.000   0.000   0.000  -0.037   0.000   0.000
 -0.002   0.000   0.000  -0.000   0.000   0.001   0.000   0.000   0.000  -0.000  -0.000   0.000   0.000   0.000  -0.034  -0.000


------------------------ aborting loop because EDIFF is reached ----------------------------------------


    CHARGE:  cpu time    0.0172: real time    0.0172
    FORLOC:  cpu time    0.0002: real time    0.0002
    FORNL :  cpu time    0.0833: real time    0.0833
    STRESS:  cpu time    0.1264: real time    0.1264
    FORCOR:  cpu time    0.0030: real time    0.0030
    FORHAR:  cpu time    0.0006: real time    0.0006
    MIXING:  cpu time    0.0002: real time    0.0002

  FORCE on cell =-STRESS in cart. coord.  units (eV):
  Direction    XX          YY          ZZ          XY          YZ          ZX
  --------------------------------------------------------------------------------------
  Alpha Z   161.99863   161.99863   161.99863
  Ewald    -425.63344  -425.63344  -450.94208     0.00000    -0.00000    -0.00000
  Hartree    52.22322    52.22323    43.82937    -0.00000    -0.00000    -0.00000
  E(xc)     -80.61532   -80.61533   -80.43122     0.00008     0.00000    -0.00000
  Local     119.08075   119.08089   150.68597    -0.00055     0.00000     0.00000
  n-local   -48.11486   -47.92141   -49.98909    -5.17667     1.58194     1.10368
  augment    74.70314    74.70296    74.98169     0.00061    -0.00000    -0.00000
  Kinetic   159.41592   153.28192   154.01757     0.90516    -1.07425     0.06458
  Fock        0.00000     0.00000     0.00000     0.00000     0.00000     0.00000
  -------------------------------------------------------------------------------------
  Total      10.08774    10.08774     4.15084    -0.00000     0.00000     0.00000
  in kB     947.08969   947.08969   389.70282    -0.00000     0.00000     0.00000
  external pressure =      761.29 kB  Pullay stress =        0.00 kB


 VOLUME and BASIS-vectors are now :
 -----------------------------------------------------------------------------
  energy-cutoff  :      280.00
  volume of cell :       17.07
      direct lattice vectors                 reciprocal lattice vectors
     2.260100000  0.000000000  0.000000000     0.442458298  0.255453418  0.000000000
    -1.130050000  1.957304015  0.000000000     0.000000000  0.510906835  0.000000000
     0.000000000  0.000000000  3.857690000     0.000000000  0.000000000  0.259222488

  length of vectors
     2.260100000  2.260100000  3.857690000     0.510906835  0.510906835  0.259222488


 FORCES acting on ions
    electron-ion (+dipol)            ewald-force                    non-local-force                 convergence-correction
 -----------------------------------------------------------------------------------------------
   0.112E-05 -.694E-06 0.112E-13   0.721E-12 -.478E-12 -.250E-13   0.150E-16 -.150E-16 -.514E-19   -.820E-08 0.472E-08 0.272E-15
   0.111E-06 0.103E-05 0.648E-13   -.724E-12 0.474E-12 0.251E-13   -.150E-16 0.118E-16 0.576E-19   0.806E-08 -.464E-08 0.110E-13
 -----------------------------------------------------------------------------------------------
   0.123E-05 0.336E-06 0.759E-13   -.369E-14 -.433E-14 0.264E-16   -.550E-19 -.317E-17 0.619E-20   -.143E-09 0.851E-10 0.113E-13
 
 
 POSITION                                       TOTAL-FORCE (eV/Angst)
 -----------------------------------------------------------------------------------
      0.00000      0.00000      0.00000        -0.000000      0.000000      0.000000
      0.00000      1.30487      1.92884         0.000000     -0.000000     -0.000000
 -----------------------------------------------------------------------------------
    total drift:                                0.000001      0.000000      0.000000


--------------------------------------------------------------------------------------------------------



  FREE ENERGIE OF THE ION-ELECTRON SYSTEM (eV)
  ---------------------------------------------------
  free  energy   TOTEN  =       -15.51759857 eV

  energy  without entropy=      -15.51752015  energy(sigma->0) =      -15.51757243
 


--------------------------------------------------------------------------------------------------------


    POTLOK:  cpu time    0.0051: real time    0.0051


--------------------------------------------------------------------------------------------------------


 writing wavefunctions
     LOOP+:  cpu time    8.8723: real time    8.8918
    4ORBIT:  cpu time    0.0000: real time    0.0000

 total amount of memory used by VASP MPI-rank0    47495. kBytes
=======================================================================

   base      :      30000. kBytes
   nonl-proj :       2674. kBytes
   grid      :        721. kBytes
   one-center:         31. kBytes
   wavefun   :      14069. kBytes
 
  
  
 General timing and accounting informations for this job:
 ========================================================
  
                  Total CPU time used (sec):        9.047
                            User time (sec):        8.987
                          System time (sec):        0.060
                         Elapsed time (sec):        9.055
  
                   Maximum memory used (kb):       52272.
                   Average memory used (kb):          N/A
  
                          Minor page faults:         6869
                          Major page faults:            0
                 Voluntary context switches:           26
