unknown system                          
   1.00000000000000     
     2.330000    0.000000    0.000000
    -1.165000    2.017839    0.000000
     0.000000    0.000000    4.182000
   Fe
     2
Direct
  0.000000  0.000000  0.000000
  0.333333  0.666667  0.500000
 
   20   20   36
  165.11      156.45      133.17      101.89      70.059      43.337      24.633      14.211      10.114      8.9929    
  8.6478      8.9931      10.114      14.211      24.633      43.337      70.059      101.89      133.17      156.45    
  156.46      156.45      140.52      113.42      82.284      53.629      31.648      17.853      11.329      9.3034    
  8.6462      8.6458      9.3029      11.329      17.853      31.647      53.628      82.287      113.43      140.53    
  133.18      140.50      133.17      113.42      86.807      59.666      36.952      21.273      12.805      9.6353    
  8.6753      8.3510      8.6743      9.6352      12.806      21.272      36.949      59.663      86.810      113.43    
  101.88      113.36      113.36      101.89      82.284      59.666      38.928      23.345      14.034      10.001    
  8.7207      8.1416      8.1412      8.7203      10.002      14.036      23.345      38.924      59.660      82.278    
  70.046      82.191      86.684      82.201      70.059      53.629      36.952      23.345      14.513      10.255    
  8.7616      8.0199      7.7648      8.0200      8.7617      10.256      14.516      23.349      36.952      53.622    
  43.336      53.555      59.536      59.540      53.561      43.337      31.648      21.273      14.034      10.255    
  8.7780      7.9677      7.5524      7.5528      7.9678      8.7768      10.254      14.038      21.281      31.654    
  24.642      31.628      36.884      38.836      36.881      31.621      24.633      17.853      12.805      10.001    
  8.7617      7.9677      7.4852      7.3290      7.4860      7.9668      8.7581      9.9977      12.806      17.859    
  14.211      17.870      21.283      23.338      23.334      21.274      17.864      14.211      11.329      9.6353    
  8.7208      8.0199      7.5523      7.3290      7.3297      7.5536      8.0196      8.7168      9.6283      11.323    
  10.104      11.354      12.856      14.096      14.574      14.093      12.856      11.360      10.114      9.3034    
  8.6752      8.1417      7.7647      7.5527      7.4861      7.5536      7.7676      8.1452      8.6752      9.2970    
  8.9926      9.3336      9.6977      10.091      10.361      10.362      10.096      9.7045      9.3395      8.9929    
  8.6461      8.3511      8.1413      8.0199      7.9678      7.9669      8.0195      8.1451      8.3587      8.6522    
  8.6566      8.6905      8.7507      8.8248      8.8888      8.9158      8.8924      8.8283      8.7500      8.6842    
  8.6478      8.6458      8.6744      8.7203      8.7617      8.7768      8.7580      8.7168      8.6753      8.6522    
  8.9925      8.6905      8.4367      8.2615      8.1671      8.1323      8.1332      8.1675      8.2575      8.4292    
  8.6846      8.9930      9.3030      9.6352      10.002      10.256      10.254      9.9977      9.6284      9.2970    
  10.104      9.3336      8.7508      8.2615      7.9217      7.7354      7.6781      7.7347      7.9190      8.2579    
  8.7508      9.3399      10.114      11.329      12.806      14.036      14.516      14.038      12.806      11.323    
  14.211      11.354      9.6978      8.8249      8.1670      7.7355      7.5319      7.5313      7.7343      8.1674    
  8.8287      9.7045      11.360      14.211      17.853      21.272      23.345      23.349      21.280      17.859    
  24.642      17.870      12.856      10.091      8.8887      8.1324      7.6782      7.5312      7.6773      8.1332    
  8.8924      10.095      12.855      17.864      24.633      31.647      36.949      38.924      36.952      31.654    
  43.336      31.628      21.283      14.096      10.361      8.9158      8.1333      7.7346      7.7342      8.1332    
  8.9170      10.361      14.092      21.275      31.622      43.337      53.628      59.663      59.660      53.622    
  70.046      53.555      36.884      23.338      14.575      10.362      8.8923      8.1674      7.9190      8.1675    
  8.8924      10.361      14.572      23.334      36.884      53.562      70.059      82.287      86.810      82.278    
  101.88      82.191      59.536      38.836      23.334      14.093      10.095      8.8284      8.2576      8.2579    
  8.8287      10.095      14.092      23.334      38.840      59.542      82.197      101.89      113.43      113.43    
  133.18      113.36      86.684      59.540      36.881      21.274      12.856      9.7046      8.7500      8.4291    
  8.7507      9.7045      12.855      21.275      36.884      59.542      86.681      113.35      133.17      140.53    
  156.46      140.50      113.36      82.201      53.561      31.621      17.864      11.361      9.3395      8.6842    
  8.6846      9.3400      11.360      17.864      31.622      53.562      82.197      113.35      140.48      156.45    
  156.46      148.26      126.20      96.535      66.335      41.016      23.381      13.657      9.8992      8.8444    
  8.5079      8.8446      9.8993      13.657      23.381      41.016      66.335      96.535      126.20      148.26    
  148.27      148.26      133.16      107.47      77.924      50.748      29.967      17.026      10.996      9.1408    
  8.5002      8.4998      9.1404      10.996      17.026      29.966      50.747      77.928      107.48      133.17    
  126.21      133.15      126.20      107.47      82.213      56.462      34.961      20.209      12.338      9.4401    
  8.5243      8.2096      8.5233      9.4400      12.339      20.209      34.958      56.460      82.216      107.48    
  96.531      107.42      107.42      96.535      77.924      56.462      36.824      22.144      13.463      9.7635    
  8.5661      8.0048      8.0044      8.5657      9.7641      13.464      22.144      36.821      56.456      77.919    
  66.323      77.854      82.121      77.863      66.335      50.748      34.961      22.144      13.902      9.9882    
  8.6047      7.8863      7.6406      7.8864      8.6048      9.9890      13.905      22.148      34.961      50.741    
  41.015      50.700      56.375      56.378      50.705      41.016      29.967      20.210      13.463      9.9882    
  8.6204      7.8357      7.4363      7.4367      7.8358      8.6193      9.9878      13.467      20.217      29.973    
  23.389      29.971      34.938      36.785      34.934      29.964      23.381      17.026      12.338      9.7634    
  8.6048      7.8357      7.3719      7.2222      7.3726      7.8349      8.6015      9.7602      12.339      17.032    
  13.657      17.064      20.259      22.189      22.185      20.251      17.058      13.657      10.996      9.4401    
  8.5662      7.8864      7.4363      7.2222      7.2228      7.4374      7.8860      8.5625      9.4336      10.990    
  9.8903      11.038      12.423      13.570      14.015      13.568      12.423      11.044      9.8992      9.1408    
  8.5242      8.0049      7.6406      7.4367      7.3727      7.4375      7.6431      8.0081      8.5242      9.1349    
  8.8442      9.1858      9.5310      9.8929      10.139      10.141      9.8968      9.5374      9.1913      8.8445    
  8.5001      8.2096      8.0045      7.8864      7.8359      7.8350      7.8859      8.0081      8.2168      8.5057    
  8.5161      8.5571      8.6245      8.7045      8.7721      8.8001      8.7753      8.7077      8.6238      8.5513    
  8.5079      8.4997      8.5234      8.5657      8.6048      8.6193      8.6014      8.5624      8.5243      8.5057    
  8.8440      8.5571      8.3184      8.1555      8.0692      8.0381      8.0390      8.0695      8.1518      8.3114    
  8.5517      8.8445      9.1405      9.4400      9.7640      9.9890      9.9879      9.7602      9.4337      9.1349    
  9.8902      9.1858      8.6246      8.1555      7.8313      7.6541      7.5998      7.6535      7.8288      8.1522    
  8.6246      9.1917      9.8993      10.996      12.339      13.464      13.905      13.467      12.339      10.990    
  13.657      11.038      9.5311      8.7045      8.0691      7.6541      7.4589      7.4583      7.6531      8.0695    
  8.7081      9.5374      11.044      13.657      17.026      20.209      22.144      22.148      20.217      17.032    
  23.389      17.064      12.422      9.8929      8.7720      8.0382      7.5999      7.4583      7.5990      8.0389    
  8.7753      9.8962      12.422      17.058      23.381      29.966      34.958      36.821      34.961      29.973    
  41.015      29.971      20.259      13.570      10.140      8.8001      8.0390      7.6534      7.6530      8.0389    
  8.8012      10.140      13.567      20.252      29.966      41.016      50.747      56.460      56.456      50.741    
  66.323      50.699      34.938      22.189      14.015      10.141      8.7753      8.0695      7.8288      8.0696    
  8.7753      10.140      14.012      22.185      34.938      50.706      66.335      77.928      82.216      77.919    
  96.531      77.854      56.375      36.785      22.185      13.568      9.8967      8.7077      8.1519      8.1522    
  8.7081      9.8961      13.567      22.185      36.788      56.380      77.860      96.535      107.48      107.48    
  126.21      107.42      82.121      56.378      34.934      20.251      12.422      9.5374      8.6239      8.3113    
  8.6245      9.5373      12.422      20.252      34.938      56.380      82.118      107.41      126.20      133.17    
  148.27      133.15      107.42      77.863      50.705      29.964      17.058      11.044      9.1913      8.5512    
  8.5516      9.1918      11.044      17.058      29.966      50.706      77.860      107.41      133.14      148.26    
  133.18      126.21      107.41      82.083      56.293      34.797      20.074      12.229      9.3455      8.4385    
  8.1281      8.4387      9.3456      12.229      20.074      34.797      56.293      82.083      107.41      126.21    
  126.21      126.21      113.34      91.408      66.158      43.000      25.495      14.870      10.142      8.6945    
  8.1012      8.1008      8.6941      10.143      14.870      25.494      42.999      66.161      91.417      113.35    
  107.42      113.34      107.41      91.409      69.812      47.835      29.643      17.414      11.135      8.9247    
  8.1090      7.8225      8.1082      8.9245      11.136      17.414      29.641      47.833      69.814      91.416    
  82.080      91.399      91.400      82.083      66.158      47.835      31.197      18.976      11.986      9.1462    
  8.1382      7.6288      7.6284      8.1378      9.1466      11.986      18.976      31.194      47.830      66.154    
  56.284      66.150      69.804      66.157      56.293      43.000      29.643      18.976      12.321      9.2992    
  8.1686      7.5175      7.2984      7.5177      8.1687      9.2997      12.323      18.979      29.644      42.995    
  34.796      43.023      47.863      47.866      43.027      34.797      25.495      17.414      11.986      9.2992    
  8.1814      7.4701      7.1152      7.1156      7.4703      8.1806      9.2989      11.988      17.420      25.499    
  20.081      25.564      29.742      31.302      29.739      25.559      20.074      14.870      11.135      9.1461    
  8.1687      7.4701      7.0577      6.9260      7.0584      7.4696      8.1661      9.1437      11.136      14.875    
  12.229      14.965      17.574      19.165      19.162      17.568      14.960      12.229      10.142      8.9247    
  8.1383      7.5176      7.1151      6.9259      6.9264      7.1160      7.5173      8.1354      8.9196      10.138    
  9.3383      10.234      11.316      12.224      12.578      12.222      11.316      10.239      9.3456      8.6945    
  8.1090      7.6288      7.2983      7.1155      7.0585      7.1160      7.3002      7.6313      8.1089      8.6897    
  8.4383      8.7834      9.1004      9.3924      9.5850      9.5858      9.3954      9.1053      8.7878      8.4386    
  8.1011      7.8225      7.6285      7.5176      7.4704      7.4696      7.5172      7.6313      7.8282      8.1056    
  8.1347      8.1970      8.2855      8.3827      8.4608      8.4920      8.4633      8.3851      8.2849      8.1923    
  8.1281      8.1008      8.1082      8.1378      8.1687      8.1806      8.1661      8.1353      8.1090      8.1057    
  8.4382      8.1970      8.0035      7.8778      7.8164      7.7971      7.7979      7.8168      7.8749      7.9978    
  8.1927      8.4386      8.6941      8.9246      9.1465      9.2997      9.2989      9.1437      8.9197      8.6897    
  9.3382      8.7834      8.2857      7.8778      7.6010      7.4522      7.4071      7.4518      7.5992      7.8753    
  8.2856      8.7882      9.3456      10.143      11.136      11.986      12.323      11.988      11.136      10.138    
  12.229      10.234      9.1004      8.3827      7.8163      7.4522      7.2825      7.2821      7.4514      7.8167    
  8.3855      9.1054      10.239      12.229      14.870      17.414      18.976      18.979      17.420      14.875    
  20.081      14.965      11.316      9.3924      8.4608      7.7972      7.4071      7.2821      7.4063      7.7976    
  8.4633      9.3950      11.316      14.960      20.074      25.494      29.641      31.194      29.643      25.499    
  34.797      25.564      17.574      12.224      9.5850      8.4921      7.7979      7.4518      7.4514      7.7976    
  8.4929      9.5854      12.221      17.568      25.560      34.797      42.999      47.833      47.830      42.995    
  56.284      43.023      29.742      19.165      12.578      9.5858      8.4633      7.8167      7.5992      7.8168    
  8.4634      9.5854      12.576      19.163      29.742      43.028      56.293      66.161      69.814      66.154    
  82.080      66.150      47.863      31.302      19.162      12.222      9.3953      8.3851      7.8750      7.8753    
  8.3855      9.3949      12.221      19.163      31.305      47.868      66.154      82.083      91.417      91.416    
  107.42      91.399      69.804      47.866      29.739      17.568      11.316      9.1054      8.2849      7.9978    
  8.2855      9.1053      11.316      17.568      29.742      47.868      69.801      91.392      107.41      113.35    
  126.21      113.34      91.400      66.157      43.027      25.559      14.960      10.239      8.7878      8.1923    
  8.1926      8.7882      10.239      14.960      25.560      43.028      66.154      91.392      113.33      126.21    
  101.88      96.524      82.070      62.578      42.810      26.584      15.851      10.492      8.6411      7.8745    
  7.6068      7.8747      8.6412      10.492      15.851      26.584      42.810      62.578      82.070      96.524    
  96.527      96.523      86.624      69.728      50.311      32.677      19.682      12.185      9.1058      8.0634    
  7.5487      7.5484      8.0631      9.1063      12.186      19.682      32.677      50.312      69.733      86.631    
  82.074      86.643      82.070      69.728      53.096      36.299      22.670      13.877      9.6745      8.2323    
  7.5275      7.2847      7.5267      8.2321      9.6752      13.877      22.669      36.298      53.097      69.733    
  62.576      69.771      69.772      62.578      50.311      36.299      23.799      14.937      10.177      8.3585    
  7.5321      7.1023      7.1020      7.5317      8.3586      10.177      14.937      23.797      36.296      50.308    
  42.804      50.386      53.203      50.391      42.810      32.677      22.671      14.937      10.379      8.4353    
  7.5456      6.9967      6.8161      6.9969      7.5457      8.4355      10.380      14.939      22.671      32.674    
  26.583      32.797      36.485      36.486      32.800      26.584      19.682      13.877      10.177      8.4353    
  7.5523      6.9508      6.6594      6.6597      6.9513      7.5518      8.4350      10.179      13.881      19.686    
  15.856      19.842      22.936      24.100      22.934      19.839      15.851      12.186      9.6745      8.3584    
  7.5456      6.9509      6.6104      6.5032      6.6110      6.9507      7.5441      8.3569      9.6752      12.189    
  10.492      12.360      14.192      15.327      15.325      14.188      12.357      10.492      9.1059      8.2322    
  7.5321      6.9967      6.6593      6.5032      6.5034      6.6598      6.9965      7.5302      8.2289      9.1029    
  8.6361      9.2705      9.9940      10.603      10.842      10.602      9.9940      9.2738      8.6412      8.0634    
  7.5274      7.1024      6.8161      6.6597      6.6111      6.6598      6.8171      7.1039      7.5274      8.0601    
  7.8744      8.2190      8.5359      8.7806      8.9236      8.9240      8.7823      8.5391      8.2220      7.8746    
  7.5487      7.2847      7.1021      6.9968      6.9513      6.9507      6.9964      7.1039      7.2886      7.5517    
  7.6113      7.7054      7.8235      7.9437      8.0358      8.0712      8.0374      7.9452      7.8229      7.7022    
  7.6068      7.5484      7.5268      7.5317      7.5456      7.5518      7.5440      7.5302      7.5275      7.5517    
  7.8743      7.7054      7.5808      7.5112      7.4872      7.4858      7.4863      7.4876      7.5093      7.5769    
  7.7025      7.8746      8.0631      8.2321      8.3585      8.4355      8.4351      8.3569      8.2290      8.0601    
  8.6360      8.2190      7.8236      7.5112      7.3072      7.2019      7.1710      7.2019      7.3063      7.5095    
  7.8235      8.2223      8.6412      9.1063      9.6751      10.177      10.380      10.179      9.6752      9.1028    
  10.492      9.2705      8.5360      7.9437      7.4871      7.2019      7.0718      7.0716      7.2015      7.4874    
  7.9456      8.5392      9.2734      10.492      12.186      13.877      14.937      14.939      13.881      12.189    
  15.856      12.360      9.9940      8.7805      8.0357      7.4858      7.1711      7.0715      7.1704      7.4859    
  8.0374      8.7822      9.9933      12.356      15.851      19.682      22.669      23.797      22.670      19.686    
  26.583      19.842      14.191      10.603      8.9236      8.0712      7.4864      7.2019      7.2015      7.4859    
  8.0716      8.9239      10.601      14.188      19.839      26.584      32.677      36.298      36.296      32.674    
  42.804      32.797      22.936      15.327      10.842      8.9240      8.0373      7.4875      7.3062      7.4875    
  8.0374      8.9239      10.841      15.325      22.936      32.800      42.810      50.312      53.098      50.308    
  62.576      50.386      36.485      24.100      15.325      10.602      8.7823      7.9452      7.5093      7.5096    
  7.9456      8.7821      10.601      15.325      24.102      36.488      50.389      62.578      69.733      69.733    
  82.074      69.771      53.203      36.486      22.934      14.187      9.9940      8.5392      7.8229      7.5769    
  7.8235      8.5392      9.9933      14.188      22.936      36.488      53.201      69.767      82.070      86.631    
  96.527      86.643      69.772      50.391      32.800      19.839      12.357      9.2739      8.2220      7.7021    
  7.7024      8.2223      9.2734      12.356      19.839      32.800      50.389      69.766      86.636      96.523    
  69.927      66.212      56.194      42.748      29.306      18.629      12.001      9.0080      7.9024      7.2688    
  7.0554      7.2689      7.9025      9.0080      12.001      18.629      29.306      42.748      56.194      66.212    
  66.214      66.212      59.336      47.634      34.317      22.510      14.221      9.8335      8.1698      7.3729    
  6.9601      6.9599      7.3727      8.1702      9.8342      14.221      22.509      34.318      47.636      59.339    
  56.196      59.374      56.194      47.634      36.190      24.854      16.012      10.704      8.4098      7.4703    
  6.8998      6.7101      6.8992      7.4701      8.4103      10.704      16.012      24.853      36.191      47.636    
  42.747      47.730      47.730      42.748      34.317      24.854      16.700      11.269      8.6152      7.5419    
  6.8687      6.5338      6.5336      6.8684      7.5418      8.6152      11.268      16.698      24.852      34.315    
  29.303      34.476      36.410      34.478      29.306      22.510      16.013      11.269      8.6993      7.5786    
  6.8565      6.4275      6.2901      6.4277      6.8565      7.5785      8.6995      11.269      16.013      22.508    
  18.629      22.724      25.195      25.196      22.726      18.629      14.221      10.704      8.6151      7.5786    
  6.8537      6.3791      6.1566      6.1569      6.3796      6.8536      7.5784      8.6161      10.706      14.223    
  12.003      14.471      16.442      17.195      16.442      14.469      12.001      9.8336      8.4098      7.5418    
  6.8565      6.3791      6.1147      6.0327      6.1152      6.3792      6.8558      7.5411      8.4103      9.8356    
  9.0076      10.089      11.173      11.859      11.858      11.171      10.088      9.0080      8.1698      7.4703    
  6.8687      6.4275      6.1565      6.0327      6.0327      6.1567      6.4273      6.8678      7.4686      8.1682    
  7.8996      8.4108      8.8739      9.2364      9.3766      9.2355      8.8739      8.4128      7.9024      7.3729    
  6.8998      6.5338      6.2900      6.1569      6.1152      6.1567      6.2903      6.5345      6.8997      7.3711    
  7.2687      7.6012      7.9131      8.1545      8.2856      8.2857      8.1552      7.9146      7.6028      7.2689    
  6.9601      6.7101      6.5336      6.4277      6.3797      6.3793      6.4273      6.5345      6.7122      6.9617    
  7.0578      7.1845      7.3286      7.4664      7.5674      7.6050      7.5681      7.4670      7.3282      7.1827    
  7.0554      6.9598      6.8993      6.8683      6.8565      6.8536      6.8557      6.8677      6.8998      6.9617    
  7.2686      7.1845      7.1353      7.1236      7.1365      7.1519      7.1523      7.1368      7.1227      7.1333    
  7.1830      7.2689      7.3727      7.4701      7.5417      7.5785      7.5784      7.5411      7.4686      7.3711    
  7.8995      7.6012      7.3287      7.1237      6.9980      6.9381      6.9218      6.9384      6.9978      7.1229    
  7.3287      7.6030      7.9025      8.1702      8.4103      8.6152      8.6995      8.6161      8.4103      8.1682    
  9.0077      8.4109      7.9131      7.4664      7.1364      6.9381      6.8504      6.8504      6.9380      7.1366    
  7.4673      7.9148      8.4124      9.0080      9.8342      10.704      11.268      11.269      10.706      9.8355    
  12.003      10.089      8.8739      8.1545      7.5674      7.1519      6.9219      6.8504      6.9213      7.1518    
  7.5681      8.1552      8.8734      10.087      12.001      14.221      16.012      16.698      16.012      14.223    
  18.629      14.471      11.173      9.2364      8.2856      7.6051      7.1523      6.9383      6.9380      7.1518    
  7.6052      8.2859      9.2354      11.171      14.469      18.629      22.509      24.853      24.852      22.508    
  29.303      22.724      16.442      11.859      9.3767      8.2857      7.5681      7.1368      6.9978      7.1367    
  7.5681      8.2858      9.3764      11.859      16.442      22.726      29.306      34.318      36.191      34.315    
  42.747      34.476      25.195      17.195      11.858      9.2355      8.1551      7.4670      7.1227      7.1229    
  7.4673      8.1552      9.2354      11.859      17.196      25.197      34.477      42.748      47.636      47.636    
  56.196      47.730      36.410      25.196      16.442      11.171      8.8739      7.9147      7.3282      7.1332    
  7.3286      7.9148      8.8734      11.171      16.442      25.197      36.410      47.727      56.194      59.339    
  66.214      59.374      47.730      34.478      22.726      14.469      10.088      8.4128      7.6028      7.1827    
  7.1829      7.6031      8.4125      10.087      14.469      22.726      34.477      47.727      59.370      66.212    
  42.943      40.650      34.504      26.384      18.530      12.662      9.3714      7.9852      7.1991      6.7182    
  6.5617      6.7183      7.1992      7.9852      9.3713      12.662      18.530      26.384      34.504      40.650    
  40.651      40.650      36.410      29.274      21.352      14.653      10.326      8.2810      7.3550      6.7349    
  6.4306      6.4305      6.7347      7.3553      8.2816      10.327      14.653      21.352      29.275      36.411    
  34.505      36.462      34.504      29.274      22.421      15.892      11.141      8.5775      7.4669      6.7532    
  6.3284      6.1917      6.3280      6.7530      7.4672      8.5779      11.141      15.891      22.421      29.275    
  26.384      29.408      29.409      26.384      21.352      15.892      11.462      8.7772      7.5283      6.7656    
  6.2565      6.0148      6.0147      6.2562      6.7654      7.5282      8.7769      11.461      15.891      21.351    
  18.529      21.570      22.723      21.571      18.530      14.653      11.141      8.7772      7.5481      6.7710    
  6.2141      5.9011      5.8033      5.9012      6.2142      6.7707      7.5478      8.7772      11.141      14.652    
  12.662      14.936      16.345      16.345      14.937      12.661      10.326      8.5776      7.5283      6.7709    
  6.2002      5.8461      5.6847      5.6850      5.8465      6.2003      6.7708      7.5286      8.5785      10.327    
  9.3722      10.643      11.692      12.100      11.692      10.642      9.3713      8.2811      7.4668      6.7656    
  6.2141      5.8461      5.6469      5.5856      5.6472      5.8463      6.2140      6.7655      7.4672      8.2819    
  7.9849      8.5997      9.1662      9.5212      9.5209      9.1656      8.5995      7.9852      7.3550      6.7532    
  6.2565      5.9011      5.6847      5.5856      5.5856      5.6846      5.9010      6.2562      6.7526      7.3544    
  7.1979      7.6600      8.0498      8.3077      8.3983      8.3073      8.0498      7.6608      7.1991      6.7349    
  6.3283      6.0149      5.8033      5.6850      5.6472      5.6846      5.8031      6.0150      6.3283      6.7341    
  6.7181      7.0263      7.3159      7.5416      7.6651      7.6650      7.5416      7.3163      7.0269      6.7182    
  6.4306      6.1917      6.0147      5.9012      5.8465      5.8463      5.9009      6.0150      6.1925      6.4312    
  6.5626      6.7154      6.8749      7.0187      7.1201      7.1568      7.1202      7.0187      6.8746      6.7147    
  6.5617      6.4305      6.3280      6.2562      6.2141      6.2003      6.2140      6.2562      6.3284      6.4312    
  6.7180      6.7154      6.7329      6.7679      6.8075      6.8339      6.8341      6.8077      6.7676      6.7321    
  6.7148      6.7182      6.7347      6.7530      6.7654      6.7707      6.7708      6.7655      6.7527      6.7342    
  7.1979      7.0263      6.8750      6.7679      6.7088      6.6853      6.6802      6.6857      6.7091      6.7677    
  6.8750      7.0270      7.1991      7.3553      7.4672      7.5282      7.5479      7.5286      7.4672      7.3544    
  7.9849      7.6600      7.3160      7.0187      6.8074      6.6853      6.6332      6.6333      6.6854      6.8076    
  7.0190      7.3164      7.6605      7.9852      8.2817      8.5779      8.7769      8.7772      8.5784      8.2819    
  9.3723      8.5998      8.0498      7.5416      7.1200      6.8340      6.6802      6.6333      6.6799      6.8337    
  7.1202      7.5418      8.0495      8.5989      9.3713      10.327      11.141      11.461      11.141      10.327    
  12.662      10.643      9.1661      8.3077      7.6651      7.1568      6.8342      6.6856      6.6854      6.8337    
  7.1567      7.6652      8.3074      9.1652      10.642      12.661      14.653      15.891      15.891      14.652    
  18.529      14.936      11.692      9.5212      8.3984      7.6650      7.1201      6.8077      6.7091      6.8076    
  7.1202      7.6652      8.3985      9.5212      11.692      14.937      18.530      21.352      22.421      21.351    
  26.384      21.570      16.345      12.100      9.5209      8.3073      7.5416      7.0187      6.7676      6.7677    
  7.0190      7.5418      8.3074      9.5212      12.100      16.345      21.571      26.384      29.275      29.275    
  34.505      29.408      22.723      16.345      11.692      9.1656      8.0498      7.3163      6.8747      6.7321    
  6.8749      7.3164      8.0495      9.1653      11.692      16.345      22.723      29.408      34.504      36.411    
  40.651      36.462      29.409      21.571      14.937      10.642      8.5995      7.6609      7.0269      6.7147    
  6.7148      7.0271      7.6606      8.5989      10.642      14.937      21.571      29.408      36.461      40.650    
  23.886      22.686      19.517      15.468      11.784      9.2875      7.9940      7.2021      6.6193      6.2846    
  6.1787      6.2847      6.6194      7.2021      7.9940      9.2875      11.784      15.468      19.517      22.686    
  22.686      22.686      20.477      16.846      13.002      10.002      8.2584      7.3433      6.6647      6.2225    
  6.0150      6.0149      6.2224      6.6648      7.3437      8.2588      10.002      13.002      16.846      20.477    
  19.517      20.534      19.517      16.846      13.475      10.470      8.4839      7.4279      6.6926      6.1684    