   2   2   0   0
  0.9830973E+01  0.2330000E-09  0.2330000E-09  0.4182000E-09  0.5000000E-15
  1.000000000000000E-004
  CAR 
 unknown system                          
     73.54765469     -5.37637070  301      7.31965323      1.00000000
     -5.376  0.0000E+00  0.0000E+00
     -5.113  0.0000E+00  0.0000E+00
     -4.850  0.0000E+00  0.0000E+00
     -4.587  0.0000E+00  0.0000E+00
     -4.324  0.0000E+00  0.0000E+00
     -4.061  0.0000E+00  0.0000E+00
     -3.798  0.0000E+00  0.0000E+00
     -3.535 -0.1132E-34 -0.2979E-35
     -3.272 -0.1610E-25 -0.4235E-26
     -3.009 -0.7004E-18 -0.1843E-18
     -2.746 -0.8888E-12 -0.2338E-12
     -2.482 -0.3451E-07 -0.9080E-08
     -2.219 -0.3754E-04 -0.9884E-05
     -1.956 -0.4191E-03 -0.1201E-03
     -1.693  0.8753E-02  0.2182E-02
     -1.430  0.5084E-01  0.1556E-01
     -1.167  0.1020E+00  0.4240E-01
     -0.904  0.5586E-01  0.5709E-01
     -0.641  0.1454E+00  0.9534E-01
     -0.378  0.1709E+00  0.1403E+00
     -0.115  0.1983E+00  0.1925E+00
      0.148  0.8423E-01  0.2146E+00
      0.411  0.2140E+00  0.2709E+00
      0.674  0.3058E+00  0.3514E+00
      0.938  0.2912E+00  0.4280E+00
      1.201  0.3168E+00  0.5113E+00
      1.464  0.2370E+00  0.5737E+00
      1.727  0.3592E+00  0.6682E+00
      1.990  0.7817E+00  0.8738E+00
      2.253  0.1197E+01  0.1189E+01
      2.516  0.1728E+01  0.1643E+01
      2.779  0.2154E+01  0.2210E+01
      3.042  0.2701E+01  0.2920E+01
      3.305  0.2485E+01  0.3574E+01
      3.568  0.2498E+01  0.4231E+01
      3.831  0.2529E+01  0.4897E+01
      4.095  0.3121E+01  0.5718E+01
      4.358  0.3132E+01  0.6542E+01
      4.621  0.2776E+01  0.7272E+01
      4.884  0.2274E+01  0.7870E+01
      5.147  0.2578E+01  0.8549E+01
      5.410  0.4017E+01  0.9605E+01
      5.673  0.3484E+01  0.1052E+02
      5.936  0.3684E+01  0.1149E+02
      6.199  0.3153E+01  0.1232E+02
      6.462  0.3548E+01  0.1325E+02
      6.725  0.3284E+01  0.1412E+02
      6.988  0.3200E+01  0.1496E+02
      7.251  0.3223E+01  0.1581E+02
      7.515  0.2728E+01  0.1653E+02
      7.778  0.3549E+01  0.1746E+02
      8.041  0.4681E+01  0.1869E+02
      8.304  0.4305E+01  0.1982E+02
      8.567  0.4021E+01  0.2088E+02
      8.830  0.1386E+01  0.2125E+02
      9.093  0.2051E+00  0.2130E+02
      9.356  0.5411E+00  0.2144E+02
      9.619  0.6550E+00  0.2161E+02
      9.882  0.7604E+00  0.2181E+02
     10.145  0.7358E+00  0.2201E+02
     10.408  0.4565E+00  0.2213E+02
     10.672  0.3359E+00  0.2222E+02
     10.935  0.4532E+00  0.2234E+02
     11.198  0.3975E+00  0.2244E+02
     11.461  0.4516E+00  0.2256E+02
     11.724  0.6316E+00  0.2273E+02
     11.987  0.4667E+00  0.2285E+02
     12.250  0.4449E+00  0.2296E+02
     12.513  0.4992E+00  0.2310E+02
     12.776  0.3300E+00  0.2318E+02
     13.039  0.1975E+00  0.2323E+02
     13.302  0.3786E+00  0.2333E+02
     13.565  0.3575E+00  0.2343E+02
     13.828  0.4241E+00  0.2354E+02
     14.092  0.1690E+00  0.2358E+02
     14.355  0.3329E+00  0.2367E+02
     14.618  0.4794E+00  0.2380E+02
     14.881  0.4859E+00  0.2393E+02
     15.144  0.3048E+00  0.2401E+02
     15.407  0.2426E+00  0.2407E+02
     15.670  0.1949E+00  0.2412E+02
     15.933  0.1192E+00  0.2415E+02
     16.196  0.1183E+00  0.2418E+02
     16.459  0.2488E+00  0.2425E+02
     16.722  0.3668E+00  0.2435E+02
     16.985  0.2597E+00  0.2441E+02
     17.249  0.5283E+00  0.2455E+02
     17.512  0.8247E+00  0.2477E+02
     17.775  0.9319E+00  0.2502E+02
     18.038  0.7379E+00  0.2521E+02
     18.301  0.7372E+00  0.2540E+02
     18.564  0.3147E+00  0.2549E+02
     18.827  0.6991E+00  0.2567E+02
     19.090  0.6754E+00  0.2585E+02
     19.353  0.7608E+00  0.2605E+02
     19.616  0.7524E+00  0.2625E+02
     19.879  0.8277E+00  0.2646E+02
     20.142  0.7060E+00  0.2665E+02
     20.405  0.2413E+00  0.2671E+02
     20.669  0.8793E+00  0.2694E+02
     20.932  0.6356E+00  0.2711E+02
     21.195  0.7187E+00  0.2730E+02
     21.458  0.4929E+00  0.2743E+02
     21.721  0.5330E+00  0.2757E+02
     21.984  0.7518E+00  0.2777E+02
     22.247  0.2811E+00  0.2784E+02
     22.510  0.7165E+00  0.2803E+02
     22.773  0.7985E+00  0.2824E+02
     23.036  0.4966E+00  0.2837E+02
     23.299  0.7323E+00  0.2856E+02
     23.562  0.6534E+00  0.2874E+02
     23.826  0.5149E+00  0.2887E+02
     24.089  0.6603E+00  0.2904E+02
     24.352  0.1383E+01  0.2941E+02
     24.615  0.9330E+00  0.2965E+02
     24.878  0.5631E+00  0.2980E+02
     25.141  0.9440E+00  0.3005E+02
     25.404  0.8486E+00  0.3027E+02
     25.667  0.5354E+00  0.3041E+02
     25.930  0.1178E+01  0.3072E+02
     26.193  0.8121E+00  0.3094E+02
     26.456  0.1175E+01  0.3125E+02
     26.719  0.6553E+00  0.3142E+02
     26.982  0.8522E+00  0.3164E+02
     27.246  0.1066E+01  0.3192E+02
     27.509  0.1385E+01  0.3229E+02
     27.772  0.1040E+01  0.3256E+02
     28.035  0.4144E+00  0.3267E+02
     28.298  0.7092E+00  0.3286E+02
     28.561  0.8976E+00  0.3309E+02
     28.824  0.9272E+00  0.3334E+02
     29.087  0.7707E+00  0.3354E+02
     29.350  0.8013E+00  0.3375E+02
     29.613  0.8806E+00  0.3398E+02
     29.876  0.9083E+00  0.3422E+02
     30.139  0.7558E+00  0.3442E+02
     30.403  0.4546E+00  0.3454E+02
     30.666  0.7430E+00  0.3474E+02
     30.929  0.5087E+00  0.3487E+02
     31.192  0.5450E+00  0.3501E+02
     31.455  0.8237E+00  0.3523E+02
     31.718  0.9481E+00  0.3548E+02
     31.981  0.6050E+00  0.3564E+02
     32.244  0.7467E+00  0.3584E+02
     32.507  0.6200E+00  0.3600E+02
     32.770  0.7525E+00  0.3620E+02
     33.033  0.8811E+00  0.3643E+02
     33.296  0.9178E+00  0.3667E+02
     33.559  0.6796E+00  0.3685E+02
     33.823  0.7368E+00  0.3704E+02
     34.086  0.6351E+00  0.3721E+02
     34.349  0.7239E+00  0.3740E+02
     34.612  0.7418E+00  0.3759E+02
     34.875  0.9636E+00  0.3785E+02
     35.138  0.1150E+01  0.3815E+02
     35.401  0.6772E+00  0.3833E+02
     35.664  0.8787E+00  0.3856E+02
     35.927  0.1049E+01  0.3884E+02
     36.190  0.9819E+00  0.3909E+02
     36.453  0.8413E+00  0.3932E+02
     36.716  0.8993E+00  0.3955E+02
     36.980  0.1494E+01  0.3995E+02
     37.243  0.9581E+00  0.4020E+02
     37.506  0.1166E+01  0.4050E+02
     37.769  0.9187E+00  0.4075E+02
     38.032  0.7673E+00  0.4095E+02
     38.295  0.8939E+00  0.4118E+02
     38.558  0.7135E+00  0.4137E+02
     38.821  0.4914E+00  0.4150E+02
     39.084  0.6329E+00  0.4167E+02
     39.347  0.9087E+00  0.4191E+02
     39.610  0.5846E+00  0.4206E+02
     39.873  0.5189E+00  0.4220E+02
     40.136  0.8750E+00  0.4243E+02
     40.400  0.1196E+01  0.4274E+02
     40.663  0.1043E+01  0.4302E+02
     40.926  0.6653E+00  0.4319E+02
     41.189  0.8366E+00  0.4341E+02
     41.452  0.6729E+00  0.4359E+02
     41.715  0.7130E+00  0.4378E+02
     41.978  0.9642E+00  0.4403E+02
     42.241  0.6831E+00  0.4421E+02
     42.504  0.9081E+00  0.4445E+02
     42.767  0.1150E+01  0.4475E+02
     43.030  0.1250E+01  0.4508E+02
     43.293  0.8631E+00  0.4531E+02
     43.557  0.1131E+01  0.4560E+02
     43.820  0.1101E+01  0.4589E+02
     44.083  0.8479E+00  0.4612E+02
     44.346  0.9117E+00  0.4636E+02
     44.609  0.1246E+01  0.4668E+02
     44.872  0.1123E+01  0.4698E+02
     45.135  0.1235E+01  0.4730E+02
     45.398  0.9198E+00  0.4755E+02
     45.661  0.1090E+01  0.4783E+02
     45.924  0.1157E+01  0.4814E+02
     46.187  0.7357E+00  0.4833E+02
     46.450  0.9541E+00  0.4858E+02
     46.713  0.8337E+00  0.4880E+02
     46.977  0.1080E+01  0.4909E+02
     47.240  0.9568E+00  0.4934E+02
     47.503  0.5748E+00  0.4949E+02
     47.766  0.6501E+00  0.4966E+02
     48.029  0.1123E+01  0.4996E+02
     48.292  0.1292E+01  0.5030E+02
     48.555  0.1161E+01  0.5060E+02
     48.818  0.6573E+00  0.5077E+02
     49.081  0.6594E+00  0.5095E+02
     49.344  0.1156E+01  0.5125E+02
     49.607  0.1259E+01  0.5158E+02
     49.870  0.8271E+00  0.5180E+02
     50.134  0.8660E+00  0.5203E+02
     50.397  0.1105E+01  0.5232E+02
     50.660  0.1002E+01  0.5258E+02
     50.923  0.7491E+00  0.5278E+02
     51.186  0.8662E+00  0.5301E+02
     51.449  0.1636E+01  0.5344E+02
     51.712  0.1592E+01  0.5386E+02
     51.975  0.1079E+01  0.5414E+02
     52.238  0.1106E+01  0.5443E+02
     52.501  0.1200E+01  0.5475E+02
     52.764  0.9959E+00  0.5501E+02
     53.027  0.9612E+00  0.5526E+02
     53.290  0.1358E+01  0.5562E+02
     53.554  0.1079E+01  0.5590E+02
     53.817  0.6149E+00  0.5606E+02
     54.080  0.9326E+00  0.5631E+02
     54.343  0.1023E+01  0.5658E+02
     54.606  0.1302E+01  0.5692E+02
     54.869  0.1406E+01  0.5729E+02
     55.132  0.1187E+01  0.5760E+02
     55.395  0.1276E+01  0.5794E+02
     55.658  0.1090E+01  0.5823E+02
     55.921  0.1472E+01  0.5861E+02
     56.184  0.1478E+01  0.5900E+02
     56.447  0.1475E+01  0.5939E+02
     56.711  0.1224E+01  0.5971E+02
     56.974  0.7899E+00  0.5992E+02
     57.237  0.9818E+00  0.6018E+02
     57.500  0.1378E+01  0.6054E+02
     57.763  0.1382E+01  0.6090E+02
     58.026  0.2234E+01  0.6149E+02
     58.289  0.2024E+01  0.6202E+02
     58.552  0.1302E+01  0.6237E+02
     58.815  0.1091E+01  0.6265E+02
     59.078  0.1242E+01  0.6298E+02
     59.341  0.1820E+01  0.6346E+02
     59.604  0.1860E+01  0.6395E+02
     59.867  0.1580E+01  0.6437E+02
     60.131  0.1903E+01  0.6487E+02
     60.394  0.1761E+01  0.6533E+02
     60.657  0.2243E+01  0.6592E+02
     60.920  0.1801E+01  0.6639E+02
     61.183  0.1902E+01  0.6689E+02
     61.446  0.1852E+01  0.6738E+02
     61.709  0.1742E+01  0.6784E+02
     61.972  0.1398E+01  0.6821E+02
     62.235  0.1542E+01  0.6861E+02
     62.498  0.1338E+01  0.6896E+02
     62.761  0.1453E+01  0.6935E+02
     63.024  0.2301E+01  0.6995E+02
     63.288  0.1832E+01  0.7043E+02
     63.551  0.1304E+01  0.7078E+02
     63.814  0.1549E+01  0.7118E+02
     64.077  0.1742E+01  0.7164E+02
     64.340  0.1715E+01  0.7209E+02
     64.603  0.1597E+01  0.7251E+02
     64.866  0.1086E+01  0.7280E+02
     65.129  0.1278E+01  0.7314E+02
     65.392  0.1600E+01  0.7356E+02
     65.655  0.1838E+01  0.7404E+02
     65.918  0.2117E+01  0.7460E+02
     66.181  0.2128E+01  0.7516E+02
     66.444  0.1974E+01  0.7568E+02
     66.708  0.1716E+01  0.7613E+02
     66.971  0.1493E+01  0.7652E+02
     67.234  0.1661E+01  0.7696E+02
     67.497  0.2035E+01  0.7749E+02
     67.760  0.1231E+01  0.7782E+02
     68.023  0.1418E+01  0.7819E+02
     68.286  0.1703E+01  0.7864E+02
     68.549  0.1455E+01  0.7902E+02
     68.812  0.1415E+01  0.7939E+02
     69.075  0.9191E+00  0.7963E+02
     69.338  0.7103E+00  0.7982E+02
     69.601  0.3680E+00  0.7992E+02
     69.865  0.2175E+00  0.7998E+02
     70.128  0.9506E-01  0.8000E+02
     70.391 -0.1473E-02  0.8000E+02
     70.654 -0.4621E-03  0.8000E+02
     70.917 -0.4943E-06  0.8000E+02
     71.180 -0.1310E-10  0.8000E+02
     71.443 -0.7609E-17  0.8000E+02
     71.706  0.0000E+00  0.8000E+02
     71.969  0.0000E+00  0.8000E+02
     72.232  0.0000E+00  0.8000E+02
     72.495  0.0000E+00  0.8000E+02
     72.758  0.0000E+00  0.8000E+02
     73.021  0.0000E+00  0.8000E+02
     73.285  0.0000E+00  0.8000E+02
     73.548  0.0000E+00  0.8000E+02
