       N       E                     dE             d eps       ncg     rms          rms(c)
DAV:   1     0.601894560991E+02    0.60189E+02   -0.26107E+03  9216   0.323E+02
DAV:   2    -0.145984158120E+02   -0.74788E+02   -0.63337E+02  7888   0.954E+01
DAV:   3    -0.189403276295E+02   -0.43419E+01   -0.41308E+01  9552   0.240E+01
DAV:   4    -0.189587600186E+02   -0.18432E-01   -0.18420E-01  9136   0.164E+00
DAV:   5    -0.189587783366E+02   -0.18318E-04   -0.18317E-04  9264   0.490E-02    0.176E+01
DAV:   6    -0.161809100279E+02    0.27779E+01   -0.16987E+00 11176   0.240E+01    0.207E+00
DAV:   7    -0.160139483359E+02    0.16696E+00   -0.10218E-01 10152   0.488E+00    0.119E+00
DAV:   8    -0.159847659917E+02    0.29182E-01   -0.30864E-03 10104   0.370E-01    0.522E-01
DAV:   9    -0.159751520771E+02    0.96139E-02   -0.89654E-04 11008   0.162E-01    0.553E-02
DAV:  10    -0.159751841700E+02   -0.32093E-04   -0.31299E-05  8880   0.238E-02    0.254E-02
DAV:  11    -0.159751741109E+02    0.10059E-04   -0.43570E-07  8832   0.588E-03    0.212E-03
DAV:  12    -0.159751729056E+02    0.12053E-05   -0.61611E-08  6240   0.124E-03    0.107E-03
DAV:  13    -0.159751732389E+02   -0.33331E-06   -0.59457E-09  5520   0.368E-04
   1 F= -.15975173E+02 E0= -.15975983E+02  d E =0.242949E-02
