 vasp.6.2.0 18Jan21 (build Mar 17 2021 09:06:54) complex                        
  
 executed on             LinuxIFC date 2021.09.09  12:04:43
 serial version


--------------------------------------------------------------------------------------------------------


 INCAR:
   ENCUT = 280.000000
   SIGMA = 0.200000
   EDIFF = 1.00e-06
   GGA = PE
   PREC = normal
   IBRION = 1
   ICHARG = 1
   ISIF = 2
   ISMEAR = 1
   KPAR = 1
   NBANDS = 40
   NSW = 0
   NCORE = 1
   LCHARG = .TRUE.

 POTCAR:    PAW_PBE Fe 06Sep2000                  
 POTCAR:    PAW_PBE Fe 06Sep2000                  
   SHA256 =  cd5a22d9368cc8b5cc476bea79732366149640da08ac9009b0e1b7fc627eea28 Fe/POTCAR             
   COPYR  = (c) Copyright 06Sep2000 Georg Kresse                                                    
   COPYR  = This file is part of the software VASP. Any use, copying, and all other rights are regul
   COPYR  = If you do not have a valid VASP license, you may not use, copy or distribute this file. 
   VRHFIN =Fe:  d7 s1                                                                               
   LEXCH  = PE                                                                                      
   EATOM  =   594.3153 eV,   43.6809 Ry                                                             
                                                                                                    
   TITEL  = PAW_PBE Fe 06Sep2000                                                                    
   LULTRA =        F    use ultrasoft PP ?                                                          
   IUNSCR =        1    unscreen: 0-lin 1-nonlin 2-no                                               
   RPACOR =    2.000    partial core radius                                                         
   POMASS =   55.847; ZVAL   =    8.000    mass and valenz                                          
   RCORE  =    2.300    outmost cutoff radius                                                       
   RWIGS  =    2.460; RWIGS  =    1.302    wigner-seitz radius (au A)                               
   ENMAX  =  267.882; ENMIN  =  200.911 eV                                                          
   RCLOC  =    1.701    cutoff for local pot                                                        
   LCOR   =        T    correct aug charges                                                         
   LPAW   =        T    paw PP                                                                      
   EAUG   =  511.368                                                                                
   DEXC   =    0.000                                                                                
   RMAX   =    2.356    core radius for proj-oper                                                   
   RAUG   =    1.300    factor for augmentation sphere                                              
   RDEP   =    2.442    radius for radial grids                                                     
   RDEPT  =    1.890    core radius for aug-charge                                                  
                                                                                                    
   Atomic configuration                                                                             
    9 entries                                                                                       
     n  l   j            E        occ.                                                              
     1  0  0.50     -6993.8440   2.0000                                                             
     2  0  0.50      -814.6047   2.0000                                                             
     2  1  1.50      -693.3689   6.0000                                                             
     3  0  0.50       -89.4732   2.0000                                                             
     3  1  1.50       -55.6373   6.0000                                                             
     3  2  2.50        -3.8151   7.0000                                                             
     4  0  0.50        -4.2551   1.0000                                                             
     4  1  1.50        -3.4015   0.0000                                                             
     4  3  2.50        -1.3606   0.0000                                                             
   Description                                                                                      
     l       E           TYP  RCUT    TYP  RCUT                                                     
     2     -3.8151135     23  2.300                                                                 
     2     -5.1756961     23  2.300                                                                 
     0     -4.2550963     23  2.300                                                                 
     0      7.2035603     23  2.300                                                                 
     1     -2.7211652     23  2.300                                                                 
     1     18.4316424     23  2.300                                                                 
  local pseudopotential read in
  partial core-charges read in
  partial kinetic energy density read in
  atomic valenz-charges read in
  non local Contribution for L=           2  read in
    real space projection operators read in
  non local Contribution for L=           2  read in
    real space projection operators read in
  non local Contribution for L=           0  read in
    real space projection operators read in
  non local Contribution for L=           0  read in
    real space projection operators read in
  non local Contribution for L=           1  read in
    real space projection operators read in
  non local Contribution for L=           1  read in
    real space projection operators read in
    PAW grid and wavefunctions read in
 
   number of l-projection  operators is LMAX  =           6
   number of lm-projection operators is LMMAX =          18
 
  PAW_PBE Fe 06Sep2000                  :
 energy of atom  1       EATOM= -594.3153
 kinetic energy error for atom=    0.0278 (will be added to EATOM!!)
 
 
 POSCAR: Fe
  positions in cartesian coordinates
  No initial velocities read in
 exchange correlation table for  LEXCH =        8
   RHO(1)=    0.500       N(1)  =     2000
   RHO(2)=  100.500       N(2)  =     4000
 


--------------------------------------------------------------------------------------------------------


 ion  position               nearest neighbor table
   1  0.000  0.000  0.000-   2 2.49   2 2.49   2 2.49   2 2.49   2 2.49   2 2.49
   2  0.333  0.667  0.500-   1 2.49   1 2.49   1 2.49   1 2.49   1 2.49   1 2.49
 
  LATTYP: Found a hexagonal cell.
 ALAT       =     2.3300000000
 C/A-ratio  =     1.7948497854
  
  Lattice vectors:
  
 A1 = (   2.3300000000,   0.0000000000,   0.0000000000)
 A2 = (  -1.1650000000,   2.0178391908,   0.0000000000)
 A3 = (   0.0000000000,   0.0000000000,   4.1820000000)


Analysis of symmetry for initial positions (statically):
=====================================================================
 Subroutine PRICEL returns:
 Original cell was already a primitive cell.
 

 Routine SETGRP: Setting up the symmetry group for a 
 hexagonal supercell.


 Subroutine GETGRP returns: Found 24 space group operations
 (whereof 12 operations were pure point group operations)
 out of a pool of 24 trial point group operations.


The static configuration has the point symmetry D_3h.
 The point group associated with its full space group is D_6h.


Analysis of symmetry for dynamics (positions and initial velocities):
=====================================================================
 Subroutine PRICEL returns:
 Original cell was already a primitive cell.
 

 Routine SETGRP: Setting up the symmetry group for a 
 hexagonal supercell.


 Subroutine GETGRP returns: Found 24 space group operations
 (whereof 12 operations were pure point group operations)
 out of a pool of 24 trial point group operations.


The dynamic configuration has the point symmetry D_3h.
 The point group associated with its full space group is D_6h.


 Subroutine INISYM returns: Found 24 space group operations
 (whereof 12 operations are pure point group operations),
 and found     1 'primitive' translations


----------------------------------------------------------------------------------------

                                     Primitive cell                                     

  volume of cell :      19.6619

  direct lattice vectors                    reciprocal lattice vectors
     2.330000000  0.000000000  0.000000000     0.429184549  0.247789815  0.000000000
    -1.165000000  2.017839191  0.000000000     0.000000000  0.495579630  0.000000000
     0.000000000  0.000000000  4.182000000     0.000000000  0.000000000  0.239120038

  length of vectors
     2.330000000  2.330000000  4.182000000     0.495579630  0.495579630  0.239120038

  position of ions in fractional coordinates (direct lattice)
     0.000000000  0.000000000  0.000000000
     0.333333333  0.666666667  0.500000000

  ion indices of the primitive-cell ions
   primitive index   ion index
                 1           1
                 2           2

----------------------------------------------------------------------------------------

 
 
 KPOINTS: KPOINTS created by Atomic Simulation Env

Automatic generation of k-mesh.
 Grid dimensions read from file:
 generate k-points for:   11   11   11

 Generating k-lattice:

  Cartesian coordinates                     Fractional coordinates (reciprocal lattice)
     0.039016777  0.022526347  0.000000000     0.090909091 -0.000000000  0.000000000
     0.000000000  0.045052694  0.000000000     0.000000000  0.090909091  0.000000000
     0.000000000  0.000000000  0.021738185     0.000000000  0.000000000  0.090909091

  Length of vectors
     0.045052694  0.045052694  0.021738185

  Shift w.r.t. Gamma in fractional coordinates (k-lattice)
     0.000000000  0.000000000  0.000000000

 
 Subroutine IBZKPT returns following result:
 ===========================================
 
 Found     96 irreducible k-points:
 
 Following reciprocal coordinates:
            Coordinates               Weight
  0.000000  0.000000  0.000000      1.000000
  0.090909 -0.000000  0.000000      6.000000
  0.181818 -0.000000  0.000000      6.000000
  0.272727  0.000000  0.000000      6.000000
  0.363636 -0.000000  0.000000      6.000000
  0.454545 -0.000000  0.000000      6.000000
  0.090909  0.090909  0.000000      6.000000
  0.181818  0.090909  0.000000     12.000000
  0.272727  0.090909  0.000000     12.000000
  0.363636  0.090909  0.000000     12.000000
  0.454545  0.090909  0.000000      6.000000
  0.181818  0.181818  0.000000      6.000000
  0.272727  0.181818  0.000000     12.000000
  0.363636  0.181818  0.000000     12.000000
  0.272727  0.272727  0.000000      6.000000
  0.363636  0.272727  0.000000      6.000000
  0.000000  0.000000  0.090909      2.000000
  0.090909 -0.000000  0.090909     12.000000
  0.181818 -0.000000  0.090909     12.000000
  0.272727  0.000000  0.090909     12.000000
  0.363636 -0.000000  0.090909     12.000000
  0.454545 -0.000000  0.090909     12.000000
  0.090909  0.090909  0.090909     12.000000
  0.181818  0.090909  0.090909     24.000000
  0.272727  0.090909  0.090909     24.000000
  0.363636  0.090909  0.090909     24.000000
  0.454545  0.090909  0.090909     12.000000
  0.181818  0.181818  0.090909     12.000000
  0.272727  0.181818  0.090909     24.000000
  0.363636  0.181818  0.090909     24.000000
  0.272727  0.272727  0.090909     12.000000
  0.363636  0.272727  0.090909     12.000000
  0.000000  0.000000  0.181818      2.000000
  0.090909 -0.000000  0.181818     12.000000
  0.181818 -0.000000  0.181818     12.000000
  0.272727  0.000000  0.181818     12.000000
  0.363636 -0.000000  0.181818     12.000000
  0.454545 -0.000000  0.181818     12.000000
  0.090909  0.090909  0.181818     12.000000
  0.181818  0.090909  0.181818     24.000000
  0.272727  0.090909  0.181818     24.000000
  0.363636  0.090909  0.181818     24.000000
  0.454545  0.090909  0.181818     12.000000
  0.181818  0.181818  0.181818     12.000000
  0.272727  0.181818  0.181818     24.000000
  0.363636  0.181818  0.181818     24.000000
  0.272727  0.272727  0.181818     12.000000
  0.363636  0.272727  0.181818     12.000000
  0.000000  0.000000  0.272727      2.000000
  0.090909 -0.000000  0.272727     12.000000
  0.181818 -0.000000  0.272727     12.000000
  0.272727  0.000000  0.272727     12.000000
  0.363636 -0.000000  0.272727     12.000000
  0.454545 -0.000000  0.272727     12.000000
  0.090909  0.090909  0.272727     12.000000
  0.181818  0.090909  0.272727     24.000000
  0.272727  0.090909  0.272727     24.000000
  0.363636  0.090909  0.272727     24.000000
  0.454545  0.090909  0.272727     12.000000
  0.181818  0.181818  0.272727     12.000000
  0.272727  0.181818  0.272727     24.000000
  0.363636  0.181818  0.272727     24.000000
  0.272727  0.272727  0.272727     12.000000
  0.363636  0.272727  0.272727     12.000000
  0.000000  0.000000  0.363636      2.000000
  0.090909 -0.000000  0.363636     12.000000
  0.181818 -0.000000  0.363636     12.000000
  0.272727  0.000000  0.363636     12.000000
  0.363636 -0.000000  0.363636     12.000000
  0.454545 -0.000000  0.363636     12.000000
  0.090909  0.090909  0.363636     12.000000
  0.181818  0.090909  0.363636     24.000000
  0.272727  0.090909  0.363636     24.000000
  0.363636  0.090909  0.363636     24.000000
  0.454545  0.090909  0.363636     12.000000
  0.181818  0.181818  0.363636     12.000000
  0.272727  0.181818  0.363636     24.000000
  0.363636  0.181818  0.363636     24.000000
  0.272727  0.272727  0.363636     12.000000
  0.363636  0.272727  0.363636     12.000000
  0.000000  0.000000  0.454545      2.000000
  0.090909 -0.000000  0.454545     12.000000
  0.181818 -0.000000  0.454545     12.000000
  0.272727  0.000000  0.454545     12.000000
  0.363636 -0.000000  0.454545     12.000000
  0.454545 -0.000000  0.454545     12.000000
  0.090909  0.090909  0.454545     12.000000
  0.181818  0.090909  0.454545     24.000000
  0.272727  0.090909  0.454545     24.000000
  0.363636  0.090909  0.454545     24.000000
  0.454545  0.090909  0.454545     12.000000
  0.181818  0.181818  0.454545     12.000000
  0.272727  0.181818  0.454545     24.000000
  0.363636  0.181818  0.454545     24.000000
  0.272727  0.272727  0.454545     12.000000
  0.363636  0.272727  0.454545     12.000000
 
 Following cartesian coordinates:
            Coordinates               Weight
  0.000000  0.000000  0.000000      1.000000
  0.039017  0.022526  0.000000      6.000000
  0.078034  0.045053  0.000000      6.000000
  0.117050  0.067579  0.000000      6.000000
  0.156067  0.090105  0.000000      6.000000
  0.195084  0.112632  0.000000      6.000000
  0.039017  0.067579  0.000000      6.000000
  0.078034  0.090105  0.000000     12.000000
  0.117050  0.112632  0.000000     12.000000
  0.156067  0.135158  0.000000     12.000000
  0.195084  0.157684  0.000000      6.000000
  0.078034  0.135158  0.000000      6.000000
  0.117050  0.157684  0.000000     12.000000
  0.156067  0.180211  0.000000     12.000000
  0.117050  0.202737  0.000000      6.000000
  0.156067  0.225263  0.000000      6.000000
  0.000000  0.000000  0.021738      2.000000
  0.039017  0.022526  0.021738     12.000000
  0.078034  0.045053  0.021738     12.000000
  0.117050  0.067579  0.021738     12.000000
  0.156067  0.090105  0.021738     12.000000
  0.195084  0.112632  0.021738     12.000000
  0.039017  0.067579  0.021738     12.000000
  0.078034  0.090105  0.021738     24.000000
  0.117050  0.112632  0.021738     24.000000
  0.156067  0.135158  0.021738     24.000000
  0.195084  0.157684  0.021738     12.000000
  0.078034  0.135158  0.021738     12.000000
  0.117050  0.157684  0.021738     24.000000
  0.156067  0.180211  0.021738     24.000000
  0.117050  0.202737  0.021738     12.000000
  0.156067  0.225263  0.021738     12.000000
  0.000000  0.000000  0.043476      2.000000
  0.039017  0.022526  0.043476     12.000000
  0.078034  0.045053  0.043476     12.000000
  0.117050  0.067579  0.043476     12.000000
  0.156067  0.090105  0.043476     12.000000
  0.195084  0.112632  0.043476     12.000000
  0.039017  0.067579  0.043476     12.000000
  0.078034  0.090105  0.043476     24.000000
  0.117050  0.112632  0.043476     24.000000
  0.156067  0.135158  0.043476     24.000000
  0.195084  0.157684  0.043476     12.000000
  0.078034  0.135158  0.043476     12.000000
  0.117050  0.157684  0.043476     24.000000
  0.156067  0.180211  0.043476     24.000000
  0.117050  0.202737  0.043476     12.000000
  0.156067  0.225263  0.043476     12.000000
  0.000000  0.000000  0.065215      2.000000
  0.039017  0.022526  0.065215     12.000000
  0.078034  0.045053  0.065215     12.000000
  0.117050  0.067579  0.065215     12.000000
  0.156067  0.090105  0.065215     12.000000
  0.195084  0.112632  0.065215     12.000000
  0.039017  0.067579  0.065215     12.000000
  0.078034  0.090105  0.065215     24.000000
  0.117050  0.112632  0.065215     24.000000
  0.156067  0.135158  0.065215     24.000000
  0.195084  0.157684  0.065215     12.000000
  0.078034  0.135158  0.065215     12.000000
  0.117050  0.157684  0.065215     24.000000
  0.156067  0.180211  0.065215     24.000000
  0.117050  0.202737  0.065215     12.000000
  0.156067  0.225263  0.065215     12.000000
  0.000000  0.000000  0.086953      2.000000
  0.039017  0.022526  0.086953     12.000000
  0.078034  0.045053  0.086953     12.000000
  0.117050  0.067579  0.086953     12.000000
  0.156067  0.090105  0.086953     12.000000
  0.195084  0.112632  0.086953     12.000000
  0.039017  0.067579  0.086953     12.000000
  0.078034  0.090105  0.086953     24.000000
  0.117050  0.112632  0.086953     24.000000
  0.156067  0.135158  0.086953     24.000000
  0.195084  0.157684  0.086953     12.000000
  0.078034  0.135158  0.086953     12.000000
  0.117050  0.157684  0.086953     24.000000
  0.156067  0.180211  0.086953     24.000000
  0.117050  0.202737  0.086953     12.000000
  0.156067  0.225263  0.086953     12.000000
  0.000000  0.000000  0.108691      2.000000
  0.039017  0.022526  0.108691     12.000000
  0.078034  0.045053  0.108691     12.000000
  0.117050  0.067579  0.108691     12.000000
  0.156067  0.090105  0.108691     12.000000
  0.195084  0.112632  0.108691     12.000000
  0.039017  0.067579  0.108691     12.000000
  0.078034  0.090105  0.108691     24.000000
  0.117050  0.112632  0.108691     24.000000
  0.156067  0.135158  0.108691     24.000000
  0.195084  0.157684  0.108691     12.000000
  0.078034  0.135158  0.108691     12.000000
  0.117050  0.157684  0.108691     24.000000
  0.156067  0.180211  0.108691     24.000000
  0.117050  0.202737  0.108691     12.000000
  0.156067  0.225263  0.108691     12.000000
 


--------------------------------------------------------------------------------------------------------




 Dimension of arrays:
   k-points           NKPTS =     96   k-points in BZ     NKDIM =     96   number of bands    NBANDS=     40
   number of dos      NEDOS =    301   number of ions     NIONS =      2
   non local maximal  LDIM  =      6   non local SUM 2l+1 LMDIM =     18
   total plane-waves  NPLWV =   1800
   max r-space proj   IRMAX =      1   max aug-charges    IRDMAX=   3460
   dimension x,y,z NGX =    10 NGY =   10 NGZ =   18
   dimension x,y,z NGXF=    20 NGYF=   20 NGZF=   36
   support grid    NGXF=    20 NGYF=   20 NGZF=   36
   ions per type =               2
   NGX,Y,Z   is equivalent  to a cutoff of   7.14,  7.14,  7.16 a.u.
   NGXF,Y,Z  is equivalent  to a cutoff of  14.27, 14.27, 14.31 a.u.

 SYSTEM =  unknown system                          
 POSCAR =  Fe                                      

 Startparameter for this run:
   NWRITE =      2    write-flag & timer
   PREC   = normal    normal or accurate (medium, high low for compatibility)
   ISTART =      0    job   : 0-new  1-cont  2-samecut
   ICHARG =      1    charge: 1-file 2-atom 10-const
   ISPIN  =      1    spin polarized calculation?
   LNONCOLLINEAR =      F non collinear calculations
   LSORBIT =      F    spin-orbit coupling
   INIWAV =      1    electr: 0-lowe 1-rand  2-diag
   LASPH  =      F    aspherical Exc in radial PAW
   METAGGA=      F    non-selfconsistent MetaGGA calc.

 Electronic Relaxation 1
   ENCUT  =  280.0 eV  20.58 Ry    4.54 a.u.   3.18  3.18  5.71*2*pi/ulx,y,z
   ENINI  =  280.0     initial cutoff
   ENAUG  =  511.4 eV  augmentation charge cutoff
   NELM   =     60;   NELMIN=  2; NELMDL= -5     # of ELM steps 
   EDIFF  = 0.1E-05   stopping-criterion for ELM
   LREAL  =      F    real-space projection
   NLSPLINE    = F    spline interpolate recip. space projectors
   LCOMPAT=      F    compatible to vasp.4.4
   GGA_COMPAT  = T    GGA compatible to vasp.4.4-vasp.4.6
   LMAXPAW     = -100 max onsite density
   LMAXMIX     =    2 max onsite mixed and CHGCAR
   VOSKOWN=      0    Vosko Wilk Nusair interpolation
   ROPT   =    0.00000
 Ionic relaxation
   EDIFFG = 0.1E-04   stopping-criterion for IOM
   NSW    =      0    number of steps for IOM
   NBLOCK =      1;   KBLOCK =      1    inner block; outer block 
   IBRION =     -1    ionic relax: 0-MD 1-quasi-New 2-CG
   NFREE  =      0    steps in history (QN), initial steepest desc. (CG)
   ISIF   =      2    stress and relaxation
   IWAVPR =      0    prediction:  0-non 1-charg 2-wave 3-comb
   ISYM   =      2    0-nonsym 1-usesym 2-fastsym
   LCORR  =      T    Harris-Foulkes like correction to forces

   POTIM  = 0.5000    time-step for ionic-motion
   TEIN   =    0.0    initial temperature
   TEBEG  =    0.0;   TEEND  =   0.0 temperature during run
   SMASS  =  -3.00    Nose mass-parameter (am)
   estimated Nose-frequenzy (Omega)   =  0.10E-29 period in steps = 0.13E+47 mass=  -0.124E-27a.u.
   SCALEE = 1.0000    scale energy and forces
   NPACO  =    256;   APACO  = 16.0  distance and # of slots for P.C.
   PSTRESS=    0.0 pullay stress

  Mass of Ions in am
   POMASS =  55.85
  Ionic Valenz
   ZVAL   =   8.00
  Atomic Wigner-Seitz radii
   RWIGS  =  -1.00
  virtual crystal weights 
   VCA    =   1.00
   NELECT =      16.0000    total number of electrons
   NUPDOWN=      -1.0000    fix difference up-down

 DOS related values:
   EMIN   =  10.00;   EMAX   =-10.00  energy-range for DOS
   EFERMI =   0.00
   ISMEAR =     1;   SIGMA  =   0.20  broadening in eV -4-tet -1-fermi 0-gaus

 Electronic relaxation 2 (details)
   IALGO  =     38    algorithm
   LDIAG  =      T    sub-space diagonalisation (order eigenvalues)
   LSUBROT=      F    optimize rotation matrix (better conditioning)
   TURBO    =      0    0=normal 1=particle mesh
   IRESTART =      0    0=no restart 2=restart with 2 vectors
   NREBOOT  =      0    no. of reboots
   NMIN     =      0    reboot dimension
   EREF     =   0.00    reference energy to select bands
   IMIX   =      4    mixing-type and parameters
     AMIX     =   0.40;   BMIX     =  1.00
     AMIX_MAG =   1.60;   BMIX_MAG =  1.00
     AMIN     =   0.10
     WC   =   100.;   INIMIX=   1;  MIXPRE=   1;  MAXMIX= -45

 Intra band minimization:
   WEIMIN = 0.0000     energy-eigenvalue tresh-hold
   EBREAK =  0.62E-08  absolut break condition
   DEPER  =   0.30     relativ break condition  

   TIME   =   0.40     timestep for ELM

  volume/ion in A,a.u.               =       9.83        66.34
  Fermi-wavevector in a.u.,A,eV,Ry     =   1.528408  2.888272 31.783635  2.336031
  Thomas-Fermi vector in A             =   2.636171
 
 Write flags
   LWAVE        =      T    write WAVECAR
   LDOWNSAMPLE  =      F    k-point downsampling of WAVECAR
   LCHARG       =      T    write CHGCAR
   LVTOT        =      F    write LOCPOT, total local potential
   LVHAR        =      F    write LOCPOT, Hartree potential only
   LELF         =      F    write electronic localiz. function (ELF)
   LORBIT       =      0    0 simple, 1 ext, 2 COOP (PROOUT), +10 PAW based schemes


 Dipole corrections
   LMONO  =      F    monopole corrections only (constant potential shift)
   LDIPOL =      F    correct potential (dipole corrections)
   IDIPOL =      0    1-x, 2-y, 3-z, 4-all directions 
   EPSILON=  1.0000000 bulk dielectric constant

 Exchange correlation treatment:
   GGA     =    PE    GGA type
   LEXCH   =     8    internal setting for exchange type
   VOSKOWN=      0    Vosko Wilk Nusair interpolation
   LHFCALC =     F    Hartree Fock is set to
   LHFONE  =     F    Hartree Fock one center treatment
   AEXX    =    0.0000 exact exchange contribution

 Linear response parameters
   LEPSILON=     F    determine dielectric tensor
   LRPA    =     F    only Hartree local field effects (RPA)
   LNABLA  =     F    use nabla operator in PAW spheres
   LVEL    =     F    velocity operator in full k-point grid
   LINTERFAST=   F  fast interpolation
   KINTER  =     0    interpolate to denser k-point grid
   CSHIFT  =0.1000    complex shift for real part using Kramers Kronig
   OMEGAMAX=  -1.0    maximum frequency
   DEG_THRESHOLD= 0.2000000E-02 threshold for treating states as degnerate
   RTIME   =   -0.100 relaxation time in fs
  (WPLASMAI=    0.000 imaginary part of plasma frequency in eV, 0.658/RTIME)
   DFIELD  = 0.0000000 0.0000000 0.0000000 field for delta impulse in time
 
 Orbital magnetization related:
   ORBITALMAG=     F  switch on orbital magnetization
   LCHIMAG   =     F  perturbation theory with respect to B field
   DQ        =  0.001000  dq finite difference perturbation B field
   LLRAUG    =     F  two centre corrections for induced B field



--------------------------------------------------------------------------------------------------------


 Static calculation
 charge density and potential will be updated during run
 non-spin polarized calculation
 Variant of blocked Davidson
 Davidson routine will perform the subspace rotation
 perform sub-space diagonalisation
    after iterative eigenvector-optimisation
 modified Broyden-mixing scheme, WC =      100.0
 initial mixing is a Kerker type mixing with AMIX =  0.4000 and BMIX =      1.0000
 Hartree-type preconditioning will be used
 using additional bands           32
 reciprocal scheme for non local part
 use partial core corrections
 calculate Harris-corrections to forces 
   (improved forces if not selfconsistent)
 use gradient corrections 
 use of overlap-Matrix (Vanderbilt PP)
 Methfessel and Paxton  Order N= 1 SIGMA  =   0.20


--------------------------------------------------------------------------------------------------------


  energy-cutoff  :      280.00
  volume of cell :       19.66
      direct lattice vectors                 reciprocal lattice vectors
     2.330000000  0.000000000  0.000000000     0.429184549  0.247789815  0.000000000
    -1.165000000  2.017839191  0.000000000     0.000000000  0.495579630  0.000000000
     0.000000000  0.000000000  4.182000000     0.000000000  0.000000000  0.239120038

  length of vectors
     2.330000000  2.330000000  4.182000000     0.495579630  0.495579630  0.239120038


 
 k-points in units of 2pi/SCALE and weight: KPOINTS created by Atomic Simulation Env
   0.00000000  0.00000000  0.00000000       0.001
   0.03901678  0.02252635  0.00000000       0.005
   0.07803355  0.04505269  0.00000000       0.005
   0.11705033  0.06757904  0.00000000       0.005
   0.15606711  0.09010539  0.00000000       0.005
   0.19508389  0.11263173  0.00000000       0.005
   0.03901678  0.06757904  0.00000000       0.005
   0.07803355  0.09010539  0.00000000       0.009
   0.11705033  0.11263173  0.00000000       0.009
   0.15606711  0.13515808  0.00000000       0.009
   0.19508389  0.15768443  0.00000000       0.005
   0.07803355  0.13515808  0.00000000       0.005
   0.11705033  0.15768443  0.00000000       0.009
   0.15606711  0.18021077  0.00000000       0.009
   0.11705033  0.20273712  0.00000000       0.005
   0.15606711  0.22526347  0.00000000       0.005
   0.00000000  0.00000000  0.02173819       0.002
   0.03901678  0.02252635  0.02173819       0.009
   0.07803355  0.04505269  0.02173819       0.009
   0.11705033  0.06757904  0.02173819       0.009
   0.15606711  0.09010539  0.02173819       0.009
   0.19508389  0.11263173  0.02173819       0.009
   0.03901678  0.06757904  0.02173819       0.009
   0.07803355  0.09010539  0.02173819       0.018
   0.11705033  0.11263173  0.02173819       0.018
   0.15606711  0.13515808  0.02173819       0.018
   0.19508389  0.15768443  0.02173819       0.009
   0.07803355  0.13515808  0.02173819       0.009
   0.11705033  0.15768443  0.02173819       0.018
   0.15606711  0.18021077  0.02173819       0.018
   0.11705033  0.20273712  0.02173819       0.009
   0.15606711  0.22526347  0.02173819       0.009
   0.00000000  0.00000000  0.04347637       0.002
   0.03901678  0.02252635  0.04347637       0.009
   0.07803355  0.04505269  0.04347637       0.009
   0.11705033  0.06757904  0.04347637       0.009
   0.15606711  0.09010539  0.04347637       0.009
   0.19508389  0.11263173  0.04347637       0.009
   0.03901678  0.06757904  0.04347637       0.009
   0.07803355  0.09010539  0.04347637       0.018
   0.11705033  0.11263173  0.04347637       0.018
   0.15606711  0.13515808  0.04347637       0.018
   0.19508389  0.15768443  0.04347637       0.009
   0.07803355  0.13515808  0.04347637       0.009
   0.11705033  0.15768443  0.04347637       0.018
   0.15606711  0.18021077  0.04347637       0.018
   0.11705033  0.20273712  0.04347637       0.009
   0.15606711  0.22526347  0.04347637       0.009
   0.00000000  0.00000000  0.06521456       0.002
   0.03901678  0.02252635  0.06521456       0.009
   0.07803355  0.04505269  0.06521456       0.009
   0.11705033  0.06757904  0.06521456       0.009
   0.15606711  0.09010539  0.06521456       0.009
   0.19508389  0.11263173  0.06521456       0.009
   0.03901678  0.06757904  0.06521456       0.009
   0.07803355  0.09010539  0.06521456       0.018
   0.11705033  0.11263173  0.06521456       0.018
   0.15606711  0.13515808  0.06521456       0.018
   0.19508389  0.15768443  0.06521456       0.009
   0.07803355  0.13515808  0.06521456       0.009
   0.11705033  0.15768443  0.06521456       0.018
   0.15606711  0.18021077  0.06521456       0.018
   0.11705033  0.20273712  0.06521456       0.009
   0.15606711  0.22526347  0.06521456       0.009
   0.00000000  0.00000000  0.08695274       0.002
   0.03901678  0.02252635  0.08695274       0.009
   0.07803355  0.04505269  0.08695274       0.009
   0.11705033  0.06757904  0.08695274       0.009
   0.15606711  0.09010539  0.08695274       0.009
   0.19508389  0.11263173  0.08695274       0.009
   0.03901678  0.06757904  0.08695274       0.009
   0.07803355  0.09010539  0.08695274       0.018
   0.11705033  0.11263173  0.08695274       0.018
   0.15606711  0.13515808  0.08695274       0.018
   0.19508389  0.15768443  0.08695274       0.009
   0.07803355  0.13515808  0.08695274       0.009
   0.11705033  0.15768443  0.08695274       0.018
   0.15606711  0.18021077  0.08695274       0.018
   0.11705033  0.20273712  0.08695274       0.009
   0.15606711  0.22526347  0.08695274       0.009
   0.00000000  0.00000000  0.10869093       0.002
   0.03901678  0.02252635  0.10869093       0.009
   0.07803355  0.04505269  0.10869093       0.009
   0.11705033  0.06757904  0.10869093       0.009
   0.15606711  0.09010539  0.10869093       0.009
   0.19508389  0.11263173  0.10869093       0.009
   0.03901678  0.06757904  0.10869093       0.009
   0.07803355  0.09010539  0.10869093       0.018
   0.11705033  0.11263173  0.10869093       0.018
   0.15606711  0.13515808  0.10869093       0.018
   0.19508389  0.15768443  0.10869093       0.009
   0.07803355  0.13515808  0.10869093       0.009
   0.11705033  0.15768443  0.10869093       0.018
   0.15606711  0.18021077  0.10869093       0.018
   0.11705033  0.20273712  0.10869093       0.009
   0.15606711  0.22526347  0.10869093       0.009
 
 k-points in reciprocal lattice and weights: KPOINTS created by Atomic Simulation Env
   0.00000000  0.00000000  0.00000000       0.001
   0.09090909 -0.00000000  0.00000000       0.005
   0.18181818 -0.00000000  0.00000000       0.005
   0.27272727  0.00000000  0.00000000       0.005
   0.36363636 -0.00000000  0.00000000       0.005
   0.45454545 -0.00000000  0.00000000       0.005
   0.09090909  0.09090909  0.00000000       0.005
   0.18181818  0.09090909  0.00000000       0.009
   0.27272727  0.09090909  0.00000000       0.009
   0.36363636  0.09090909  0.00000000       0.009
   0.45454545  0.09090909  0.00000000       0.005
   0.18181818  0.18181818  0.00000000       0.005
   0.27272727  0.18181818  0.00000000       0.009
   0.36363636  0.18181818  0.00000000       0.009
   0.27272727  0.27272727  0.00000000       0.005
   0.36363636  0.27272727  0.00000000       0.005
   0.00000000  0.00000000  0.09090909       0.002
   0.09090909 -0.00000000  0.09090909       0.009
   0.18181818 -0.00000000  0.09090909       0.009
   0.27272727  0.00000000  0.09090909       0.009
   0.36363636 -0.00000000  0.09090909       0.009
   0.45454545 -0.00000000  0.09090909       0.009
   0.09090909  0.09090909  0.09090909       0.009
   0.18181818  0.09090909  0.09090909       0.018
   0.27272727  0.09090909  0.09090909       0.018
   0.36363636  0.09090909  0.09090909       0.018
   0.45454545  0.09090909  0.09090909       0.009
   0.18181818  0.18181818  0.09090909       0.009
   0.27272727  0.18181818  0.09090909       0.018
   0.36363636  0.18181818  0.09090909       0.018
   0.27272727  0.27272727  0.09090909       0.009
   0.36363636  0.27272727  0.09090909       0.009
   0.00000000  0.00000000  0.18181818       0.002
   0.09090909 -0.00000000  0.18181818       0.009
   0.18181818 -0.00000000  0.18181818       0.009
   0.27272727  0.00000000  0.18181818       0.009
   0.36363636 -0.00000000  0.18181818       0.009
   0.45454545 -0.00000000  0.18181818       0.009
   0.09090909  0.09090909  0.18181818       0.009
   0.18181818  0.09090909  0.18181818       0.018
   0.27272727  0.09090909  0.18181818       0.018
   0.36363636  0.09090909  0.18181818       0.018
   0.45454545  0.09090909  0.18181818       0.009
   0.18181818  0.18181818  0.18181818       0.009
   0.27272727  0.18181818  0.18181818       0.018
   0.36363636  0.18181818  0.18181818       0.018
   0.27272727  0.27272727  0.18181818       0.009
   0.36363636  0.27272727  0.18181818       0.009
   0.00000000  0.00000000  0.27272727       0.002
   0.09090909 -0.00000000  0.27272727       0.009
   0.18181818 -0.00000000  0.27272727       0.009
   0.27272727  0.00000000  0.27272727       0.009
   0.36363636 -0.00000000  0.27272727       0.009
   0.45454545 -0.00000000  0.27272727       0.009
   0.09090909  0.09090909  0.27272727       0.009
   0.18181818  0.09090909  0.27272727       0.018
   0.27272727  0.09090909  0.27272727       0.018
   0.36363636  0.09090909  0.27272727       0.018
   0.45454545  0.09090909  0.27272727       0.009
   0.18181818  0.18181818  0.27272727       0.009
   0.27272727  0.18181818  0.27272727       0.018
   0.36363636  0.18181818  0.27272727       0.018
   0.27272727  0.27272727  0.27272727       0.009
   0.36363636  0.27272727  0.27272727       0.009
   0.00000000  0.00000000  0.36363636       0.002
   0.09090909 -0.00000000  0.36363636       0.009
   0.18181818 -0.00000000  0.36363636       0.009
   0.27272727  0.00000000  0.36363636       0.009
   0.36363636 -0.00000000  0.36363636       0.009
   0.45454545 -0.00000000  0.36363636       0.009
   0.09090909  0.09090909  0.36363636       0.009
   0.18181818  0.09090909  0.36363636       0.018
   0.27272727  0.09090909  0.36363636       0.018
   0.36363636  0.09090909  0.36363636       0.018
   0.45454545  0.09090909  0.36363636       0.009
   0.18181818  0.18181818  0.36363636       0.009
   0.27272727  0.18181818  0.36363636       0.018
   0.36363636  0.18181818  0.36363636       0.018
   0.27272727  0.27272727  0.36363636       0.009
   0.36363636  0.27272727  0.36363636       0.009
   0.00000000  0.00000000  0.45454545       0.002
   0.09090909 -0.00000000  0.45454545       0.009
   0.18181818 -0.00000000  0.45454545       0.009
   0.27272727  0.00000000  0.45454545       0.009
   0.36363636 -0.00000000  0.45454545       0.009
   0.45454545 -0.00000000  0.45454545       0.009
   0.09090909  0.09090909  0.45454545       0.009
   0.18181818  0.09090909  0.45454545       0.018
   0.27272727  0.09090909  0.45454545       0.018
   0.36363636  0.09090909  0.45454545       0.018
   0.45454545  0.09090909  0.45454545       0.009
   0.18181818  0.18181818  0.45454545       0.009
   0.27272727  0.18181818  0.45454545       0.018
   0.36363636  0.18181818  0.45454545       0.018
   0.27272727  0.27272727  0.45454545       0.009
   0.36363636  0.27272727  0.45454545       0.009
 
 position of ions in fractional coordinates (direct lattice) 
   0.00000000  0.00000000  0.00000000
   0.33333333  0.66666667  0.50000000
 
 position of ions in cartesian coordinates  (Angst):
   0.00000000  0.00000000  0.00000000
   0.00000000  1.34522613  2.09100000
 


--------------------------------------------------------------------------------------------------------


 k-point   1 :   0.0000 0.0000 0.0000  plane waves:     209
 k-point   2 :   0.0909-0.0000 0.0000  plane waves:     215
 k-point   3 :   0.1818-0.0000 0.0000  plane waves:     211
 k-point   4 :   0.2727 0.0000 0.0000  plane waves:     204
 k-point   5 :   0.3636-0.0000 0.0000  plane waves:     206
 k-point   6 :   0.4545-0.0000 0.0000  plane waves:     210
 k-point   7 :   0.0909 0.0909 0.0000  plane waves:     211
 k-point   8 :   0.1818 0.0909 0.0000  plane waves:     206
 k-point   9 :   0.2727 0.0909 0.0000  plane waves:     211
 k-point  10 :   0.3636 0.0909 0.0000  plane waves:     212
 k-point  11 :   0.4545 0.0909 0.0000  plane waves:     210
 k-point  12 :   0.1818 0.1818 0.0000  plane waves:     211
 k-point  13 :   0.2727 0.1818 0.0000  plane waves:     205
 k-point  14 :   0.3636 0.1818 0.0000  plane waves:     209
 k-point  15 :   0.2727 0.2727 0.0000  plane waves:     205
 k-point  16 :   0.3636 0.2727 0.0000  plane waves:     211
 k-point  17 :   0.0000 0.0000 0.0909  plane waves:     215
 k-point  18 :   0.0909-0.0000 0.0909  plane waves:     213
 k-point  19 :   0.1818-0.0000 0.0909  plane waves:     211
 k-point  20 :   0.2727 0.0000 0.0909  plane waves:     207
 k-point  21 :   0.3636-0.0000 0.0909  plane waves:     208
 k-point  22 :   0.4545-0.0000 0.0909  plane waves:     208
 k-point  23 :   0.0909 0.0909 0.0909  plane waves:     211
 k-point  24 :   0.1818 0.0909 0.0909  plane waves:     208
 k-point  25 :   0.2727 0.0909 0.0909  plane waves:     208
 k-point  26 :   0.3636 0.0909 0.0909  plane waves:     213
 k-point  27 :   0.4545 0.0909 0.0909  plane waves:     214
 k-point  28 :   0.1818 0.1818 0.0909  plane waves:     207
 k-point  29 :   0.2727 0.1818 0.0909  plane waves:     209
 k-point  30 :   0.3636 0.1818 0.0909  plane waves:     209
 k-point  31 :   0.2727 0.2727 0.0909  plane waves:     206
 k-point  32 :   0.3636 0.2727 0.0909  plane waves:     210
 k-point  33 :   0.0000 0.0000 0.1818  plane waves:     215
 k-point  34 :   0.0909-0.0000 0.1818  plane waves:     210
 k-point  35 :   0.1818-0.0000 0.1818  plane waves:     206
 k-point  36 :   0.2727 0.0000 0.1818  plane waves:     207
 k-point  37 :   0.3636-0.0000 0.1818  plane waves:     210
 k-point  38 :   0.4545-0.0000 0.1818  plane waves:     210
 k-point  39 :   0.0909 0.0909 0.1818  plane waves:     210
 k-point  40 :   0.1818 0.0909 0.1818  plane waves:     205
 k-point  41 :   0.2727 0.0909 0.1818  plane waves:     210
 k-point  42 :   0.3636 0.0909 0.1818  plane waves:     210
 k-point  43 :   0.4545 0.0909 0.1818  plane waves:     212
 k-point  44 :   0.1818 0.1818 0.1818  plane waves:     206
 k-point  45 :   0.2727 0.1818 0.1818  plane waves:     211
 k-point  46 :   0.3636 0.1818 0.1818  plane waves:     209
 k-point  47 :   0.2727 0.2727 0.1818  plane waves:     212
 k-point  48 :   0.3636 0.2727 0.1818  plane waves:     210
 k-point  49 :   0.0000 0.0000 0.2727  plane waves:     215
 k-point  50 :   0.0909-0.0000 0.2727  plane waves:     211
 k-point  51 :   0.1818-0.0000 0.2727  plane waves:     204
 k-point  52 :   0.2727 0.0000 0.2727  plane waves:     209
 k-point  53 :   0.3636-0.0000 0.2727  plane waves:     210
 k-point  54 :   0.4545-0.0000 0.2727  plane waves:     208
 k-point  55 :   0.0909 0.0909 0.2727  plane waves:     204
 k-point  56 :   0.1818 0.0909 0.2727  plane waves:     203
 k-point  57 :   0.2727 0.0909 0.2727  plane waves:     209
 k-point  58 :   0.3636 0.0909 0.2727  plane waves:     212
 k-point  59 :   0.4545 0.0909 0.2727  plane waves:     214
 k-point  60 :   0.1818 0.1818 0.2727  plane waves:     205
 k-point  61 :   0.2727 0.1818 0.2727  plane waves:     210
 k-point  62 :   0.3636 0.1818 0.2727  plane waves:     211
 k-point  63 :   0.2727 0.2727 0.2727  plane waves:     210
 k-point  64 :   0.3636 0.2727 0.2727  plane waves:     211
 k-point  65 :   0.0000 0.0000 0.3636  plane waves:     210
 k-point  66 :   0.0909-0.0000 0.3636  plane waves:     211
 k-point  67 :   0.1818-0.0000 0.3636  plane waves:     206
 k-point  68 :   0.2727 0.0000 0.3636  plane waves:     210
 k-point  69 :   0.3636-0.0000 0.3636  plane waves:     212
 k-point  70 :   0.4545-0.0000 0.3636  plane waves:     205
 k-point  71 :   0.0909 0.0909 0.3636  plane waves:     202
 k-point  72 :   0.1818 0.0909 0.3636  plane waves:     203
 k-point  73 :   0.2727 0.0909 0.3636  plane waves:     206
 k-point  74 :   0.3636 0.0909 0.3636  plane waves:     209
 k-point  75 :   0.4545 0.0909 0.3636  plane waves:     209
 k-point  76 :   0.1818 0.1818 0.3636  plane waves:     208
 k-point  77 :   0.2727 0.1818 0.3636  plane waves:     209
 k-point  78 :   0.3636 0.1818 0.3636  plane waves:     213
 k-point  79 :   0.2727 0.2727 0.3636  plane waves:     214
 k-point  80 :   0.3636 0.2727 0.3636  plane waves:     215
 k-point  81 :   0.0000 0.0000 0.4545  plane waves:     216
 k-point  82 :   0.0909-0.0000 0.4545  plane waves:     208
 k-point  83 :   0.1818-0.0000 0.4545  plane waves:     201
 k-point  84 :   0.2727 0.0000 0.4545  plane waves:     209
 k-point  85 :   0.3636-0.0000 0.4545  plane waves:     210
 k-point  86 :   0.4545-0.0000 0.4545  plane waves:     206
 k-point  87 :   0.0909 0.0909 0.4545  plane waves:     202
 k-point  88 :   0.1818 0.0909 0.4545  plane waves:     203
 k-point  89 :   0.2727 0.0909 0.4545  plane waves:     207
 k-point  90 :   0.3636 0.0909 0.4545  plane waves:     209
 k-point  91 :   0.4545 0.0909 0.4545  plane waves:     207
 k-point  92 :   0.1818 0.1818 0.4545  plane waves:     208
 k-point  93 :   0.2727 0.1818 0.4545  plane waves:     213
 k-point  94 :   0.3636 0.1818 0.4545  plane waves:     216
 k-point  95 :   0.2727 0.2727 0.4545  plane waves:     218
 k-point  96 :   0.3636 0.2727 0.4545  plane waves:     218

 maximum number of plane-waves:       218
 maximum index in each direction: 
   IXMAX=    3   IYMAX=    3   IZMAX=    5
   IXMIN=   -3   IYMIN=   -3   IZMIN=   -6


 total amount of memory used by VASP MPI-rank0    49468. kBytes
=======================================================================

   base      :      30000. kBytes
   nonl-proj :       3020. kBytes
   grid      :        812. kBytes
   one-center:         31. kBytes
   wavefun   :      15605. kBytes
 
     INWAV:  cpu time    0.0000: real time    0.0000
 Broyden mixing: mesh for mixing (old mesh)
   NGX =  7   NGY =  7   NGZ = 11
  (NGX  = 20   NGY  = 20   NGZ  = 36)
  gives a total of    539 points

 initial charge density was supplied:
 charge density of overlapping atoms calculated
 number of electron      16.0000000 magnetization 
 keeping initial charge density in first step


--------------------------------------------------------------------------------------------------------


 Maximum index for augmentation-charges         3192 (set IRDMAX)


--------------------------------------------------------------------------------------------------------


 First call to EWALD:  gamma=   0.657
 Maximum number of real-space cells 4x 4x 2
 Maximum number of reciprocal cells 2x 2x 4

    FEWALD:  cpu time    0.0008: real time    0.0008


--------------------------------------- Iteration      1(   1)  ---------------------------------------


    POTLOK:  cpu time    0.0036: real time    0.0036
    SETDIJ:  cpu time    0.0022: real time    0.0022
     EDDAV:  cpu time    0.7777: real time    0.7983
       DOS:  cpu time    0.0056: real time    0.0056
    --------------------------------------------
      LOOP:  cpu time    0.7890: real time    0.8096

 eigenvalue-minimisations  :  9216
 total energy-change (2. order) : 0.6018946E+02  (-0.2610702E+03)
 number of electron      16.0000000 magnetization 
 augmentation part       16.0000000 magnetization 

 Free energy of the ion-electron system (eV)
  ---------------------------------------------------
  alpha Z        PSCENC =       140.60414058
  Ewald energy   TEWEN  =     -1240.80790839
  -Hartree energ DENC   =      -202.65609426
  -exchange      EXHF   =         0.00000000
  -V(xc)+E(xc)   XCENC  =         8.72876124
  PAW double counting   =      1109.69170683    -1125.09647265
  entropy T*S    EENTRO =         0.00009365
  eigenvalues    EBANDS =       181.15032098
  atomic energy  EATOM  =      1188.57490811
  Solvation  Ediel_sol  =         0.00000000
  ---------------------------------------------------
  free energy    TOTEN  =        60.18945610 eV

  energy without entropy =       60.18936245  energy(sigma->0) =       60.18942488


--------------------------------------------------------------------------------------------------------




--------------------------------------- Iteration      1(   2)  ---------------------------------------


     EDDAV:  cpu time    0.6858: real time    0.6858
       DOS:  cpu time    0.0061: real time    0.0061
    --------------------------------------------
      LOOP:  cpu time    0.6919: real time    0.6919

 eigenvalue-minimisations  :  7888
 total energy-change (2. order) :-0.7478787E+02  (-0.6333700E+02)
 number of electron      16.0000000 magnetization 
 augmentation part       16.0000000 magnetization 

 Free energy of the ion-electron system (eV)
  ---------------------------------------------------
  alpha Z        PSCENC =       140.60414058
  Ewald energy   TEWEN  =     -1240.80790839
  -Hartree energ DENC   =      -202.65609426
  -exchange      EXHF   =         0.00000000
  -V(xc)+E(xc)   XCENC  =         8.72876124
  PAW double counting   =      1109.69170683    -1125.09647265
  entropy T*S    EENTRO =         0.00261498
  eigenvalues    EBANDS =       106.35992774
  atomic energy  EATOM  =      1188.57490811
  Solvation  Ediel_sol  =         0.00000000
  ---------------------------------------------------
  free energy    TOTEN  =       -14.59841581 eV

  energy without entropy =      -14.60103079  energy(sigma->0) =      -14.59928747


--------------------------------------------------------------------------------------------------------




--------------------------------------- Iteration      1(   3)  ---------------------------------------


     EDDAV:  cpu time    0.7867: real time    0.7868
       DOS:  cpu time    0.0065: real time    0.0065
    --------------------------------------------
      LOOP:  cpu time    0.7933: real time    0.7933

 eigenvalue-minimisations  :  9552
 total energy-change (2. order) :-0.4341912E+01  (-0.4130833E+01)
 number of electron      16.0000000 magnetization 
 augmentation part       16.0000000 magnetization 

 Free energy of the ion-electron system (eV)
  ---------------------------------------------------
  alpha Z        PSCENC =       140.60414058
  Ewald energy   TEWEN  =     -1240.80790839
  -Hartree energ DENC   =      -202.65609426
  -exchange      EXHF   =         0.00000000
  -V(xc)+E(xc)   XCENC  =         8.72876124
  PAW double counting   =      1109.69170683    -1125.09647265
  entropy T*S    EENTRO =         0.00047630
  eigenvalues    EBANDS =       102.02015460
  atomic energy  EATOM  =      1188.57490811
  Solvation  Ediel_sol  =         0.00000000
  ---------------------------------------------------
  free energy    TOTEN  =       -18.94032763 eV

  energy without entropy =      -18.94080393  energy(sigma->0) =      -18.94048640


--------------------------------------------------------------------------------------------------------




--------------------------------------- Iteration      1(   4)  ---------------------------------------


     EDDAV:  cpu time    0.7548: real time    0.7549
       DOS:  cpu time    0.0065: real time    0.0065
    --------------------------------------------
      LOOP:  cpu time    0.7614: real time    0.7614

 eigenvalue-minimisations  :  9136
 total energy-change (2. order) :-0.1843239E-01  (-0.1841978E-01)
 number of electron      16.0000000 magnetization 
 augmentation part       16.0000000 magnetization 

 Free energy of the ion-electron system (eV)
  ---------------------------------------------------
  alpha Z        PSCENC =       140.60414058
  Ewald energy   TEWEN  =     -1240.80790839
  -Hartree energ DENC   =      -202.65609426
  -exchange      EXHF   =         0.00000000
  -V(xc)+E(xc)   XCENC  =         8.72876124
  PAW double counting   =      1109.69170683    -1125.09647265
  entropy T*S    EENTRO =         0.00045165
  eigenvalues    EBANDS =       102.00174687
  atomic energy  EATOM  =      1188.57490811
  Solvation  Ediel_sol  =         0.00000000
  ---------------------------------------------------
  free energy    TOTEN  =       -18.95876002 eV

  energy without entropy =      -18.95921166  energy(sigma->0) =      -18.95891057


--------------------------------------------------------------------------------------------------------




--------------------------------------- Iteration      1(   5)  ---------------------------------------


     EDDAV:  cpu time    0.7617: real time    0.7618
       DOS:  cpu time    0.0065: real time    0.0065
    CHARGE:  cpu time    0.0218: real time    0.0218
    MIXING:  cpu time    0.0001: real time    0.0001
    --------------------------------------------
      LOOP:  cpu time    0.7902: real time    0.7903

 eigenvalue-minimisations  :  9264
 total energy-change (2. order) :-0.1831798E-04  (-0.1831702E-04)
 number of electron      15.9999934 magnetization 
 augmentation part        7.1139394 magnetization 

 Broyden mixing:
  rms(total) = 0.17606E+01    rms(broyden)= 0.17606E+01
  rms(prec ) = 0.28911E+01
  weight for this iteration     100.00

 Free energy of the ion-electron system (eV)
  ---------------------------------------------------
  alpha Z        PSCENC =       140.60414058
  Ewald energy   TEWEN  =     -1240.80790839
  -Hartree energ DENC   =      -202.65609426
  -exchange      EXHF   =         0.00000000
  -V(xc)+E(xc)   XCENC  =         8.72876124
  PAW double counting   =      1109.69170683    -1125.09647265
  entropy T*S    EENTRO =         0.00045160
  eigenvalues    EBANDS =       102.00172860
  atomic energy  EATOM  =      1188.57490811
  Solvation  Ediel_sol  =         0.00000000
  ---------------------------------------------------
  free energy    TOTEN  =       -18.95877834 eV

  energy without entropy =      -18.95922994  energy(sigma->0) =      -18.95892887


--------------------------------------------------------------------------------------------------------




--------------------------------------- Iteration      1(   6)  ---------------------------------------


    POTLOK:  cpu time    0.0034: real time    0.0034
    SETDIJ:  cpu time    0.0021: real time    0.0021
     EDDAV:  cpu time    0.9056: real time    0.9056
       DOS:  cpu time    0.0065: real time    0.0065
    CHARGE:  cpu time    0.0214: real time    0.0214
    MIXING:  cpu time    0.0002: real time    0.0002
    --------------------------------------------
      LOOP:  cpu time    0.9392: real time    0.9392

 eigenvalue-minimisations  : 11176
 total energy-change (2. order) : 0.2777868E+01  (-0.1698739E+00)
 number of electron      15.9999915 magnetization 
 augmentation part        8.4407465 magnetization 

 Broyden mixing:
  rms(total) = 0.20685E+00    rms(broyden)= 0.20674E+00
  rms(prec ) = 0.34326E+00
  weight for this iteration     100.00

 eigenvalues of (default mixing * dielectric matrix)
  average eigenvalue GAMMA=   0.9537
  0.9537

 Free energy of the ion-electron system (eV)
  ---------------------------------------------------
  alpha Z        PSCENC =       140.60414058
  Ewald energy   TEWEN  =     -1240.80790839
  -Hartree energ DENC   =      -169.41965108
  -exchange      EXHF   =         0.00000000
  -V(xc)+E(xc)   XCENC  =         7.10356914
  PAW double counting   =      1277.68643092    -1289.04361795
  entropy T*S    EENTRO =         0.00247321
  eigenvalues    EBANDS =        69.11874542
  atomic energy  EATOM  =      1188.57490811
  Solvation  Ediel_sol  =         0.00000000
  ---------------------------------------------------
  free energy    TOTEN  =       -16.18091003 eV

  energy without entropy =      -16.18338324  energy(sigma->0) =      -16.18173443


--------------------------------------------------------------------------------------------------------




--------------------------------------- Iteration      1(   7)  ---------------------------------------


    POTLOK:  cpu time    0.0034: real time    0.0034
    SETDIJ:  cpu time    0.0021: real time    0.0021
     EDDAV:  cpu time    0.8224: real time    0.8225
       DOS:  cpu time    0.0068: real time    0.0068
    CHARGE:  cpu time    0.0196: real time    0.0196
    MIXING:  cpu time    0.0002: real time    0.0002
    --------------------------------------------
      LOOP:  cpu time    0.8544: real time    0.8545

 eigenvalue-minimisations  : 10152
 total energy-change (2. order) : 0.1669617E+00  (-0.1021814E-01)
 number of electron      15.9999918 magnetization 
 augmentation part        8.1807381 magnetization 

 Broyden mixing:
  rms(total) = 0.11906E+00    rms(broyden)= 0.11906E+00
  rms(prec ) = 0.20501E+00
  weight for this iteration     100.00

 eigenvalues of (default mixing * dielectric matrix)
  average eigenvalue GAMMA=   1.0310
  1.2956  0.7665

 Free energy of the ion-electron system (eV)
  ---------------------------------------------------
  alpha Z        PSCENC =       140.60414058
  Ewald energy   TEWEN  =     -1240.80790839
  -Hartree energ DENC   =      -172.80434018
  -exchange      EXHF   =         0.00000000
  -V(xc)+E(xc)   XCENC  =         7.29877983
  PAW double counting   =      1363.75052268    -1378.59895762
  entropy T*S    EENTRO =         0.00236288
  eigenvalues    EBANDS =        75.96654377
  atomic energy  EATOM  =      1188.57490811
  Solvation  Ediel_sol  =         0.00000000
  ---------------------------------------------------
  free energy    TOTEN  =       -16.01394834 eV

  energy without entropy =      -16.01631121  energy(sigma->0) =      -16.01473596


--------------------------------------------------------------------------------------------------------




--------------------------------------- Iteration      1(   8)  ---------------------------------------


    POTLOK:  cpu time    0.0033: real time    0.0033
    SETDIJ:  cpu time    0.0021: real time    0.0021
     EDDAV:  cpu time    0.8199: real time    0.8199
       DOS:  cpu time    0.0066: real time    0.0066
    CHARGE:  cpu time    0.0192: real time    0.0192
    MIXING:  cpu time    0.0002: real time    0.0002
    --------------------------------------------
      LOOP:  cpu time    0.8513: real time    0.8514

 eigenvalue-minimisations  : 10104
 total energy-change (2. order) : 0.2918234E-01  (-0.3086373E-03)
 number of electron      15.9999918 magnetization 
 augmentation part        8.2091945 magnetization 

 Broyden mixing:
  rms(total) = 0.52213E-01    rms(broyden)= 0.52213E-01
  rms(prec ) = 0.87329E-01
  weight for this iteration     100.00

 eigenvalues of (default mixing * dielectric matrix)
  average eigenvalue GAMMA=   1.4738
  1.0448  0.8072  2.5695

 Free energy of the ion-electron system (eV)
  ---------------------------------------------------
  alpha Z        PSCENC =       140.60414058
  Ewald energy   TEWEN  =     -1240.80790839
  -Hartree energ DENC   =      -170.62697239
  -exchange      EXHF   =         0.00000000
  -V(xc)+E(xc)   XCENC  =         7.21213500
  PAW double counting   =      1437.34041509    -1453.67810599
  entropy T*S    EENTRO =         0.00242359
  eigenvalues    EBANDS =        75.39419839
  atomic energy  EATOM  =      1188.57490811
  Solvation  Ediel_sol  =         0.00000000
  ---------------------------------------------------
  free energy    TOTEN  =       -15.98476599 eV

  energy without entropy =      -15.98718958  energy(sigma->0) =      -15.98557386


--------------------------------------------------------------------------------------------------------




--------------------------------------- Iteration      1(   9)  ---------------------------------------


    POTLOK:  cpu time    0.0034: real time    0.0034
    SETDIJ:  cpu time    0.0021: real time    0.0021
     EDDAV:  cpu time    0.8885: real time    0.8886
       DOS:  cpu time    0.0062: real time    0.0062
    CHARGE:  cpu time    0.0194: real time    0.0194
    MIXING:  cpu time    0.0002: real time    0.0002
    --------------------------------------------
      LOOP:  cpu time    0.9199: real time    0.9199

 eigenvalue-minimisations  : 11008
 total energy-change (2. order) : 0.9613915E-02  (-0.8965401E-04)
 number of electron      15.9999918 magnetization 
 augmentation part        8.2223026 magnetization 

 Broyden mixing:
  rms(total) = 0.55282E-02    rms(broyden)= 0.55261E-02
  rms(prec ) = 0.61903E-02
  weight for this iteration     100.00

 eigenvalues of (default mixing * dielectric matrix)
  average eigenvalue GAMMA=   1.5321
  2.6221  0.8078  0.9918  1.7069

 Free energy of the ion-electron system (eV)
  ---------------------------------------------------
  alpha Z        PSCENC =       140.60414058
  Ewald energy   TEWEN  =     -1240.80790839
  -Hartree energ DENC   =      -168.74132745
  -exchange      EXHF   =         0.00000000
  -V(xc)+E(xc)   XCENC  =         7.14249262
  PAW double counting   =      1519.48735404    -1537.45557933
  entropy T*S    EENTRO =         0.00243199
  eigenvalues    EBANDS =        75.21833575
  atomic energy  EATOM  =      1188.57490811
  Solvation  Ediel_sol  =         0.00000000
  ---------------------------------------------------
  free energy    TOTEN  =       -15.97515208 eV

  energy without entropy =      -15.97758406  energy(sigma->0) =      -15.97596274


--------------------------------------------------------------------------------------------------------




--------------------------------------- Iteration      1(  10)  ---------------------------------------


    POTLOK:  cpu time    0.0034: real time    0.0034
    SETDIJ:  cpu time    0.0022: real time    0.0022
     EDDAV:  cpu time    0.7318: real time    0.7319
       DOS:  cpu time    0.0066: real time    0.0066
    CHARGE:  cpu time    0.0192: real time    0.0192
    MIXING:  cpu time    0.0003: real time    0.0003
    --------------------------------------------
      LOOP:  cpu time    0.7634: real time    0.7635

 eigenvalue-minimisations  :  8880
 total energy-change (2. order) :-0.3209291E-04  (-0.3129868E-05)
 number of electron      15.9999918 magnetization 
 augmentation part        8.2225792 magnetization 

 Broyden mixing:
  rms(total) = 0.25432E-02    rms(broyden)= 0.25413E-02
  rms(prec ) = 0.33790E-02
  weight for this iteration     100.00

 eigenvalues of (default mixing * dielectric matrix)
  average eigenvalue GAMMA=   1.6313
  2.5361  2.5361  0.8073  1.0060  1.2710

 Free energy of the ion-electron system (eV)
  ---------------------------------------------------
  alpha Z        PSCENC =       140.60414058
  Ewald energy   TEWEN  =     -1240.80790839
  -Hartree energ DENC   =      -168.75046279
  -exchange      EXHF   =         0.00000000
  -V(xc)+E(xc)   XCENC  =         7.14404447
  PAW double counting   =      1522.79781640    -1540.74648676
  entropy T*S    EENTRO =         0.00242964
  eigenvalues    EBANDS =        75.20633456
  atomic energy  EATOM  =      1188.57490811
  Solvation  Ediel_sol  =         0.00000000
  ---------------------------------------------------
  free energy    TOTEN  =       -15.97518417 eV

  energy without entropy =      -15.97761381  energy(sigma->0) =      -15.97599405


--------------------------------------------------------------------------------------------------------




--------------------------------------- Iteration      1(  11)  ---------------------------------------


    POTLOK:  cpu time    0.0034: real time    0.0034
    SETDIJ:  cpu time    0.0021: real time    0.0021
     EDDAV:  cpu time    0.7401: real time    0.7401
       DOS:  cpu time    0.0066: real time    0.0066
    CHARGE:  cpu time    0.0193: real time    0.0193
    MIXING:  cpu time    0.0002: real time    0.0002
    --------------------------------------------
      LOOP:  cpu time    0.7717: real time    0.7717

 eigenvalue-minimisations  :  8832
 total energy-change (2. order) : 0.1005916E-04  (-0.4356971E-07)
 number of electron      15.9999918 magnetization 
 augmentation part        8.2222884 magnetization 

 Broyden mixing:
  rms(total) = 0.21228E-03    rms(broyden)= 0.21210E-03
  rms(prec ) = 0.30574E-03
  weight for this iteration     100.00

 eigenvalues of (default mixing * dielectric matrix)
  average eigenvalue GAMMA=   1.5528
  2.5765  2.5765  0.8071  1.0027  1.0027  1.3515

 Free energy of the ion-electron system (eV)
  ---------------------------------------------------
  alpha Z        PSCENC =       140.60414058
  Ewald energy   TEWEN  =     -1240.80790839
  -Hartree energ DENC   =      -168.81112450
  -exchange      EXHF   =         0.00000000
  -V(xc)+E(xc)   XCENC  =         7.14694197
  PAW double counting   =      1522.37744757    -1540.26878103
  entropy T*S    EENTRO =         0.00242942
  eigenvalues    EBANDS =        75.20677216
  atomic energy  EATOM  =      1188.57490811
  Solvation  Ediel_sol  =         0.00000000
  ---------------------------------------------------
  free energy    TOTEN  =       -15.97517411 eV

  energy without entropy =      -15.97760353  energy(sigma->0) =      -15.97598392


--------------------------------------------------------------------------------------------------------




--------------------------------------- Iteration      1(  12)  ---------------------------------------


    POTLOK:  cpu time    0.0033: real time    0.0033
    SETDIJ:  cpu time    0.0021: real time    0.0021
     EDDAV:  cpu time    0.5845: real time    0.5845
       DOS:  cpu time    0.0067: real time    0.0067
    CHARGE:  cpu time    0.0193: real time    0.0193
    MIXING:  cpu time    0.0002: real time    0.0002
    --------------------------------------------
      LOOP:  cpu time    0.6161: real time    0.6162

 eigenvalue-minimisations  :  6240
 total energy-change (2. order) : 0.1205281E-05  (-0.6161116E-08)
 number of electron      15.9999918 magnetization 
 augmentation part        8.2222709 magnetization 

 Broyden mixing:
  rms(total) = 0.10683E-03    rms(broyden)= 0.10675E-03
  rms(prec ) = 0.11387E-03
  weight for this iteration     100.00

 eigenvalues of (default mixing * dielectric matrix)
  average eigenvalue GAMMA=   1.6225
  2.6189  2.3658  2.2369  0.8072  1.0028  1.0028  1.3233

 Free energy of the ion-electron system (eV)
  ---------------------------------------------------
  alpha Z        PSCENC =       140.60414058
  Ewald energy   TEWEN  =     -1240.80790839
  -Hartree energ DENC   =      -168.81904954
  -exchange      EXHF   =         0.00000000
  -V(xc)+E(xc)   XCENC  =         7.14730941
  PAW double counting   =      1522.35638662    -1540.23991281
  entropy T*S    EENTRO =         0.00242950
  eigenvalues    EBANDS =        75.20652360
  atomic energy  EATOM  =      1188.57490811
  Solvation  Ediel_sol  =         0.00000000
  ---------------------------------------------------
  free energy    TOTEN  =       -15.97517291 eV

  energy without entropy =      -15.97760241  energy(sigma->0) =      -15.97598274


--------------------------------------------------------------------------------------------------------




--------------------------------------- Iteration      1(  13)  ---------------------------------------


    POTLOK:  cpu time    0.0033: real time    0.0033
    SETDIJ:  cpu time    0.0021: real time    0.0021
     EDDAV:  cpu time    0.5402: real time    0.5402
       DOS:  cpu time    0.0065: real time    0.0065
    --------------------------------------------
      LOOP:  cpu time    0.5522: real time    0.5522

 eigenvalue-minimisations  :  5520
 total energy-change (2. order) :-0.3333071E-06  (-0.5945666E-09)
 number of electron      15.9999918 magnetization 
 augmentation part        8.2222709 magnetization 

 Free energy of the ion-electron system (eV)
  ---------------------------------------------------
  alpha Z        PSCENC =       140.60414058
  Ewald energy   TEWEN  =     -1240.80790839
  -Hartree energ DENC   =      -168.81769821
  -exchange      EXHF   =         0.00000000
  -V(xc)+E(xc)   XCENC  =         7.14724433
  PAW double counting   =      1522.42609102    -1540.31122540
  entropy T*S    EENTRO =         0.00242949
  eigenvalues    EBANDS =        75.20684523
  atomic energy  EATOM  =      1188.57490811
  Solvation  Ediel_sol  =         0.00000000
  ---------------------------------------------------
  free energy    TOTEN  =       -15.97517324 eV

  energy without entropy =      -15.97760272  energy(sigma->0) =      -15.97598307


--------------------------------------------------------------------------------------------------------




 average (electrostatic) potential at core
  the test charge radii are     1.0103
  (the norm of the test charge is              1.0000)
       1 -42.2480       2 -42.2480
 
 
 
 E-fermi :   7.3197     XC(G=0): -13.9973     alpha+bet :-15.7670

 Fermi energy:         7.3196532254

 k-point     1 :       0.0000    0.0000    0.0000
  band No.  band energies     occupation 
      1      -1.7889      2.00000
      2       2.0799      2.00000
      3       4.8779      2.00000
      4       5.6651      2.00000
      5       5.6652      2.00000
      6       5.9632      2.00000
      7       5.9633      2.00000
      8       6.3735      2.00000
      9       7.0721      2.07087
     10       7.0722      2.07087
     11       8.1102     -0.00000
     12       8.1102     -0.00000
     13      14.6701      0.00000
     14      30.5772      0.00000
     15      31.3242      0.00000
     16      34.2690      0.00000
     17      37.0623      0.00000
     18      37.0623      0.00000
     19      37.5535      0.00000
     20      37.8355      0.00000
     21      37.8357      0.00000
     22      40.3967      0.00000
     23      40.3967      0.00000
     24      41.3942      0.00000
     25      44.0687      0.00000
     26      44.0687      0.00000
     27      44.6496      0.00000
     28      48.1229      0.00000
     29      48.1233      0.00000
     30      50.0219      0.00000
     31      50.0220      0.00000
     32      52.2821      0.00000
     33      59.8428      0.00000
     34      62.3737      0.00000
     35      62.3746      0.00000
     36      62.5552      0.00000
     37      63.3969      0.00000
     38      64.7298      0.00000
     39      64.7308      0.00000
     40      65.7277      0.00000

 k-point     2 :       0.0909   -0.0000    0.0000
  band No.  band energies     occupation 
      1      -1.4445      2.00000
      2       2.3442      2.00000
      3       4.9255      2.00000
      4       5.5685      2.00000
      5       5.5778      2.00000
      6       5.8383      2.00000
      7       5.8695      2.00000
      8       6.1575      2.00000
      9       6.8962      2.01074
     10       6.9549      2.02708
     11       8.1370     -0.00000
     12       9.1797     -0.00000
     13      14.6930      0.00000
     14      30.1132      0.00000
     15      30.9775      0.00000
     16      32.7374      0.00000
     17      34.1828      0.00000
     18      36.1965      0.00000
     19      36.3603      0.00000
     20      37.4456      0.00000
     21      39.7497      0.00000
     22      40.5001      0.00000
     23      40.8399      0.00000
     24      41.4937      0.00000
     25      45.3055      0.00000
     26      45.4566      0.00000
     27      45.6975      0.00000
     28      45.7982      0.00000
     29      49.2252      0.00000
     30      51.3212      0.00000
     31      52.4473      0.00000
     32      54.2778      0.00000
     33      59.0104      0.00000
     34      61.0461      0.00000
     35      61.1926      0.00000
     36      61.9482      0.00000
     37      62.0589      0.00000
     38      65.5854      0.00000
     39      65.6709      0.00000
     40      65.9516      0.00000

 k-point     3 :       0.1818   -0.0000    0.0000
  band No.  band energies     occupation 
      1      -0.4727      2.00000
      2       2.9652      2.00000
      3       4.5195      2.00000
      4       4.8122      2.00000
      5       5.3419      2.00000
      6       5.9293      2.00000
      7       6.4443      2.00000
      8       6.4837      2.00000
      9       6.6799      2.00006
     10       6.6909      2.00008
     11       8.1826     -0.00000
     12      11.0151     -0.00000
     13      14.7986      0.00000
     14      26.3506      0.00000
     15      31.2726      0.00000
     16      31.4386      0.00000
     17      31.5194      0.00000
     18      32.2622      0.00000
     19      36.5775      0.00000
     20      37.4539      0.00000
     21      37.9259      0.00000
     22      38.8054      0.00000
     23      41.7376      0.00000
     24      42.4723      0.00000
     25      45.5870      0.00000
     26      46.6410      0.00000
     27      48.0495      0.00000
     28      50.2693      0.00000
     29      52.0890      0.00000
     30      54.5496      0.00000
     31      55.2438      0.00000
     32      57.5440      0.00000
     33      57.8061      0.00000
     34      58.2176      0.00000
     35      59.4615      0.00000
     36      60.8361      0.00000
     37      62.8113      0.00000
     38      65.5617      0.00000
     39      66.3346      0.00000
     40      66.7434      0.00000

 k-point     4 :       0.2727    0.0000    0.0000
  band No.  band energies     occupation 
      1       0.8947      2.00000
      2       3.2471      2.00000
      3       3.6930      2.00000
      4       4.8065      2.00000
      5       5.1517      2.00000
      6       5.9720      2.00000
      7       6.3674      2.00000
      8       6.7218      2.00020
      9       7.2596      1.48395
     10       7.4400      0.15824
     11       8.2019     -0.00000
     12      13.1096      0.00000
     13      15.0433      0.00000
     14      22.2685      0.00000
     15      27.9093      0.00000
     16      28.7869      0.00000
     17      29.7257      0.00000
     18      32.4032      0.00000
     19      34.8733      0.00000
     20      37.4138      0.00000
     21      38.1089      0.00000
     22      38.3187      0.00000
     23      39.2322      0.00000
     24      42.6206      0.00000
     25      49.2550      0.00000
     26      50.5330      0.00000
     27      51.6436      0.00000
     28      52.5811      0.00000
     29      53.1509      0.00000
     30      55.0507      0.00000
     31      56.2879      0.00000
     32      57.9412      0.00000
     33      59.1851      0.00000
     34      59.4049      0.00000
     35      60.6640      0.00000
     36      62.7688      0.00000
     37      63.8532      0.00000
     38      65.4744      0.00000
     39      66.8413      0.00000
     40      67.2617      0.00000

 k-point     5 :       0.3636   -0.0000    0.0000
  band No.  band energies     occupation 
      1       2.0824      2.00000
      2       2.9563      2.00000
      3       3.1468      2.00000
      4       4.9563      2.00000
      5       5.5162      2.00000
      6       5.6443      2.00000
      7       6.1074      2.00000
      8       8.0387     -0.00000
      9       8.0829     -0.00000
     10       8.1930     -0.00000
     11       8.1961     -0.00000
     12      15.0528      0.00000
     13      15.3605      0.00000
     14      19.2238      0.00000
     15      24.5319      0.00000
     16      26.7808      0.00000
     17      26.8842      0.00000
     18      31.6716      0.00000
     19      33.8912      0.00000
     20      37.1208      0.00000
     21      37.6675      0.00000
     22      39.1240      0.00000
     23      39.3407      0.00000
     24      42.6852      0.00000
     25      49.7372      0.00000
     26      51.4834      0.00000
     27      52.6030      0.00000
     28      55.7749      0.00000
     29      55.8306      0.00000
     30      56.1391      0.00000
     31      57.9045      0.00000
     32      59.6041      0.00000
     33      59.9757      0.00000
     34      60.8417      0.00000
     35      62.7854      0.00000
     36      64.2640      0.00000
     37      65.2586      0.00000
     38      66.2175      0.00000
     39      67.0475      0.00000
     40      67.8802      0.00000

 k-point     6 :       0.4545   -0.0000    0.0000
  band No.  band energies     occupation 
      1       2.5011      2.00000
      2       2.7192      2.00000
      3       2.8788      2.00000
      4       5.2499      2.00000
      5       5.5538      2.00000
      6       5.8964      2.00000
      7       5.9610      2.00000
      8       8.1863     -0.00000
      9       8.5942     -0.00000
     10       8.6989     -0.00000
     11       9.8073     -0.00000
     12      13.3326      0.00000
     13      17.4984      0.00000
     14      19.0627      0.00000
     15      21.8424      0.00000
     16      23.9917      0.00000
     17      25.8213      0.00000
     18      31.0646      0.00000
     19      33.5794      0.00000
     20      35.9467      0.00000
     21      37.4359      0.00000
     22      40.1186      0.00000
     23      41.7813      0.00000
     24      42.1508      0.00000
     25      46.3342      0.00000
     26      51.8965      0.00000
     27      53.4446      0.00000
     28      57.2028      0.00000
     29      58.2047      0.00000
     30      59.0027      0.00000
     31      59.9295      0.00000
     32      61.1414      0.00000
     33      61.2824      0.00000
     34      62.6906      0.00000
     35      63.7186      0.00000
     36      64.7866      0.00000
     37      66.3019      0.00000
     38      66.4273      0.00000
     39      67.9201      0.00000
     40      68.5496      0.00000

 k-point     7 :       0.0909    0.0909    0.0000
  band No.  band energies     occupation 
      1      -0.7833      2.00000
      2       2.8083      2.00000
      3       4.7978      2.00000
      4       4.8355      2.00000
      5       5.5822      2.00000
      6       5.5993      2.00000
      7       6.2912      2.00000
      8       6.4838      2.00000
      9       6.5700      2.00000
     10       6.9007      2.01163
     11       8.1388     -0.00000
     12      10.5024     -0.00000
     13      14.7625      0.00000
     14      28.0963      0.00000
     15      29.4658      0.00000
     16      31.6152      0.00000
     17      33.3438      0.00000
     18      35.1033      0.00000
     19      35.2604      0.00000
     20      36.4522      0.00000
     21      37.1976      0.00000
     22      42.4195      0.00000
     23      42.5053      0.00000
     24      43.3271      0.00000
     25      44.1972      0.00000
     26      44.6054      0.00000
     27      44.8954      0.00000
     28      50.8837      0.00000
     29      52.8616      0.00000
     30      53.1111      0.00000
     31      53.3309      0.00000
     32      57.0811      0.00000
     33      58.0551      0.00000
     34      58.8376      0.00000
     35      59.9283      0.00000
     36      60.8914      0.00000
     37      62.2230      0.00000
     38      65.6948      0.00000
     39      66.5176      0.00000
     40      66.8405      0.00000

 k-point     8 :       0.1818    0.0909    0.0000
  band No.  band energies     occupation 
      1       0.4149      2.00000
      2       3.3962      2.00000
      3       3.9925      2.00000
      4       4.5532      2.00000
      5       5.2580      2.00000
      6       6.0037      2.00000
      7       6.0410      2.00000
      8       6.6269      2.00001
      9       7.0421      2.06441
     10       7.3416      0.81522
     11       8.1220     -0.00000
     12      12.3764     -0.00000
     13      14.9827      0.00000
     14      24.3620      0.00000
     15      27.0453      0.00000
     16      29.7760      0.00000
     17      31.8584      0.00000
     18      32.5967      0.00000
     19      35.3426      0.00000
     20      35.6737      0.00000
     21      36.8610      0.00000
     22      41.2930      0.00000
     23      41.7513      0.00000
     24      43.1291      0.00000
     25      46.1752      0.00000
     26      47.0422      0.00000
     27      49.1955      0.00000
     28      52.9268      0.00000
     29      54.8287      0.00000
     30      55.3997      0.00000
     31      55.9502      0.00000
     32      57.9099      0.00000
     33      58.6681      0.00000
     34      58.9709      0.00000
     35      60.0613      0.00000
     36      60.5369      0.00000
     37      63.0895      0.00000
     38      65.8899      0.00000
     39      67.1317      0.00000
     40      67.3732      0.00000

 k-point     9 :       0.2727    0.0909    0.0000
  band No.  band energies     occupation 
      1       1.7929      2.00000
      2       3.3123      2.00000
      3       3.3928      2.00000
      4       4.6530      2.00000
      5       5.3435      2.00000
      6       5.5898      2.00000
      7       6.2437      2.00000
      8       6.8773      2.00761
      9       7.8610     -0.00087
     10       8.0967     -0.00000
     11       8.3429     -0.00000
     12      14.5250      0.00000
     13      15.3739      0.00000
     14      20.5689      0.00000
     15      25.3010      0.00000
     16      26.3020      0.00000
     17      29.1628      0.00000
     18      30.8051      0.00000
     19      34.9003      0.00000
     20      36.2207      0.00000
     21      36.8500      0.00000
     22      40.5961      0.00000
     23      41.0986      0.00000
     24      44.1186      0.00000
     25      48.1404      0.00000
     26      50.7306      0.00000
     27      51.8828      0.00000
     28      51.9970      0.00000
     29      54.3726      0.00000
     30      56.4148      0.00000
     31      57.2185      0.00000
     32      59.4866      0.00000
     33      60.4672      0.00000
     34      60.6536      0.00000
     35      61.9972      0.00000
     36      63.7727      0.00000
     37      65.6241      0.00000
     38      66.2138      0.00000
     39      66.4378      0.00000
     40      67.4655      0.00000

 k-point    10 :       0.3636    0.0909    0.0000
  band No.  band energies     occupation 
      1       2.6100      2.00000
      2       2.9857      2.00000
      3       3.0387      2.00000
      4       5.0911      2.00000
      5       5.3152      2.00000
      6       5.7651      2.00000
[...]
     18      27.6246      0.00000
     19      33.0824      0.00000
     20      33.9301      0.00000
     21      37.3170      0.00000
     22      37.7512      0.00000
     23      42.8897      0.00000
     24      43.9802      0.00000
     25      49.6854      0.00000
     26      51.4486      0.00000
     27      53.7638      0.00000
     28      54.8449      0.00000
     29      56.5711      0.00000
     30      58.2023      0.00000
     31      60.5626      0.00000
     32      60.6066      0.00000
     33      62.2331      0.00000
     34      62.7238      0.00000
     35      63.9877      0.00000
     36      64.4305      0.00000
     37      65.1952      0.00000
     38      65.4940      0.00000
     39      68.1962      0.00000
     40      68.6813      0.00000

 k-point    91 :       0.4545    0.0909    0.4545
  band No.  band energies     occupation 
      1       2.4011      2.00000
      2       2.5404      2.00000
      3       3.7706      2.00000
      4       3.8432      2.00000
      5       6.2560      2.00000
      6       6.6567      2.00003
      7       7.3361      0.86155
      8       7.6571     -0.03822
      9       8.2657     -0.00000
     10       8.3141     -0.00000
     11      10.7558     -0.00000
     12      11.2496     -0.00000
     13      17.3253      0.00000
     14      17.3736      0.00000
     15      25.7464      0.00000
     16      26.3520      0.00000
     17      27.1380      0.00000
     18      27.5156      0.00000
     19      32.6567      0.00000
     20      32.9924      0.00000
     21      36.7327      0.00000
     22      36.7403      0.00000
     23      42.9703      0.00000
     24      44.0705      0.00000
     25      49.8279      0.00000
     26      51.5644      0.00000
     27      55.9199      0.00000
     28      57.5493      0.00000
     29      58.5712      0.00000
     30      58.8376      0.00000
     31      59.1729      0.00000
     32      59.2747      0.00000
     33      62.5551      0.00000
     34      62.8726      0.00000
     35      64.9954      0.00000
     36      65.2642      0.00000
     37      66.0607      0.00000
     38      66.1841      0.00000
     39      69.1326      0.00000
     40      69.5725      0.00000

 k-point    92 :       0.1818    0.1818    0.4545
  band No.  band energies     occupation 
      1       2.4680      2.00000
      2       2.7254      2.00000
      3       4.3986      2.00000
      4       4.4451      2.00000
      5       4.9063      2.00000
      6       4.9447      2.00000
      7       6.6303      2.00001
      8       6.8670      2.00624
      9       8.0297     -0.00001
     10       8.2057     -0.00000
     11       8.7132     -0.00000
     12       9.2176     -0.00000
     13      23.2918      0.00000
     14      23.7449      0.00000
     15      24.3178      0.00000
     16      25.0679      0.00000
     17      25.6484      0.00000
     18      26.5534      0.00000
     19      37.1705      0.00000
     20      38.3020      0.00000
     21      39.0921      0.00000
     22      40.2692      0.00000
     23      41.8351      0.00000
     24      42.0175      0.00000
     25      48.2038      0.00000
     26      48.6270      0.00000
     27      51.8633      0.00000
     28      53.2678      0.00000
     29      55.0585      0.00000
     30      55.6391      0.00000
     31      57.7117      0.00000
     32      58.2446      0.00000
     33      60.1161      0.00000
     34      60.2369      0.00000
     35      62.0867      0.00000
     36      62.1783      0.00000
     37      64.7672      0.00000
     38      66.1835      0.00000
     39      67.3280      0.00000
     40      67.7220      0.00000

 k-point    93 :       0.2727    0.1818    0.4545
  band No.  band energies     occupation 
      1       2.8495      2.00000
      2       2.9514      2.00000
      3       4.1710      2.00000
      4       4.3579      2.00000
      5       5.2772      2.00000
      6       5.4210      2.00000
      7       6.5043      2.00000
      8       6.7388      2.00032
      9       8.1357     -0.00000
     10       8.4174     -0.00000
     11      10.2944     -0.00000
     12      10.7986     -0.00000
     13      20.4660      0.00000
     14      21.0161      0.00000
     15      23.2511      0.00000
     16      23.9773      0.00000
     17      25.7120      0.00000
     18      27.3732      0.00000
     19      34.8256      0.00000
     20      36.4250      0.00000
     21      37.5477      0.00000
     22      39.1004      0.00000
     23      42.7825      0.00000
     24      43.2655      0.00000
     25      49.7864      0.00000
     26      50.3042      0.00000
     27      53.0711      0.00000
     28      54.9990      0.00000
     29      56.7525      0.00000
     30      58.2862      0.00000
     31      59.5959      0.00000
     32      60.2461      0.00000
     33      61.5127      0.00000
     34      61.6040      0.00000
     35      62.7291      0.00000
     36      63.2214      0.00000
     37      64.5463      0.00000
     38      65.5753      0.00000
     39      67.9920      0.00000
     40      68.2441      0.00000

 k-point    94 :       0.3636    0.1818    0.4545
  band No.  band energies     occupation 
      1       2.8846      2.00000
      2       3.0336      2.00000
      3       4.0621      2.00000
      4       4.2354      2.00000
      5       5.4162      2.00000
      6       5.7356      2.00000
      7       6.8328      2.00309
      8       6.9445      2.02338
      9       8.1148     -0.00000
     10       8.2952     -0.00000
     11      12.0679     -0.00000
     12      12.5000     -0.00000
     13      17.7948      0.00000
     14      18.1619      0.00000
     15      22.6409      0.00000
     16      23.3679      0.00000
     17      27.3068      0.00000
     18      28.4000      0.00000
     19      33.1006      0.00000
     20      34.1615      0.00000
     21      36.6233      0.00000
     22      38.1713      0.00000
     23      43.4055      0.00000
     24      43.8005      0.00000
     25      53.0643      0.00000
     26      53.7643      0.00000
     27      53.9785      0.00000
     28      55.3262      0.00000
     29      57.4225      0.00000
     30      58.2689      0.00000
     31      58.6190      0.00000
     32      59.3517      0.00000
     33      61.4883      0.00000
     34      62.0389      0.00000
     35      63.9553      0.00000
     36      64.4700      0.00000
     37      66.2510      0.00000
     38      66.3241      0.00000
     39      67.2260      0.00000
     40      67.7655      0.00000

 k-point    95 :       0.2727    0.2727    0.4545
  band No.  band energies     occupation 
      1       3.3004      2.00000
      2       3.3631      2.00000
      3       4.2995      2.00000
      4       4.5172      2.00000
      5       4.9458      2.00000
      6       5.1528      2.00000
      7       6.3654      2.00000
      8       6.5665      2.00000
      9       8.1284     -0.00000
     10       8.3260     -0.00000
     11      12.5130     -0.00000
     12      13.0265      0.00000
     13      18.9036      0.00000
     14      19.3287      0.00000
     15      20.7407      0.00000
     16      21.1398      0.00000
     17      27.4882      0.00000
     18      29.0638      0.00000
     19      33.1881      0.00000
     20      34.5485      0.00000
     21      36.2966      0.00000
     22      37.3972      0.00000
     23      45.8686      0.00000
     24      46.2931      0.00000
     25      50.1385      0.00000
     26      50.2252      0.00000
     27      55.6705      0.00000
     28      57.2348      0.00000
     29      57.7437      0.00000
     30      58.0406      0.00000
     31      59.8857      0.00000
     32      59.9100      0.00000
     33      60.4504      0.00000
     34      60.5574      0.00000
     35      62.6466      0.00000
     36      63.3190      0.00000
     37      66.0108      0.00000
     38      66.1584      0.00000
     39      67.0938      0.00000
     40      67.1766      0.00000

 k-point    96 :       0.3636    0.2727    0.4545
  band No.  band energies     occupation 
      1       3.5187      2.00000
      2       3.6505      2.00000
      3       4.2431      2.00000
      4       4.3407      2.00000
      5       4.9328      2.00000
      6       5.0710      2.00000
      7       6.4106      2.00000
      8       6.5619      2.00000
      9       8.1110     -0.00000
     10       8.1816     -0.00000
     11      14.3914      0.00000
     12      14.5351      0.00000
     13      17.1715      0.00000
     14      17.5017      0.00000
     15      20.0846      0.00000
     16      20.5244      0.00000
     17      29.2191      0.00000
     18      29.9585      0.00000
     19      32.2161      0.00000
     20      32.5072      0.00000
     21      36.0058      0.00000
     22      36.8219      0.00000
     23      47.0603      0.00000
     24      47.6945      0.00000
     25      51.8544      0.00000
     26      52.2778      0.00000
     27      54.4936      0.00000
     28      54.8886      0.00000
     29      57.3532      0.00000
     30      57.9985      0.00000
     31      59.7536      0.00000
     32      60.4042      0.00000
     33      60.4682      0.00000
     34      61.1624      0.00000
     35      62.3121      0.00000
     36      63.4659      0.00000
     37      64.9931      0.00000
     38      65.3608      0.00000
     39      68.5915      0.00000
     40      68.7604      0.00000


--------------------------------------------------------------------------------------------------------


 soft charge-density along one line, spin component           1
         0         1         2         3         4         5         6         7         8         9
x     7.7777    0.0000    0.0846   -0.1465   -0.0552   -0.0955    0.0201   -0.0000    0.0014   -0.0024
x     0.0000    0.0000
y     7.7777    0.0000    0.0846    0.1465   -0.0552    0.0955    0.0201    0.0000    0.0014    0.0024
y     0.0000    0.0000
z     7.7777    0.0000    0.0000    0.0000    0.5320    0.0000    0.0000    0.0000   -0.1647   -0.0000
z     0.0000    0.0000    0.0172   -0.0000    0.0000   -0.0000    0.0077   -0.0000    0.0000    0.0000
 total charge-density along one line
x    16.0000    0.0000    1.4532   -2.5170    0.2872    0.4974    0.0209    0.0000    0.0015   -0.0025
x    -0.0000   -0.0001    0.0001   -0.0000   -0.0000    0.0000    0.0000    0.0000   -0.0000   -0.0000
x    -0.0000    0.0000
y    16.0000    0.0000    1.4532    2.5170    0.2872   -0.4974    0.0209   -0.0000    0.0015    0.0025
y    -0.0000    0.0001    0.0001    0.0000   -0.0000   -0.0000    0.0000   -0.0000   -0.0000    0.0000
y    -0.0000   -0.0000
z    16.0000    0.0000    0.0000    0.0000    6.1657   -0.0000   -0.0000    0.0000    1.4067   -0.0000
z     0.0000   -0.0000    0.0556    0.0000    0.0000   -0.0000    0.0023   -0.0000    0.0000   -0.0000
z     0.0025   -0.0000    0.0000    0.0000   -0.0012   -0.0000    0.0000   -0.0000    0.0006    0.0000
z    -0.0000    0.0000   -0.0004    0.0000   -0.0000    0.0000    0.0004   -0.0000
 
 pseudopotential strength for first ion, spin component:           1
 -4.196  -0.000  -0.000  -0.000  -0.000  -4.767  -0.000  -0.000
 -0.000  -4.182   0.000  -0.000  -0.000  -0.000  -4.753   0.000
 -0.000   0.000  -4.191  -0.000  -0.000  -0.000   0.000  -4.761
 -0.000  -0.000  -0.000  -4.182  -0.000  -0.000  -0.000  -0.000
 -0.000  -0.000  -0.000  -0.000  -4.196  -0.000  -0.000  -0.000
 -4.767  -0.000  -0.000  -0.000  -0.000  -5.295  -0.000  -0.000
 -0.000  -4.753   0.000  -0.000  -0.000  -0.000  -5.281   0.000
 -0.000   0.000  -4.761  -0.000  -0.000  -0.000   0.000  -5.289
 -0.000  -0.000  -0.000  -4.753  -0.000  -0.000  -0.000  -0.000
 -0.000  -0.000  -0.000  -0.000  -4.767  -0.000  -0.000  -0.000
  0.000  -0.000   0.000   0.000  -0.000   0.000  -0.000   0.000
  0.000  -0.000   0.001   0.000  -0.000   0.000  -0.000   0.001
 -0.000   0.000   0.000  -0.000  -0.001  -0.000   0.000   0.000
 -0.000  -0.000   0.000   0.000  -0.000  -0.000  -0.000   0.000
 -0.001  -0.000   0.000   0.000  -0.000  -0.001  -0.000   0.000
 -0.000   0.000   0.000  -0.000  -0.001  -0.000   0.000   0.000
 -0.000  -0.000   0.000   0.000  -0.000  -0.000  -0.000   0.000
 -0.001  -0.000   0.000   0.000  -0.000  -0.001  -0.000   0.000
 total augmentation occupancy for first ion, spin component:           1
  1.649  -0.000   0.000   0.000  -0.000  -1.084   0.000  -0.000   0.000   0.000  -0.000  -0.000   0.000   0.000   0.035  -0.000
  0.000   2.197   0.000  -0.000   0.000   0.000  -1.349   0.000   0.000   0.000  -0.000  -0.000   0.000   0.000   0.000   0.000
  0.000  -0.000   1.324  -0.000  -0.000  -0.000  -0.000  -0.786   0.000   0.000   0.065  -0.015   0.000   0.000   0.000   0.000
  0.000  -0.000  -0.000   2.197   0.000   0.000   0.000   0.000  -1.349   0.000   0.000   0.000  -0.000   0.000   0.000   0.000
  0.000   0.000  -0.000  -0.000   1.649  -0.000   0.000   0.000   0.000  -1.084  -0.000   0.000   0.035  -0.000  -0.000  -0.002
 -1.084   0.000  -0.000   0.000  -0.000   1.894   0.000   0.000   0.000  -0.000  -0.000   0.000  -0.000   0.000  -0.048   0.000
  0.000  -1.349  -0.000   0.000   0.000   0.000   1.842   0.000  -0.000   0.000   0.000  -0.000   0.000   0.000   0.000   0.000
 -0.000   0.000  -0.786   0.000   0.000   0.000   0.000   1.603   0.000  -0.000  -0.156   0.012   0.000   0.000  -0.000  -0.000
  0.000   0.000   0.000  -1.349  -0.000   0.000  -0.000  -0.000   1.842  -0.000   0.000   0.000   0.000   0.000   0.000   0.000
 -0.000   0.000   0.000  -0.000  -1.084  -0.000   0.000  -0.000   0.000   1.894   0.000  -0.000  -0.048  -0.000   0.000   0.003
 -0.000  -0.000   0.065   0.000  -0.000  -0.000  -0.000  -0.156  -0.000   0.000   2.777  -0.322   0.000   0.000   0.000  -0.000
 -0.000   0.000  -0.015   0.000   0.000   0.000   0.000   0.012   0.000   0.000  -0.322   0.042   0.000   0.000  -0.000   0.000
  0.000  -0.000  -0.000  -0.000   0.035  -0.000   0.000   0.000   0.000  -0.048   0.000   0.000   0.373  -0.000  -0.000  -0.029
  0.000  -0.000   0.000   0.000   0.000   0.000   0.000   0.000  -0.000   0.000   0.000   0.000  -0.000   0.343  -0.000   0.000
  0.035   0.000   0.000  -0.000  -0.000  -0.048   0.000  -0.000   0.000   0.000  -0.000  -0.000  -0.000  -0.000   0.373   0.000
 -0.000   0.000   0.000   0.000  -0.002   0.000   0.000  -0.000   0.000   0.003  -0.000   0.000  -0.029   0.000   0.000   0.003
  0.000   0.000   0.000   0.000   0.000   0.000   0.000   0.000  -0.000  -0.000   0.000   0.000   0.000  -0.031   0.000  -0.000
 -0.002   0.000  -0.000   0.000   0.000   0.003   0.000   0.000   0.000  -0.000  -0.000   0.000   0.000   0.000  -0.029  -0.000


------------------------ aborting loop because EDIFF is reached ----------------------------------------


    CHARGE:  cpu time    0.0193: real time    0.0193
    FORLOC:  cpu time    0.0002: real time    0.0002
    FORNL :  cpu time    0.0938: real time    0.0938
    STRESS:  cpu time    0.1423: real time    0.1423
    FORCOR:  cpu time    0.0034: real time    0.0034
    FORHAR:  cpu time    0.0007: real time    0.0007
    MIXING:  cpu time    0.0002: real time    0.0002

  FORCE on cell =-STRESS in cart. coord.  units (eV):
  Direction    XX          YY          ZZ          XY          YZ          ZX
  --------------------------------------------------------------------------------------
  Alpha Z   140.60414   140.60414   140.60414
  Ewald    -394.55404  -394.55404  -451.70064     0.00000     0.00000    -0.00000
  Hartree    63.37804    63.37804    42.06140    -0.00000    -0.00000    -0.00000
  E(xc)     -79.02796   -79.02798   -78.70964     0.00018     0.00000    -0.00000
  Local      98.30832    98.30851   173.38812    -0.00081     0.00000    -0.00000
  n-local   -51.78815   -51.02802   -54.09107    -4.39342     1.37073     0.89630
  augment    75.45645    75.45604    75.96201     0.00099    -0.00000     0.00000
  Kinetic   154.64976   148.14862   149.04063     1.69882    -0.85961     0.25764
  Fock        0.00000     0.00000     0.00000     0.00000     0.00000     0.00000
  -------------------------------------------------------------------------------------
  Total       4.15594     4.15594    -3.44505    -0.00000     0.00000     0.00000
  in kB     338.65179   338.65179  -280.72404    -0.00000     0.00000     0.00000
  external pressure =      132.19 kB  Pullay stress =        0.00 kB


 VOLUME and BASIS-vectors are now :
 -----------------------------------------------------------------------------
  energy-cutoff  :      280.00
  volume of cell :       19.66
      direct lattice vectors                 reciprocal lattice vectors
     2.330000000  0.000000000  0.000000000     0.429184549  0.247789815  0.000000000
    -1.165000000  2.017839191  0.000000000     0.000000000  0.495579630  0.000000000
     0.000000000  0.000000000  4.182000000     0.000000000  0.000000000  0.239120038

  length of vectors
     2.330000000  2.330000000  4.182000000     0.495579630  0.495579630  0.239120038


 FORCES acting on ions
    electron-ion (+dipol)            ewald-force                    non-local-force                 convergence-correction
 -----------------------------------------------------------------------------------------------
   0.307E-06 -.435E-06 0.372E-14   0.508E-12 -.295E-12 -.246E-13   0.136E-16 -.105E-16 0.539E-19   -.622E-09 0.362E-09 -.273E-13
   -.823E-05 0.601E-05 0.287E-12   -.500E-12 0.292E-12 0.246E-13   -.178E-16 0.925E-17 0.345E-19   0.626E-09 -.363E-09 0.541E-13
 -----------------------------------------------------------------------------------------------
   -.793E-05 0.558E-05 0.290E-12   0.724E-14 -.315E-14 0.445E-17   -.422E-17 -.123E-17 0.884E-19   0.396E-11 -.161E-11 0.267E-13
 
 
 POSITION                                       TOTAL-FORCE (eV/Angst)
 -----------------------------------------------------------------------------------
      0.00000      0.00000      0.00000         0.000000     -0.000000     -0.000000
      0.00000      1.34523      2.09100        -0.000000      0.000000      0.000000
 -----------------------------------------------------------------------------------
    total drift:                               -0.000008      0.000006      0.000000


--------------------------------------------------------------------------------------------------------



  FREE ENERGIE OF THE ION-ELECTRON SYSTEM (eV)
  ---------------------------------------------------
  free  energy   TOTEN  =       -15.97517324 eV

  energy  without entropy=      -15.97760272  energy(sigma->0) =      -15.97598307
 


--------------------------------------------------------------------------------------------------------


    POTLOK:  cpu time    0.0056: real time    0.0056


--------------------------------------------------------------------------------------------------------


 writing wavefunctions
     LOOP+:  cpu time   10.4000: real time   10.4211
    4ORBIT:  cpu time    0.0000: real time    0.0000

 total amount of memory used by VASP MPI-rank0    49468. kBytes
=======================================================================

   base      :      30000. kBytes
   nonl-proj :       3020. kBytes
   grid      :        812. kBytes
   one-center:         31. kBytes
   wavefun   :      15605. kBytes
 
  
  
 General timing and accounting informations for this job:
 ========================================================
  
                  Total CPU time used (sec):       10.573
                            User time (sec):       10.529
                          System time (sec):        0.044
                         Elapsed time (sec):       10.583
  
                   Maximum memory used (kb):       55476.
                   Average memory used (kb):          N/A
  
                          Minor page faults:         7407
                          Major page faults:            0
                 Voluntary context switches:           26
