unknown system                          
   1.00000000000000     
     3.635000    0.000000    0.000000
     0.000000    3.635000    0.000000
     0.000000    0.000000    3.635000
   Cu
     4
Direct
  0.000000  0.000000  0.000000
  0.500000  0.500000  0.000000
  0.500000  0.000000  0.500000
  0.000000  0.500000  0.500000
 
   24   24   24
  781.74      704.42      512.68      297.22      137.24      57.639      31.347      17.140      8.3573      6.5952    
  6.6206      5.0661      3.8792      5.0661      6.6206      6.5952      8.3573      17.140      31.347      57.639    
  137.24      297.22      512.68      704.42      704.42      634.35      460.82      266.53      123.37      53.145    
  29.856      16.220      8.2089      6.9046      7.2462      6.0607      5.0661      6.0607      7.2462      6.9046    
  8.2089      16.220      29.856      53.145      123.37      266.53      460.82      634.35      512.68      460.82    
  333.03      191.75      90.312      42.736      25.903      13.951      7.7858      7.1949      7.8412      7.2462    
  6.6206      7.2462      7.8412      7.1949      7.7858      13.951      25.903      42.736      90.312      191.75    
  333.03      460.82      297.22      266.53      191.75      111.26      56.455      32.247      20.405      11.346    
  7.2612      6.8489      7.1949      6.9046      6.5952      6.9046      7.1949      6.8489      7.2612      11.346    
  20.405      32.247      56.455      111.26      191.75      266.53      137.24      123.37      90.312      56.455    
  34.921      23.649      14.755      9.2970      7.2988      7.2612      7.7858      8.2089      8.3573      8.2089    
  7.7858      7.2612      7.2988      9.2970      14.755      23.649      34.921      56.455      90.312      123.37    
  57.639      53.145      42.736      32.247      23.649      15.762      10.523      8.6470      9.2970      11.346    
  13.951      16.220      17.140      16.220      13.951      11.346      9.2970      8.6470      10.523      15.762    
  23.649      32.247      42.736      53.145      31.347      29.856      25.903      20.405      14.755      10.523    
  8.9538      10.523      14.755      20.405      25.903      29.856      31.347      29.856      25.903      20.405    
  14.755      10.523      8.9538      10.523      14.755      20.405      25.903      29.856      17.140      16.220    
  13.951      11.346      9.2970      8.6470      10.523      15.762      23.649      32.247      42.736      53.145    
  57.639      53.145      42.736      32.247      23.649      15.762      10.523      8.6470      9.2970      11.346    
  13.951      16.220      8.3573      8.2089      7.7858      7.2612      7.2988      9.2970      14.755      23.649    
  34.921      56.455      90.312      123.37      137.24      123.37      90.312      56.455      34.921      23.649    
  14.755      9.2970      7.2988      7.2612      7.7858      8.2089      6.5952      6.9046      7.1949      6.8489    
  7.2612      11.346      20.405      32.247      56.455      111.26      191.75      266.53      297.22      266.53    
  191.75      111.26      56.455      32.247      20.405      11.346      7.2612      6.8489      7.1949      6.9046    
  6.6206      7.2462      7.8412      7.1949      7.7858      13.951      25.903      42.736      90.312      191.75    
  333.03      460.82      512.68      460.82      333.03      191.75      90.312      42.736      25.903      13.951    
  7.7858      7.1949      7.8412      7.2462      5.0661      6.0607      7.2462      6.9046      8.2089      16.220    
  29.856      53.145      123.37      266.53      460.82      634.35      704.42      634.35      460.82      266.53    
  123.37      53.145      29.856      16.220      8.2089      6.9046      7.2462      6.0607      3.8792      5.0661    
  6.6206      6.5952      8.3573      17.140      31.347      57.639      137.24      297.22      512.68      704.42    
  781.74      704.42      512.68      297.22      137.24      57.639      31.347      17.140      8.3573      6.5952    
  6.6206      5.0661      5.0661      6.0607      7.2462      6.9046      8.2089      16.220      29.856      53.145    
  123.37      266.53      460.82      634.35      704.42      634.35      460.82      266.53      123.37      53.145    
  29.856      16.220      8.2089      6.9046      7.2462      6.0607      6.6206      7.2462      7.8412      7.1949    
  7.7858      13.951      25.903      42.736      90.312      191.75      333.03      460.82      512.68      460.82    
  333.03      191.75      90.312      42.736      25.903      13.951      7.7858      7.1949      7.8412      7.2462    
  6.5952      6.9046      7.1949      6.8489      7.2612      11.346      20.405      32.247      56.455      111.26    
  191.75      266.53      297.22      266.53      191.75      111.26      56.455      32.247      20.405      11.346    
  7.2612      6.8489      7.1949      6.9046      8.3573      8.2089      7.7858      7.2612      7.2988      9.2970    
  14.755      23.649      34.921      56.455      90.312      123.37      137.24      123.37      90.312      56.455    
  34.921      23.649      14.755      9.2970      7.2988      7.2612      7.7858      8.2089      17.140      16.220    
  13.951      11.346      9.2970      8.6470      10.523      15.762      23.649      32.247      42.736      53.145    
  57.639      53.145      42.736      32.247      23.649      15.762      10.523      8.6470      9.2970      11.346    
  13.951      16.220      31.347      29.856      25.903      20.405      14.755      10.523      8.9538      10.523    
  14.755      20.405      25.903      29.856      31.347      29.856      25.903      20.405      14.755      10.523    
  8.9538      10.523      14.755      20.405      25.903      29.856      57.639      53.145      42.736      32.247    
  23.649      15.762      10.523      8.6470      9.2970      11.346      13.951      16.220      17.140      16.220    
  13.951      11.346      9.2970      8.6470      10.523      15.762      23.649      32.247      42.736      53.145    
  137.24      123.37      90.312      56.455      34.921      23.649      14.755      9.2970      7.2988      7.2612    
  7.7858      8.2089      8.3573      8.2089      7.7858      7.2612      7.2988      9.2970      14.755      23.649    
  34.921      56.455      90.312      123.37      297.22      266.53      191.75      111.26      56.455      32.247    
  20.405      11.346      7.2612      6.8489      7.1949      6.9046      6.5952      6.9046      7.1949      6.8489    
  7.2612      11.346      20.405      32.247      56.455      111.26      191.75      266.53      512.68      460.82    
  333.03      191.75      90.312      42.736      25.903      13.951      7.7858      7.1949      7.8412      7.2462    
  6.6206      7.2462      7.8412      7.1949      7.7858      13.951      25.903      42.736      90.312      191.75    
  333.03      460.82      704.42      634.35      460.82      266.53      123.37      53.145      29.856      16.220    
  8.2089      6.9046      7.2462      6.0607      5.0661      6.0607      7.2462      6.9046      8.2089      16.220    
  29.856      53.145      123.37      266.53      460.82      634.35      704.42      634.35      460.82      266.53    
  123.37      53.145      29.856      16.220      8.2089      6.9046      7.2462      6.0607      5.0661      6.0607    
  7.2462      6.9046      8.2089      16.220      29.856      53.145      123.37      266.53      460.82      634.35    
  634.35      570.90      414.01      239.03      111.11      49.236      28.443      15.337      8.0411      7.1387    
  7.7479      6.8846      6.0607      6.8846      7.7479      7.1387      8.0411      15.337      28.443      49.236    
  111.11      239.03      414.01      570.90      460.82      414.01      298.87      172.15      81.973      40.183    
  24.631      13.188      7.5960      7.2904      8.1146      7.7479      7.2462      7.7479      8.1146      7.2904    
  7.5960      13.188      24.631      40.183      81.973      172.15      298.87      414.01      266.53      239.03    
  172.15      100.59      52.333      30.932      19.406      10.792      7.0880      6.8418      7.2904      7.1387    
  6.9046      7.1387      7.2904      6.8418      7.0880      10.792      19.406      30.932      52.333      100.59    
  172.15      239.03      123.37      111.11      81.973      52.333      33.471      22.792      14.157      8.9866    
  7.1247      7.0880      7.5960      8.0411      8.2089      8.0411      7.5960      7.0880      7.1247      8.9866    
  14.157      22.792      33.471      52.333      81.973      111.11      53.145      49.236      40.183      30.932    
  22.792      15.251      10.298      8.4874      8.9866      10.792      13.188      15.337      16.220      15.337    
  13.188      10.792      8.9866      8.4874      10.298      15.251      22.792      30.932      40.183      49.236    
  29.856      28.443      24.631      19.406      14.157      10.298      8.8830      10.298      14.157      19.406    
  24.631      28.443      29.856      28.443      24.631      19.406      14.157      10.298      8.8830      10.298    
  14.157      19.406      24.631      28.443      16.220      15.337      13.188      10.792      8.9866      8.4874    
  10.298      15.251      22.792      30.932      40.183      49.236      53.145      49.236      40.183      30.932    
  22.792      15.251      10.298      8.4874      8.9866      10.792      13.188      15.337      8.2089      8.0411    
  7.5960      7.0880      7.1247      8.9866      14.157      22.792      33.471      52.333      81.973      111.11    
  123.37      111.11      81.973      52.333      33.471      22.792      14.157      8.9866      7.1247      7.0880    
  7.5960      8.0411      6.9046      7.1387      7.2904      6.8418      7.0880      10.792      19.406      30.932    
  52.333      100.59      172.15      239.03      266.53      239.03      172.15      100.59      52.333      30.932    
  19.406      10.792      7.0880      6.8418      7.2904      7.1387      7.2462      7.7479      8.1146      7.2904    
  7.5960      13.188      24.631      40.183      81.973      172.15      298.87      414.01      460.82      414.01    
  298.87      172.15      81.973      40.183      24.631      13.188      7.5960      7.2904      8.1146      7.7479    
  6.0607      6.8846      7.7479      7.1387      8.0411      15.337      28.443      49.236      111.11      239.03    
  414.01      570.90      634.35      570.90      414.01      239.03      111.11      49.236      28.443      15.337    
  8.0411      7.1387      7.7479      6.8846      5.0661      6.0607      7.2462      6.9046      8.2089      16.220    
  29.856      53.145      123.37      266.53      460.82      634.35      704.42      634.35      460.82      266.53    
  123.37      53.145      29.856      16.220      8.2089      6.9046      7.2462      6.0607      6.0607      6.8846    
  7.7479      7.1387      8.0411      15.337      28.443      49.236      111.11      239.03      414.01      570.90    
  634.35      570.90      414.01      239.03      111.11      49.236      28.443      15.337      8.0411      7.1387    
  7.7479      6.8846      7.2462      7.7479      8.1146      7.2904      7.5960      13.188      24.631      40.183    
  81.973      172.15      298.87      414.01      460.82      414.01      298.87      172.15      81.973      40.183    
  24.631      13.188      7.5960      7.2904      8.1146      7.7479      6.9046      7.1387      7.2904      6.8418    
  7.0880      10.792      19.406      30.932      52.333      100.59      172.15      239.03      266.53      239.03    
  172.15      100.59      52.333      30.932      19.406      10.792      7.0880      6.8418      7.2904      7.1387    
  8.2089      8.0411      7.5960      7.0880      7.1247      8.9866      14.157      22.792      33.471      52.333    
  81.973      111.11      123.37      111.11      81.973      52.333      33.471      22.792      14.157      8.9866    
  7.1247      7.0880      7.5960      8.0411      16.220      15.337      13.188      10.792      8.9866      8.4874    
  10.298      15.251      22.792      30.932      40.183      49.236      53.145      49.236      40.183      30.932    
  22.792      15.251      10.298      8.4874      8.9866      10.792      13.188      15.337      29.856      28.443    
  24.631      19.406      14.157      10.298      8.8830      10.298      14.157      19.406      24.631      28.443    
  29.856      28.443      24.631      19.406      14.157      10.298      8.8830      10.298      14.157      19.406    
  24.631      28.443      53.145      49.236      40.183      30.932      22.792      15.251      10.298      8.4874    
  8.9866      10.792      13.188      15.337      16.220      15.337      13.188      10.792      8.9866      8.4874    
  10.298      15.251      22.792      30.932      40.183      49.236      123.37      111.11      81.973      52.333    
  33.471      22.792      14.157      8.9866      7.1247      7.0880      7.5960      8.0411      8.2089      8.0411    
  7.5960      7.0880      7.1247      8.9866      14.157      22.792      33.471      52.333      81.973      111.11    
  266.53      239.03      172.15      100.59      52.333      30.932      19.406      10.792      7.0880      6.8418    
  7.2904      7.1387      6.9046      7.1387      7.2904      6.8418      7.0880      10.792      19.406      30.932    
  52.333      100.59      172.15      239.03      460.82      414.01      298.87      172.15      81.973      40.183    
  24.631      13.188      7.5960      7.2904      8.1146      7.7479      7.2462      7.7479      8.1146      7.2904    
  7.5960      13.188      24.631      40.183      81.973      172.15      298.87      414.01      634.35      570.90    
  414.01      239.03      111.11      49.236      28.443      15.337      8.0411      7.1387      7.7479      6.8846    
  6.0607      6.8846      7.7479      7.1387      8.0411      15.337      28.443      49.236      111.11      239.03    
  414.01      570.90      512.68      460.82      333.03      191.75      90.312      42.736      25.903      13.951    
  7.7858      7.1949      7.8412      7.2462      6.6206      7.2462      7.8412      7.1949      7.7858      13.951    
  25.903      42.736      90.312      191.75      333.03      460.82      460.82      414.01      298.87      172.15    
  81.973      40.183      24.631      13.188      7.5960      7.2904      8.1146      7.7479      7.2462      7.7479    
  8.1146      7.2904      7.5960      13.188      24.631      40.183      81.973      172.15      298.87      414.01    
  333.03      298.87      215.40      124.91      62.372      34.195      21.240      11.397      7.1618      7.2412    
  8.1522      8.1146      7.8412      8.1146      8.1522      7.2412      7.1618      11.397      21.240      34.195    
  62.372      124.91      215.40      298.87      191.75      172.15      124.91      75.307      42.747      27.482    
  16.806      9.5513      6.7668      6.7458      7.2412      7.2904      7.1949      7.2904      7.2412      6.7458    
  6.7668      9.5513      16.806      27.482      42.747      75.307      124.91      172.15      90.312      81.973    
  62.372      42.747      29.807      20.275      12.601      8.3208      6.8397      6.7668      7.1618      7.5960    
  7.7858      7.5960      7.1618      6.7668      6.8397      8.3208      12.601      20.275      29.807      42.747    
  62.372      81.973      42.736      40.183      34.195      27.482      20.275      13.777      9.6679      8.1210    
  8.3208      9.5513      11.397      13.188      13.951      13.188      11.397      9.5513      8.3208      8.1210    
  9.6679      13.777      20.275      27.482      34.195      40.183      25.903      24.631      21.240      16.806    
  12.601      9.6679      8.6250      9.6679      12.601      16.806      21.240      24.631      25.903      24.631    
  21.240      16.806      12.601      9.6679      8.6250      9.6679      12.601      16.806      21.240      24.631    
  13.951      13.188      11.397      9.5513      8.3208      8.1210      9.6679      13.777      20.275      27.482    
  34.195      40.183      42.736      40.183      34.195      27.482      20.275      13.777      9.6679      8.1210    
  8.3208      9.5513      11.397      13.188      7.7858      7.5960      7.1618      6.7668      6.8397      8.3208    
  12.601      20.275      29.807      42.747      62.372      81.973      90.312      81.973      62.372      42.747    
  29.807      20.275      12.601      8.3208      6.8397      6.7668      7.1618      7.5960      7.1949      7.2904    
  7.2412      6.7458      6.7668      9.5513      16.806      27.482      42.747      75.307      124.91      172.15    
  191.75      172.15      124.91      75.307      42.747      27.482      16.806      9.5513      6.7668      6.7458    
  7.2412      7.2904      7.8412      8.1146      8.1522      7.2412      7.1618      11.397      21.240      34.195    
  62.372      124.91      215.40      298.87      333.03      298.87      215.40      124.91      62.372      34.195    
  21.240      11.397      7.1618      7.2412      8.1522      8.1146      7.2462      7.7479      8.1146      7.2904    
  7.5960      13.188      24.631      40.183      81.973      172.15      298.87      414.01      460.82      414.01    
  298.87      172.15      81.973      40.183      24.631      13.188      7.5960      7.2904      8.1146      7.7479    
  6.6206      7.2462      7.8412      7.1949      7.7858      13.951      25.903      42.736      90.312      191.75    
  333.03      460.82      512.68      460.82      333.03      191.75      90.312      42.736      25.903      13.951    
  7.7858      7.1949      7.8412      7.2462      7.2462      7.7479      8.1146      7.2904      7.5960      13.188    
  24.631      40.183      81.973      172.15      298.87      414.01      460.82      414.01      298.87      172.15    
  81.973      40.183      24.631      13.188      7.5960      7.2904      8.1146      7.7479      7.8412      8.1146    
  8.1522      7.2412      7.1618      11.397      21.240      34.195      62.372      124.91      215.40      298.87    
  333.03      298.87      215.40      124.91      62.372      34.195      21.240      11.397      7.1618      7.2412    
  8.1522      8.1146      7.1949      7.2904      7.2412      6.7458      6.7668      9.5513      16.806      27.482    
  42.747      75.307      124.91      172.15      191.75      172.15      124.91      75.307      42.747      27.482    
  16.806      9.5513      6.7668      6.7458      7.2412      7.2904      7.7858      7.5960      7.1618      6.7668    
  6.8397      8.3208      12.601      20.275      29.807      42.747      62.372      81.973      90.312      81.973    
  62.372      42.747      29.807      20.275      12.601      8.3208      6.8397      6.7668      7.1618      7.5960    
  13.951      13.188      11.397      9.5513      8.3208      8.1210      9.6679      13.777      20.275      27.482    
  34.195      40.183      42.736      40.183      34.195      27.482      20.275      13.777      9.6679      8.1210    
  8.3208      9.5513      11.397      13.188      25.903      24.631      21.240      16.806      12.601      9.6679    
  8.6250      9.6679      12.601      16.806      21.240      24.631      25.903      24.631      21.240      16.806    
  12.601      9.6679      8.6250      9.6679      12.601      16.806      21.240      24.631      42.736      40.183    
  34.195      27.482      20.275      13.777      9.6679      8.1210      8.3208      9.5513      11.397      13.188    
  13.951      13.188      11.397      9.5513      8.3208      8.1210      9.6679      13.777      20.275      27.482    
  34.195      40.183      90.312      81.973      62.372      42.747      29.807      20.275      12.601      8.3208    
  6.8397      6.7668      7.1618      7.5960      7.7858      7.5960      7.1618      6.7668      6.8397      8.3208    
  12.601      20.275      29.807      42.747      62.372      81.973      191.75      172.15      124.91      75.307    
  42.747      27.482      16.806      9.5513      6.7668      6.7458      7.2412      7.2904      7.1949      7.2904    
  7.2412      6.7458      6.7668      9.5513      16.806      27.482      42.747      75.307      124.91      172.15    
  333.03      298.87      215.40      124.91      62.372      34.195      21.240      11.397      7.1618      7.2412    
  8.1522      8.1146      7.8412      8.1146      8.1522      7.2412      7.1618      11.397      21.240      34.195    
  62.372      124.91      215.40      298.87      460.82      414.01      298.87      172.15      81.973      40.183    
  24.631      13.188      7.5960      7.2904      8.1146      7.7479      7.2462      7.7479      8.1146      7.2904    
  7.5960      13.188      24.631      40.183      81.973      172.15      298.87      414.01      297.22      266.53    
  191.75      111.26      56.455      32.247      20.405      11.346      7.2612      6.8489      7.1949      6.9046    
  6.5952      6.9046      7.1949      6.8489      7.2612      11.346      20.405      32.247      56.455      111.26    
  191.75      266.53      266.53      239.03      172.15      100.59      52.333      30.932      19.406      10.792    
  7.0880      6.8418      7.2904      7.1387      6.9046      7.1387      7.2904      6.8418      7.0880      10.792    
  19.406      30.932      52.333      100.59      172.15      239.03      191.75      172.15      124.91      75.307    
  42.747      27.482      16.806      9.5513      6.7668      6.7458      7.2412      7.2904      7.1949      7.2904    
  7.2412      6.7458      6.7668      9.5513      16.806      27.482      42.747      75.307      124.91      172.15    
  111.26      100.59      75.307      49.628      32.963      22.358      13.559      8.4027      6.6099      6.5124    
  6.7458      6.8418      6.8489      6.8418      6.7458      6.5124      6.6099      8.4027      13.559      22.358    
  32.963      49.628      75.307      100.59      56.455      52.333      42.747      32.963      24.609      16.502    
  10.664      7.7601      6.7885      6.6099      6.7668      7.0880      7.2612      7.0880      6.7668      6.6099    
  6.7885      7.7601      10.664      16.502      24.609      32.963      42.747      52.333      32.247      30.932    
  27.482      22.358      16.502      11.623      8.7670      7.7361      7.7601      8.4027      9.5513      10.792    
  11.346      10.792      9.5513      8.4027      7.7601      7.7361      8.7670      11.623      16.502      22.358    
  27.482      30.932      20.405      19.406      16.806      13.559      10.664      8.7670      8.1199      8.7670    
  10.664      13.559      16.806      19.406      20.405      19.406      16.806      13.559      10.664      8.7670    
  8.1199      8.7670      10.664      13.559      16.806      19.406      11.346      10.792      9.5513      8.4027    
  7.7601      7.7361      8.7670      11.623      16.502      22.358      27.482      30.932      32.247      30.932    
  27.482      22.358      16.502      11.623      8.7670      7.7361      7.7601      8.4027      9.5513      10.792    
  7.2612      7.0880      6.7668      6.6099      6.7885      7.7601      10.664      16.502      24.609      32.963    
  42.747      52.333      56.455      52.333      42.747      32.963      24.609      16.502      10.664      7.7601    
  6.7885      6.6099      6.7668      7.0880      6.8489      6.8418      6.7458      6.5124      6.6099      8.4027    
  13.559      22.358      32.963      49.628      75.307      100.59      111.26      100.59      75.307      49.628    
  32.963      22.358      13.559      8.4027      6.6099      6.5124      6.7458      6.8418      7.1949      7.2904    
  7.2412      6.7458      6.7668      9.5513      16.806      27.482      42.747      75.307      124.91      172.15    
  191.75      172.15      124.91      75.307      42.747      27.482      16.806      9.5513      6.7668      6.7458    
  7.2412      7.2904      6.9046      7.1387      7.2904      6.8418      7.0880      10.792      19.406      30.932    
  52.333      100.59      172.15      239.03      266.53      239.03      172.15      100.59      52.333      30.932    
  19.406      10.792      7.0880      6.8418      7.2904      7.1387      6.5952      6.9046      7.1949      6.8489    
  7.2612      11.346      20.405      32.247      56.455      111.26      191.75      266.53      297.22      266.53    
  191.75      111.26      56.455      32.247      20.405      11.346      7.2612      6.8489      7.1949      6.9046    
  6.9046      7.1387      7.2904      6.8418      7.0880      10.792      19.406      30.932      52.333      100.59    
  172.15      239.03      266.53      239.03      172.15      100.59      52.333      30.932      19.406      10.792    
  7.0880      6.8418      7.2904      7.1387      7.1949      7.2904      7.2412      6.7458      6.7668      9.5513    
  16.806      27.482      42.747      75.307      124.91      172.15      191.75      172.15      124.91      75.307    
  42.747      27.482      16.806      9.5513      6.7668      6.7458      7.2412      7.2904      6.8489      6.8418    
  6.7458      6.5124      6.6099      8.4027      13.559      22.358      32.963      49.628      75.307      100.59    
  111.26      100.59      75.307      49.628      32.963      22.358      13.559      8.4027      6.6099      6.5124    
  6.7458      6.8418      7.2612      7.0880      6.7668      6.6099      6.7885      7.7601      10.664      16.502    
  24.609      32.963      42.747      52.333      56.455      52.333      42.747      32.963      24.609      16.502    
  10.664      7.7601      6.7885      6.6099      6.7668      7.0880      11.346      10.792      9.5513      8.4027    
  7.7601      7.7361      8.7670      11.623      16.502      22.358      27.482      30.932      32.247      30.932    
  27.482      22.358      16.502      11.623      8.7670      7.7361      7.7601      8.4027      9.5513      10.792    
  20.405      19.406      16.806      13.559      10.664      8.7670      8.1199      8.7670      10.664      13.559    
  16.806      19.406      20.405      19.406      16.806      13.559      10.664      8.7670      8.1199      8.7670    
  10.664      13.559      16.806      19.406      32.247      30.932      27.482      22.358      16.502      11.623    
  8.7670      7.7361      7.7601      8.4027      9.5513      10.792      11.346      10.792      9.5513      8.4027    
  7.7601      7.7361      8.7670      11.623      16.502      22.358      27.482      30.932      56.455      52.333    
  42.747      32.963      24.609      16.502      10.664      7.7601      6.7885      6.6099      6.7668      7.0880    
  7.2612      7.0880      6.7668      6.6099      6.7885      7.7601      10.664      16.502      24.609      32.963    
  42.747      52.333      111.26      100.59      75.307      49.628      32.963      22.358      13.559      8.4027    
  6.6099      6.5124      6.7458      6.8418      6.8489      6.8418      6.7458      6.5124      6.6099      8.4027    
  13.559      22.358      32.963      49.628      75.307      100.59      191.75      172.15      124.91      75.307    
  42.747      27.482      16.806      9.5513      6.7668      6.7458      7.2412      7.2904      7.1949      7.2904    
  7.2412      6.7458      6.7668      9.5513      16.806      27.482      42.747      75.307      124.91      172.15    
  266.53      239.03      172.15      100.59      52.333      30.932      19.406      10.792      7.0880      6.8418    
  7.2904      7.1387      6.9046      7.1387      7.2904      6.8418      7.0880      10.792      19.406      30.932    
  52.333      100.59      172.15      239.03      137.24      123.37      90.312      56.455      34.921      23.649    
  14.755      9.2970      7.2988      7.2612      7.7858      8.2089      8.3573      8.2089      7.7858      7.2612    
  7.2988      9.2970      14.755      23.649      34.921      56.455      90.312      123.37      123.37      111.11    
  81.973      52.333      33.471      22.792      14.157      8.9866      7.1247      7.0880      7.5960      8.0411    
  8.2089      8.0411      7.5960      7.0880      7.1247      8.9866      14.157      22.792      33.471      52.333    
  81.973      111.11      90.312      81.973      62.372      42.747      29.807      20.275      12.601      8.3208    
  6.8397      6.7668      7.1618      7.5960      7.7858      7.5960      7.1618      6.7668      6.8397      8.3208    
  12.601      20.275      29.807      42.747      62.372      81.973      56.455      52.333      42.747      32.963    
  24.609      16.502      10.664      7.7601      6.7885      6.6099      6.7668      7.0880      7.2612      7.0880    
  6.7668      6.6099      6.7885      7.7601      10.664      16.502      24.609      32.963      42.747      52.333    
  34.921      33.471      29.807      24.609      18.191      12.479      8.9428      7.4647      6.9840      6.7885    
  6.8397      7.1247      7.2988      7.1247      6.8397      6.7885      6.9840      7.4647      8.9428      12.479    
  18.191      24.609      29.807      33.471      23.649      22.792      20.275      16.502      12.479      9.3993    
  7.8203      7.3928      7.4647      7.7601      8.3208      8.9866      9.2970      8.9866      8.3208      7.7601    
  7.4647      7.3928      7.8203      9.3993      12.479      16.502      20.275      22.792      14.755      14.157    