unknown system                          
   1.00000000000000     
     3.635000    0.000000    0.000000
     0.000000    3.635000    0.000000
     0.000000    0.000000    3.635000
   Cu
     4
Direct
  0.000000  0.000000  0.000000
  0.500000  0.500000  0.000000
  0.500000  0.000000  0.500000
  0.000000  0.500000  0.500000
 
   24   24   24
 0.78173514791E+03 0.70442444027E+03 0.51268004638E+03 0.29722321479E+03 0.13723904847E+03
 0.57639097145E+02 0.31346556728E+02 0.17139559060E+02 0.83572561327E+01 0.65951949055E+01
 0.66206009403E+01 0.50660953594E+01 0.38791631797E+01 0.50660953594E+01 0.66206009403E+01
 0.65951949055E+01 0.83572561327E+01 0.17139559060E+02 0.31346556728E+02 0.57639097145E+02
 0.13723904847E+03 0.29722321479E+03 0.51268004638E+03 0.70442444027E+03 0.70442444027E+03
 0.63435332825E+03 0.46081936331E+03 0.26653485982E+03 0.12337132992E+03 0.53145495342E+02
 0.29856493993E+02 0.16220157202E+02 0.82089319200E+01 0.69046438084E+01 0.72461906623E+01
 0.60606505214E+01 0.50660953594E+01 0.60606505214E+01 0.72461906623E+01 0.69046438084E+01
 0.82089319200E+01 0.16220157202E+02 0.29856493993E+02 0.53145495342E+02 0.12337132992E+03
 0.26653485982E+03 0.46081936331E+03 0.63435332825E+03 0.51268004638E+03 0.46081936331E+03
 0.33303177769E+03 0.19174673522E+03 0.90312022065E+02 0.42735729435E+02 0.25903275974E+02
 0.13950558839E+02 0.77857598010E+01 0.71948662478E+01 0.78412022067E+01 0.72461906623E+01
 0.66206009403E+01 0.72461906623E+01 0.78412022067E+01 0.71948662478E+01 0.77857598010E+01
 0.13950558839E+02 0.25903275974E+02 0.42735729435E+02 0.90312022065E+02 0.19174673522E+03
 0.33303177769E+03 0.46081936331E+03 0.29722321479E+03 0.26653485982E+03 0.19174673522E+03
 0.11125803564E+03 0.56454634434E+02 0.32247114690E+02 0.20405031328E+02 0.11345758870E+02
 0.72611727854E+01 0.68488597144E+01 0.71948662478E+01 0.69046438084E+01 0.65951949055E+01
 0.69046438084E+01 0.71948662478E+01 0.68488597144E+01 0.72611727854E+01 0.11345758870E+02
 0.20405031328E+02 0.32247114690E+02 0.56454634434E+02 0.11125803564E+03 0.19174673522E+03
 0.26653485982E+03 0.13723904847E+03 0.12337132992E+03 0.90312022065E+02 0.56454634434E+02
 0.34920875521E+02 0.23648930009E+02 0.14755218235E+02 0.92970066527E+01 0.72988006306E+01
 0.72611727854E+01 0.77857598010E+01 0.82089319200E+01 0.83572561327E+01 0.82089319200E+01
 0.77857598010E+01 0.72611727854E+01 0.72988006306E+01 0.92970066527E+01 0.14755218235E+02
 0.23648930009E+02 0.34920875521E+02 0.56454634434E+02 0.90312022065E+02 0.12337132992E+03
 0.57639097145E+02 0.53145495342E+02 0.42735729435E+02 0.32247114690E+02 0.23648930009E+02
 0.15761702074E+02 0.10523177453E+02 0.86469925392E+01 0.92970066527E+01 0.11345758870E+02
 0.13950558839E+02 0.16220157202E+02 0.17139559060E+02 0.16220157202E+02 0.13950558839E+02
 0.11345758870E+02 0.92970066527E+01 0.86469925392E+01 0.10523177453E+02 0.15761702074E+02
 0.23648930009E+02 0.32247114690E+02 0.42735729435E+02 0.53145495342E+02 0.31346556728E+02
 0.29856493993E+02 0.25903275974E+02 0.20405031328E+02 0.14755218235E+02 0.10523177453E+02
 0.89538366958E+01 0.10523177453E+02 0.14755218235E+02 0.20405031328E+02 0.25903275974E+02
 0.29856493993E+02 0.31346556728E+02 0.29856493993E+02 0.25903275974E+02 0.20405031328E+02
 0.14755218235E+02 0.10523177453E+02 0.89538366958E+01 0.10523177453E+02 0.14755218235E+02
 0.20405031328E+02 0.25903275974E+02 0.29856493993E+02 0.17139559060E+02 0.16220157202E+02
 0.13950558839E+02 0.11345758870E+02 0.92970066527E+01 0.86469925392E+01 0.10523177453E+02
 0.15761702074E+02 0.23648930009E+02 0.32247114690E+02 0.42735729435E+02 0.53145495342E+02
 0.57639097145E+02 0.53145495342E+02 0.42735729435E+02 0.32247114690E+02 0.23648930009E+02
 0.15761702074E+02 0.10523177453E+02 0.86469925392E+01 0.92970066527E+01 0.11345758870E+02
 0.13950558839E+02 0.16220157202E+02 0.83572561327E+01 0.82089319200E+01 0.77857598010E+01
 0.72611727854E+01 0.72988006306E+01 0.92970066527E+01 0.14755218235E+02 0.23648930009E+02
 0.34920875521E+02 0.56454634434E+02 0.90312022065E+02 0.12337132992E+03 0.13723904847E+03
 0.12337132992E+03 0.90312022065E+02 0.56454634434E+02 0.34920875521E+02 0.23648930009E+02
 0.14755218235E+02 0.92970066527E+01 0.72988006306E+01 0.72611727854E+01 0.77857598010E+01
 0.82089319200E+01 0.65951949055E+01 0.69046438084E+01 0.71948662478E+01 0.68488597144E+01
 0.72611727854E+01 0.11345758870E+02 0.20405031328E+02 0.32247114690E+02 0.56454634434E+02
 0.11125803564E+03 0.19174673522E+03 0.26653485982E+03 0.29722321479E+03 0.26653485982E+03
 0.19174673522E+03 0.11125803564E+03 0.56454634434E+02 0.32247114690E+02 0.20405031328E+02
 0.11345758870E+02 0.72611727854E+01 0.68488597144E+01 0.71948662478E+01 0.69046438084E+01
 0.66206009403E+01 0.72461906623E+01 0.78412022067E+01 0.71948662478E+01 0.77857598010E+01
 0.13950558839E+02 0.25903275974E+02 0.42735729435E+02 0.90312022065E+02 0.19174673522E+03
 0.33303177769E+03 0.46081936331E+03 0.51268004638E+03 0.46081936331E+03 0.33303177769E+03
 0.19174673522E+03 0.90312022065E+02 0.42735729435E+02 0.25903275974E+02 0.13950558839E+02
 0.77857598010E+01 0.71948662478E+01 0.78412022067E+01 0.72461906623E+01 0.50660953594E+01
 0.60606505214E+01 0.72461906623E+01 0.69046438084E+01 0.82089319200E+01 0.16220157202E+02
 0.29856493993E+02 0.53145495342E+02 0.12337132992E+03 0.26653485982E+03 0.46081936331E+03
 0.63435332825E+03 0.70442444027E+03 0.63435332825E+03 0.46081936331E+03 0.26653485982E+03
 0.12337132992E+03 0.53145495342E+02 0.29856493993E+02 0.16220157202E+02 0.82089319200E+01
 0.69046438084E+01 0.72461906623E+01 0.60606505214E+01 0.38791631797E+01 0.50660953594E+01
 0.66206009403E+01 0.65951949055E+01 0.83572561327E+01 0.17139559060E+02 0.31346556728E+02
 0.57639097145E+02 0.13723904847E+03 0.29722321479E+03 0.51268004638E+03 0.70442444027E+03
 0.78173514791E+03 0.70442444027E+03 0.51268004638E+03 0.29722321479E+03 0.13723904847E+03
 0.57639097145E+02 0.31346556728E+02 0.17139559060E+02 0.83572561327E+01 0.65951949055E+01
 0.66206009403E+01 0.50660953594E+01 0.50660953594E+01 0.60606505214E+01 0.72461906623E+01
 0.69046438084E+01 0.82089319200E+01 0.16220157202E+02 0.29856493993E+02 0.53145495342E+02
 0.12337132992E+03 0.26653485982E+03 0.46081936331E+03 0.63435332825E+03 0.70442444027E+03
 0.63435332825E+03 0.46081936331E+03 0.26653485982E+03 0.12337132992E+03 0.53145495342E+02
 0.29856493993E+02 0.16220157202E+02 0.82089319200E+01 0.69046438084E+01 0.72461906623E+01
 0.60606505214E+01 0.66206009403E+01 0.72461906623E+01 0.78412022067E+01 0.71948662478E+01
 0.77857598010E+01 0.13950558839E+02 0.25903275974E+02 0.42735729435E+02 0.90312022065E+02
 0.19174673522E+03 0.33303177769E+03 0.46081936331E+03 0.51268004638E+03 0.46081936331E+03
 0.33303177769E+03 0.19174673522E+03 0.90312022065E+02 0.42735729435E+02 0.25903275974E+02
 0.13950558839E+02 0.77857598010E+01 0.71948662478E+01 0.78412022067E+01 0.72461906623E+01
 0.65951949055E+01 0.69046438084E+01 0.71948662478E+01 0.68488597144E+01 0.72611727854E+01
 0.11345758870E+02 0.20405031328E+02 0.32247114690E+02 0.56454634434E+02 0.11125803564E+03
 0.19174673522E+03 0.26653485982E+03 0.29722321479E+03 0.26653485982E+03 0.19174673522E+03
 0.11125803564E+03 0.56454634434E+02 0.32247114690E+02 0.20405031328E+02 0.11345758870E+02
 0.72611727854E+01 0.68488597144E+01 0.71948662478E+01 0.69046438084E+01 0.83572561327E+01
 0.82089319200E+01 0.77857598010E+01 0.72611727854E+01 0.72988006306E+01 0.92970066527E+01
 0.14755218235E+02 0.23648930009E+02 0.34920875521E+02 0.56454634434E+02 0.90312022065E+02
 0.12337132992E+03 0.13723904847E+03 0.12337132992E+03 0.90312022065E+02 0.56454634434E+02
 0.34920875521E+02 0.23648930009E+02 0.14755218235E+02 0.92970066527E+01 0.72988006306E+01
 0.72611727854E+01 0.77857598010E+01 0.82089319200E+01 0.17139559060E+02 0.16220157202E+02
 0.13950558839E+02 0.11345758870E+02 0.92970066527E+01 0.86469925392E+01 0.10523177453E+02
 0.15761702074E+02 0.23648930009E+02 0.32247114690E+02 0.42735729435E+02 0.53145495342E+02
 0.57639097145E+02 0.53145495342E+02 0.42735729435E+02 0.32247114690E+02 0.23648930009E+02
 0.15761702074E+02 0.10523177453E+02 0.86469925392E+01 0.92970066527E+01 0.11345758870E+02
 0.13950558839E+02 0.16220157202E+02 0.31346556728E+02 0.29856493993E+02 0.25903275974E+02
 0.20405031328E+02 0.14755218235E+02 0.10523177453E+02 0.89538366958E+01 0.10523177453E+02
 0.14755218235E+02 0.20405031328E+02 0.25903275974E+02 0.29856493993E+02 0.31346556728E+02
 0.29856493993E+02 0.25903275974E+02 0.20405031328E+02 0.14755218235E+02 0.10523177453E+02
 0.89538366958E+01 0.10523177453E+02 0.14755218235E+02 0.20405031328E+02 0.25903275974E+02
 0.29856493993E+02 0.57639097145E+02 0.53145495342E+02 0.42735729435E+02 0.32247114690E+02
 0.23648930009E+02 0.15761702074E+02 0.10523177453E+02 0.86469925392E+01 0.92970066527E+01
 0.11345758870E+02 0.13950558839E+02 0.16220157202E+02 0.17139559060E+02 0.16220157202E+02
 0.13950558839E+02 0.11345758870E+02 0.92970066527E+01 0.86469925392E+01 0.10523177453E+02
 0.15761702074E+02 0.23648930009E+02 0.32247114690E+02 0.42735729435E+02 0.53145495342E+02
 0.13723904847E+03 0.12337132992E+03 0.90312022065E+02 0.56454634434E+02 0.34920875521E+02
 0.23648930009E+02 0.14755218235E+02 0.92970066527E+01 0.72988006306E+01 0.72611727854E+01
 0.77857598010E+01 0.82089319200E+01 0.83572561327E+01 0.82089319200E+01 0.77857598010E+01
 0.72611727854E+01 0.72988006306E+01 0.92970066527E+01 0.14755218235E+02 0.23648930009E+02
 0.34920875521E+02 0.56454634434E+02 0.90312022065E+02 0.12337132992E+03 0.29722321479E+03
 0.26653485982E+03 0.19174673522E+03 0.11125803564E+03 0.56454634434E+02 0.32247114690E+02
 0.20405031328E+02 0.11345758870E+02 0.72611727854E+01 0.68488597144E+01 0.71948662478E+01
 0.69046438084E+01 0.65951949055E+01 0.69046438084E+01 0.71948662478E+01 0.68488597144E+01
 0.72611727854E+01 0.11345758870E+02 0.20405031328E+02 0.32247114690E+02 0.56454634434E+02
 0.11125803564E+03 0.19174673522E+03 0.26653485982E+03 0.51268004638E+03 0.46081936331E+03
 0.33303177769E+03 0.19174673522E+03 0.90312022065E+02 0.42735729435E+02 0.25903275974E+02
 0.13950558839E+02 0.77857598010E+01 0.71948662478E+01 0.78412022067E+01 0.72461906623E+01
 0.66206009403E+01 0.72461906623E+01 0.78412022067E+01 0.71948662478E+01 0.77857598010E+01
 0.13950558839E+02 0.25903275974E+02 0.42735729435E+02 0.90312022065E+02 0.19174673522E+03
 0.33303177769E+03 0.46081936331E+03 0.70442444027E+03 0.63435332825E+03 0.46081936331E+03
 0.26653485982E+03 0.12337132992E+03 0.53145495342E+02 0.29856493993E+02 0.16220157202E+02
 0.82089319200E+01 0.69046438084E+01 0.72461906623E+01 0.60606505214E+01 0.50660953594E+01
 0.60606505214E+01 0.72461906623E+01 0.69046438084E+01 0.82089319200E+01 0.16220157202E+02
 0.29856493993E+02 0.53145495342E+02 0.12337132992E+03 0.26653485982E+03 0.46081936331E+03
 0.63435332825E+03 0.70442444027E+03 0.63435332825E+03 0.46081936331E+03 0.26653485982E+03
 0.12337132992E+03 0.53145495342E+02 0.29856493993E+02 0.16220157202E+02 0.82089319200E+01
 0.69046438084E+01 0.72461906623E+01 0.60606505214E+01 0.50660953594E+01 0.60606505214E+01
 0.72461906623E+01 0.69046438084E+01 0.82089319200E+01 0.16220157202E+02 0.29856493993E+02
 0.53145495342E+02 0.12337132992E+03 0.26653485982E+03 0.46081936331E+03 0.63435332825E+03
 0.63435332825E+03 0.57090253808E+03 0.41400775072E+03 0.23902518253E+03 0.11110714519E+03
 0.49236150247E+02 0.28442934905E+02 0.15337261747E+02 0.80410690366E+01 0.71386659437E+01
 0.77478845190E+01 0.68846190285E+01 0.60606505214E+01 0.68846190285E+01 0.77478845190E+01
 0.71386659437E+01 0.80410690366E+01 0.15337261747E+02 0.28442934905E+02 0.49236150247E+02
 0.11110714519E+03 0.23902518253E+03 0.41400775072E+03 0.57090253808E+03 0.46081936331E+03
 0.41400775072E+03 0.29887415002E+03 0.17215002567E+03 0.81972971569E+02 0.40183171127E+02
 0.24631378747E+02 0.13188046553E+02 0.75959515033E+01 0.72904292164E+01 0.81146020623E+01
 0.77478845190E+01 0.72461906623E+01 0.77478845190E+01 0.81146020623E+01 0.72904292164E+01
 0.75959515033E+01 0.13188046553E+02 0.24631378747E+02 0.40183171127E+02 0.81972971569E+02
 0.17215002567E+03 0.29887415002E+03 0.41400775072E+03 0.26653485982E+03 0.23902518253E+03
 0.17215002567E+03 0.10059116589E+03 0.52332608121E+02 0.30932440458E+02 0.19406249613E+02
 0.10792315950E+02 0.70879887364E+01 0.68417630136E+01 0.72904292164E+01 0.71386659437E+01
 0.69046438084E+01 0.71386659437E+01 0.72904292164E+01 0.68417630136E+01 0.70879887364E+01
 0.10792315950E+02 0.19406249613E+02 0.30932440458E+02 0.52332608121E+02 0.10059116589E+03
 0.17215002567E+03 0.23902518253E+03 0.12337132992E+03 0.11110714519E+03 0.81972971569E+02
 0.52332608121E+02 0.33471162167E+02 0.22792270926E+02 0.14156792462E+02 0.89865823181E+01
 0.71246784588E+01 0.70879887364E+01 0.75959515033E+01 0.80410690366E+01 0.82089319200E+01
 0.80410690366E+01 0.75959515033E+01 0.70879887364E+01 0.71246784588E+01 0.89865823181E+01
 0.14156792462E+02 0.22792270926E+02 0.33471162167E+02 0.52332608121E+02 0.81972971569E+02
 0.11110714519E+03 0.53145495342E+02 0.49236150247E+02 0.40183171127E+02 0.30932440458E+02
 0.22792270926E+02 0.15251286438E+02 0.10298499771E+02 0.84874498058E+01 0.89865823181E+01
 0.10792315950E+02 0.13188046553E+02 0.15337261747E+02 0.16220157202E+02 0.15337261747E+02
 0.13188046553E+02 0.10792315950E+02 0.89865823181E+01 0.84874498058E+01 0.10298499771E+02
 0.15251286438E+02 0.22792270926E+02 0.30932440458E+02 0.40183171127E+02 0.49236150247E+02
 0.29856493993E+02 0.28442934905E+02 0.24631378747E+02 0.19406249613E+02 0.14156792462E+02
 0.10298499771E+02 0.88830072941E+01 0.10298499771E+02 0.14156792462E+02 0.19406249613E+02
 0.24631378747E+02 0.28442934905E+02 0.29856493993E+02 0.28442934905E+02 0.24631378747E+02
 0.19406249613E+02 0.14156792462E+02 0.10298499771E+02 0.88830072941E+01 0.10298499771E+02
 0.14156792462E+02 0.19406249613E+02 0.24631378747E+02 0.28442934905E+02 0.16220157202E+02
 0.15337261747E+02 0.13188046553E+02 0.10792315950E+02 0.89865823181E+01 0.84874498058E+01
 0.10298499771E+02 0.15251286438E+02 0.22792270926E+02 0.30932440458E+02 0.40183171127E+02
 0.49236150247E+02 0.53145495342E+02 0.49236150247E+02 0.40183171127E+02 0.30932440458E+02
 0.22792270926E+02 0.15251286438E+02 0.10298499771E+02 0.84874498058E+01 0.89865823181E+01
 0.10792315950E+02 0.13188046553E+02 0.15337261747E+02 0.82089319200E+01 0.80410690366E+01
 0.75959515033E+01 0.70879887364E+01 0.71246784588E+01 0.89865823181E+01 0.14156792462E+02
 0.22792270926E+02 0.33471162167E+02 0.52332608121E+02 0.81972971569E+02 0.11110714519E+03
 0.12337132992E+03 0.11110714519E+03 0.81972971569E+02 0.52332608121E+02 0.33471162167E+02
 0.22792270926E+02 0.14156792462E+02 0.89865823181E+01 0.71246784588E+01 0.70879887364E+01
 0.75959515033E+01 0.80410690366E+01 0.69046438084E+01 0.71386659437E+01 0.72904292164E+01
 0.68417630136E+01 0.70879887364E+01 0.10792315950E+02 0.19406249613E+02 0.30932440458E+02
 0.52332608121E+02 0.10059116589E+03 0.17215002567E+03 0.23902518253E+03 0.26653485982E+03
 0.23902518253E+03 0.17215002567E+03 0.10059116589E+03 0.52332608121E+02 0.30932440458E+02
 0.19406249613E+02 0.10792315950E+02 0.70879887364E+01 0.68417630136E+01 0.72904292164E+01
 0.71386659437E+01 0.72461906623E+01 0.77478845190E+01 0.81146020623E+01 0.72904292164E+01
 0.75959515033E+01 0.13188046553E+02 0.24631378747E+02 0.40183171127E+02 0.81972971569E+02
 0.17215002567E+03 0.29887415002E+03 0.41400775072E+03 0.46081936331E+03 0.41400775072E+03
 0.29887415002E+03 0.17215002567E+03 0.81972971569E+02 0.40183171127E+02 0.24631378747E+02
 0.13188046553E+02 0.75959515033E+01 0.72904292164E+01 0.81146020623E+01 0.77478845190E+01
 0.60606505214E+01 0.68846190285E+01 0.77478845190E+01 0.71386659437E+01 0.80410690366E+01
 0.15337261747E+02 0.28442934905E+02 0.49236150247E+02 0.11110714519E+03 0.23902518253E+03
 0.41400775072E+03 0.57090253808E+03 0.63435332825E+03 0.57090253808E+03 0.41400775072E+03
 0.23902518253E+03 0.11110714519E+03 0.49236150247E+02 0.28442934905E+02 0.15337261747E+02
 0.80410690366E+01 0.71386659437E+01 0.77478845190E+01 0.68846190285E+01 0.50660953594E+01
 0.60606505214E+01 0.72461906623E+01 0.69046438084E+01 0.82089319200E+01 0.16220157202E+02
 0.29856493993E+02 0.53145495342E+02 0.12337132992E+03 0.26653485982E+03 0.46081936331E+03
 0.63435332825E+03 0.70442444027E+03 0.63435332825E+03 0.46081936331E+03 0.26653485982E+03
 0.12337132992E+03 0.53145495342E+02 0.29856493993E+02 0.16220157202E+02 0.82089319200E+01
 0.69046438084E+01 0.72461906623E+01 0.60606505214E+01 0.60606505214E+01 0.68846190285E+01
 0.77478845190E+01 0.71386659437E+01 0.80410690366E+01 0.15337261747E+02 0.28442934905E+02
 0.49236150247E+02 0.11110714519E+03 0.23902518253E+03 0.41400775072E+03 0.57090253808E+03
 0.63435332825E+03 0.57090253808E+03 0.41400775072E+03 0.23902518253E+03 0.11110714519E+03
 0.49236150247E+02 0.28442934905E+02 0.15337261747E+02 0.80410690366E+01 0.71386659437E+01
 0.77478845190E+01 0.68846190285E+01 0.72461906623E+01 0.77478845190E+01 0.81146020623E+01
 0.72904292164E+01 0.75959515033E+01 0.13188046553E+02 0.24631378747E+02 0.40183171127E+02
 0.81972971569E+02 0.17215002567E+03 0.29887415002E+03 0.41400775072E+03 0.46081936331E+03
 0.41400775072E+03 0.29887415002E+03 0.17215002567E+03 0.81972971569E+02 0.40183171127E+02
 0.24631378747E+02 0.13188046553E+02 0.75959515033E+01 0.72904292164E+01 0.81146020623E+01
 0.77478845190E+01 0.69046438084E+01 0.71386659437E+01 0.72904292164E+01 0.68417630136E+01
 0.70879887364E+01 0.10792315950E+02 0.19406249613E+02 0.30932440458E+02 0.52332608121E+02
 0.10059116589E+03 0.17215002567E+03 0.23902518253E+03 0.26653485982E+03 0.23902518253E+03
 0.17215002567E+03 0.10059116589E+03 0.52332608121E+02 0.30932440458E+02 0.19406249613E+02
 0.10792315950E+02 0.70879887364E+01 0.68417630136E+01 0.72904292164E+01 0.71386659437E+01
 0.82089319200E+01 0.80410690366E+01 0.75959515033E+01 0.70879887364E+01 0.71246784588E+01
 0.89865823181E+01 0.14156792462E+02 0.22792270926E+02 0.33471162167E+02 0.52332608121E+02
 0.81972971569E+02 0.11110714519E+03 0.12337132992E+03 0.11110714519E+03 0.81972971569E+02
 0.52332608121E+02 0.33471162167E+02 0.22792270926E+02 0.14156792462E+02 0.89865823181E+01
 0.71246784588E+01 0.70879887364E+01 0.75959515033E+01 0.80410690366E+01 0.16220157202E+02
 0.15337261747E+02 0.13188046553E+02 0.10792315950E+02 0.89865823181E+01 0.84874498058E+01
 0.10298499771E+02 0.15251286438E+02 0.22792270926E+02 0.30932440458E+02 0.40183171127E+02
 0.49236150247E+02 0.53145495342E+02 0.49236150247E+02 0.40183171127E+02 0.30932440458E+02
 0.22792270926E+02 0.15251286438E+02 0.10298499771E+02 0.84874498058E+01 0.89865823181E+01
 0.10792315950E+02 0.13188046553E+02 0.15337261747E+02 0.29856493993E+02 0.28442934905E+02
 0.24631378747E+02 0.19406249613E+02 0.14156792462E+02 0.10298499771E+02 0.88830072941E+01
 0.10298499771E+02 0.14156792462E+02 0.19406249613E+02 0.24631378747E+02 0.28442934905E+02
 0.29856493993E+02 0.28442934905E+02 0.24631378747E+02 0.19406249613E+02 0.14156792462E+02
 0.10298499771E+02 0.88830072941E+01 0.10298499771E+02 0.14156792462E+02 0.19406249613E+02
 0.24631378747E+02 0.28442934905E+02 0.53145495342E+02 0.49236150247E+02 0.40183171127E+02
 0.30932440458E+02 0.22792270926E+02 0.15251286438E+02 0.10298499771E+02 0.84874498058E+01
 0.89865823181E+01 0.10792315950E+02 0.13188046553E+02 0.15337261747E+02 0.16220157202E+02
 0.15337261747E+02 0.13188046553E+02 0.10792315950E+02 0.89865823181E+01 0.84874498058E+01
 0.10298499771E+02 0.15251286438E+02 0.22792270926E+02 0.30932440458E+02 0.40183171127E+02
 0.49236150247E+02 0.12337132992E+03 0.11110714519E+03 0.81972971569E+02 0.52332608121E+02
 0.33471162167E+02 0.22792270926E+02 0.14156792462E+02 0.89865823181E+01 0.71246784588E+01
 0.70879887364E+01 0.75959515033E+01 0.80410690366E+01 0.82089319200E+01 0.80410690366E+01
 0.75959515033E+01 0.70879887364E+01 0.71246784588E+01 0.89865823181E+01 0.14156792462E+02
 0.22792270926E+02 0.33471162167E+02 0.52332608121E+02 0.81972971569E+02 0.11110714519E+03
 0.26653485982E+03 0.23902518253E+03 0.17215002567E+03 0.10059116589E+03 0.52332608121E+02
 0.30932440458E+02 0.19406249613E+02 0.10792315950E+02 0.70879887364E+01 0.68417630136E+01
 0.72904292164E+01 0.71386659437E+01 0.69046438084E+01 0.71386659437E+01 0.72904292164E+01
 0.68417630136E+01 0.70879887364E+01 0.10792315950E+02 0.19406249613E+02 0.30932440458E+02
 0.52332608121E+02 0.10059116589E+03 0.17215002567E+03 0.23902518253E+03 0.46081936331E+03
 0.41400775072E+03 0.29887415002E+03 0.17215002567E+03 0.81972971569E+02 0.40183171127E+02
 0.24631378747E+02 0.13188046553E+02 0.75959515033E+01 0.72904292164E+01 0.81146020623E+01
 0.77478845190E+01 0.72461906623E+01 0.77478845190E+01 0.81146020623E+01 0.72904292164E+01
 0.75959515033E+01 0.13188046553E+02 0.24631378747E+02 0.40183171127E+02 0.81972971569E+02
 0.17215002567E+03 0.29887415002E+03 0.41400775072E+03 0.63435332825E+03 0.57090253808E+03
 0.41400775072E+03 0.23902518253E+03 0.11110714519E+03 0.49236150247E+02 0.28442934905E+02
 0.15337261747E+02 0.80410690366E+01 0.71386659437E+01 0.77478845190E+01 0.68846190285E+01
 0.60606505214E+01 0.68846190285E+01 0.77478845190E+01 0.71386659437E+01 0.80410690366E+01
 0.15337261747E+02 0.28442934905E+02 0.49236150247E+02 0.11110714519E+03 0.23902518253E+03
 0.41400775072E+03 0.57090253808E+03 0.51268004638E+03 0.46081936331E+03 0.33303177769E+03
 0.19174673522E+03 0.90312022065E+02 0.42735729435E+02 0.25903275974E+02 0.13950558839E+02
 0.77857598010E+01 0.71948662478E+01 0.78412022067E+01 0.72461906623E+01 0.66206009403E+01
 0.72461906623E+01 0.78412022067E+01 0.71948662478E+01 0.77857598010E+01 0.13950558839E+02
 0.25903275974E+02 0.42735729435E+02 0.90312022065E+02 0.19174673522E+03 0.33303177769E+03
 0.46081936331E+03 0.46081936331E+03 0.41400775072E+03 0.29887415002E+03 0.17215002567E+03
 0.81972971569E+02 0.40183171127E+02 0.24631378747E+02 0.13188046553E+02 0.75959515033E+01
 0.72904292164E+01 0.81146020623E+01 0.77478845190E+01 0.72461906623E+01 0.77478845190E+01
 0.81146020623E+01 0.72904292164E+01 0.75959515033E+01 0.13188046553E+02 0.24631378747E+02
 0.40183171127E+02 0.81972971569E+02 0.17215002567E+03 0.29887415002E+03 0.41400775072E+03
 0.33303177769E+03 0.29887415002E+03 0.21539532688E+03 0.12490923755E+03 0.62371940704E+02
 0.34194794406E+02 0.21240289554E+02 0.11397096644E+02 0.71618474106E+01 0.72411912962E+01
 0.81522376133E+01 0.81146020623E+01 0.78412022067E+01 0.81146020623E+01 0.81522376133E+01
 0.72411912962E+01 0.71618474106E+01 0.11397096644E+02 0.21240289554E+02 0.34194794406E+02
 0.62371940704E+02 0.12490923755E+03 0.21539532688E+03 0.29887415002E+03 0.19174673522E+03
 0.17215002567E+03 0.12490923755E+03 0.75306532650E+02 0.42747132434E+02 0.27481911891E+02
 0.16806245319E+02 0.95513197141E+01 0.67667841261E+01 0.67458341918E+01 0.72411912962E+01
 0.72904292164E+01 0.71948662478E+01 0.72904292164E+01 0.72411912962E+01 0.67458341918E+01
 0.67667841261E+01 0.95513197141E+01 0.16806245319E+02 0.27481911891E+02 0.42747132434E+02
 0.75306532650E+02 0.12490923755E+03 0.17215002567E+03 0.90312022065E+02 0.81972971569E+02
 0.62371940704E+02 0.42747132434E+02 0.29807410449E+02 0.20275306313E+02 0.12601143269E+02
 0.83207625882E+01 0.68397288063E+01 0.67667841261E+01 0.71618474106E+01 0.75959515033E+01
 0.77857598010E+01 0.75959515033E+01 0.71618474106E+01 0.67667841261E+01 0.68397288063E+01
 0.83207625882E+01 0.12601143269E+02 0.20275306313E+02 0.29807410449E+02 0.42747132434E+02
 0.62371940704E+02 0.81972971569E+02 0.42735729435E+02 0.40183171127E+02 0.34194794406E+02
 0.27481911891E+02 0.20275306313E+02 0.13777003392E+02 0.96679384459E+01 0.81210398806E+01
 0.83207625882E+01 0.95513197141E+01 0.11397096644E+02 0.13188046553E+02 0.13950558839E+02
 0.13188046553E+02 0.11397096644E+02 0.95513197141E+01 0.83207625882E+01 0.81210398806E+01
 0.96679384459E+01 0.13777003392E+02 0.20275306313E+02 0.27481911891E+02 0.34194794406E+02
 0.40183171127E+02 0.25903275974E+02 0.24631378747E+02 0.21240289554E+02 0.16806245319E+02
 0.12601143269E+02 0.96679384459E+01 0.86249834031E+01 0.96679384459E+01 0.12601143269E+02
 0.16806245319E+02 0.21240289554E+02 0.24631378747E+02 0.25903275974E+02 0.24631378747E+02
 0.21240289554E+02 0.16806245319E+02 0.12601143269E+02 0.96679384459E+01 0.86249834031E+01
 0.96679384459E+01 0.12601143269E+02 0.16806245319E+02 0.21240289554E+02 0.24631378747E+02
 0.13950558839E+02 0.13188046553E+02 0.11397096644E+02 0.95513197141E+01 0.83207625882E+01
 0.81210398806E+01 0.96679384459E+01 0.13777003392E+02 0.20275306313E+02 0.27481911891E+02
 0.34194794406E+02 0.40183171127E+02 0.42735729435E+02 0.40183171127E+02 0.34194794406E+02
 0.27481911891E+02 0.20275306313E+02 0.13777003392E+02 0.96679384459E+01 0.81210398806E+01
 0.83207625882E+01 0.95513197141E+01 0.11397096644E+02 0.13188046553E+02 0.77857598010E+01
 0.75959515033E+01 0.71618474106E+01 0.67667841261E+01 0.68397288063E+01 0.83207625882E+01
 0.12601143269E+02 0.20275306313E+02 0.29807410449E+02 0.42747132434E+02 0.62371940704E+02
 0.81972971569E+02 0.90312022065E+02 0.81972971569E+02 0.62371940704E+02 0.42747132434E+02
 0.29807410449E+02 0.20275306313E+02 0.12601143269E+02 0.83207625882E+01 0.68397288063E+01
 0.67667841261E+01 0.71618474106E+01 0.75959515033E+01 0.71948662478E+01 0.72904292164E+01
 0.72411912962E+01 0.67458341918E+01 0.67667841261E+01 0.95513197141E+01 0.16806245319E+02
 0.27481911891E+02 0.42747132434E+02 0.75306532650E+02 0.12490923755E+03 0.17215002567E+03
 0.19174673522E+03 0.17215002567E+03 0.12490923755E+03 0.75306532650E+02 0.42747132434E+02
 0.27481911891E+02 0.16806245319E+02 0.95513197141E+01 0.67667841261E+01 0.67458341918E+01
 0.72411912962E+01 0.72904292164E+01 0.78412022067E+01 0.81146020623E+01 0.81522376133E+01
 0.72411912962E+01 0.71618474106E+01 0.11397096644E+02 0.21240289554E+02 0.34194794406E+02
 0.62371940704E+02 0.12490923755E+03 0.21539532688E+03 0.29887415002E+03 0.33303177769E+03
 0.29887415002E+03 0.21539532688E+03 0.12490923755E+03 0.62371940704E+02 0.34194794406E+02
 0.21240289554E+02 0.11397096644E+02 0.71618474106E+01 0.72411912962E+01 0.81522376133E+01
 0.81146020623E+01 0.72461906623E+01 0.77478845190E+01 0.81146020623E+01 0.72904292164E+01
 0.75959515033E+01 0.13188046553E+02 0.24631378747E+02 0.40183171127E+02 0.81972971569E+02
 0.17215002567E+03 0.29887415002E+03 0.41400775072E+03 0.46081936331E+03 0.41400775072E+03
 0.29887415002E+03 0.17215002567E+03 0.81972971569E+02 0.40183171127E+02 0.24631378747E+02
 0.13188046553E+02 0.75959515033E+01 0.72904292164E+01 0.81146020623E+01 0.77478845190E+01
 0.66206009403E+01 0.72461906623E+01 0.78412022067E+01 0.71948662478E+01 0.77857598010E+01
 0.13950558839E+02 0.25903275974E+02 0.42735729435E+02 0.90312022065E+02 0.19174673522E+03
 0.33303177769E+03 0.46081936331E+03 0.51268004638E+03 0.46081936331E+03 0.33303177769E+03
 0.19174673522E+03 0.90312022065E+02 0.42735729435E+02 0.25903275974E+02 0.13950558839E+02
 0.77857598010E+01 0.71948662478E+01 0.78412022067E+01 0.72461906623E+01 0.72461906623E+01
 0.77478845190E+01 0.81146020623E+01 0.72904292164E+01 0.75959515033E+01 0.13188046553E+02
 0.24631378747E+02 0.40183171127E+02 0.81972971569E+02 0.17215002567E+03 0.29887415002E+03
 0.41400775072E+03 0.46081936331E+03 0.41400775072E+03 0.29887415002E+03 0.17215002567E+03
 0.81972971569E+02 0.40183171127E+02 0.24631378747E+02 0.13188046553E+02 0.75959515033E+01
 0.72904292164E+01 0.81146020623E+01 0.77478845190E+01 0.78412022067E+01 0.81146020623E+01
 0.81522376133E+01 0.72411912962E+01 0.71618474106E+01 0.11397096644E+02 0.21240289554E+02
 0.34194794406E+02 0.62371940704E+02 0.12490923755E+03 0.21539532688E+03 0.29887415002E+03
 0.33303177769E+03 0.29887415002E+03 0.21539532688E+03 0.12490923755E+03 0.62371940704E+02
 0.34194794406E+02 0.21240289554E+02 0.11397096644E+02 0.71618474106E+01 0.72411912962E+01
 0.81522376133E+01 0.81146020623E+01 0.71948662478E+01 0.72904292164E+01 0.72411912962E+01
 0.67458341918E+01 0.67667841261E+01 0.95513197141E+01 0.16806245319E+02 0.27481911891E+02
 0.42747132434E+02 0.75306532650E+02 0.12490923755E+03 0.17215002567E+03 0.19174673522E+03
 0.17215002567E+03 0.12490923755E+03 0.75306532650E+02 0.42747132434E+02 0.27481911891E+02
 0.16806245319E+02 0.95513197141E+01 0.67667841261E+01 0.67458341918E+01 0.72411912962E+01
 0.72904292164E+01 0.77857598010E+01 0.75959515033E+01 0.71618474106E+01 0.67667841261E+01
 0.68397288063E+01 0.83207625882E+01 0.12601143269E+02 0.20275306313E+02 0.29807410449E+02
 0.42747132434E+02 0.62371940704E+02 0.81972971569E+02 0.90312022065E+02 0.81972971569E+02
 0.62371940704E+02 0.42747132434E+02 0.29807410449E+02 0.20275306313E+02 0.12601143269E+02
 0.83207625882E+01 0.68397288063E+01 0.67667841261E+01 0.71618474106E+01 0.75959515033E+01
 0.13950558839E+02 0.13188046553E+02 0.11397096644E+02 0.95513197141E+01 0.83207625882E+01
 0.81210398806E+01 0.96679384459E+01 0.13777003392E+02 0.20275306313E+02 0.27481911891E+02
 0.34194794406E+02 0.40183171127E+02 0.42735729435E+02 0.40183171127E+02 0.34194794406E+02
 0.27481911891E+02 0.20275306313E+02 0.13777003392E+02 0.96679384459E+01 0.81210398806E+01
 0.83207625882E+01 0.95513197141E+01 0.11397096644E+02 0.13188046553E+02 0.25903275974E+02
 0.24631378747E+02 0.21240289554E+02 0.16806245319E+02 0.12601143269E+02 0.96679384459E+01
 0.86249834031E+01 0.96679384459E+01 0.12601143269E+02 0.16806245319E+02 0.21240289554E+02
 0.24631378747E+02 0.25903275974E+02 0.24631378747E+02 0.21240289554E+02 0.16806245319E+02
 0.12601143269E+02 0.96679384459E+01 0.86249834031E+01 0.96679384459E+01 0.12601143269E+02
 0.16806245319E+02 0.21240289554E+02 0.24631378747E+02 0.42735729435E+02 0.40183171127E+02
 0.34194794406E+02 0.27481911891E+02 0.20275306313E+02 0.13777003392E+02 0.96679384459E+01
 0.81210398806E+01 0.83207625882E+01 0.95513197141E+01 0.11397096644E+02 0.13188046553E+02
 0.13950558839E+02 0.13188046553E+02 0.11397096644E+02 0.95513197141E+01 0.83207625882E+01