    4    4    1    1
  0.1200752E+02  0.3635000E-09  0.3635000E-09  0.3635000E-09  0.5000000E-15
  1.000000000000000E-004
  CAR 
 unknown system                          
     44     10     30
 
  0.0000000E+00  0.0000000E+00  0.0000000E+00  0.8000000E-02
    1       -1.728950   1.000000
    2        0.407040   1.000000
    3        0.407040   1.000000
    4        0.407040   1.000000
    5        0.549990   1.000000
    6        0.549990   1.000000
    7        0.549990   1.000000
    8        1.704566   1.000000
    9        1.704566   1.000000
   10        2.327426   1.000000
   11        2.327426   1.000000
   12        2.327426   1.000000
   13        6.383159   1.000000
   14        6.383159   1.000000
   15        6.383159   1.000000
   16        6.430012   1.000000
   17        6.430012   1.000000
   18        6.430012   1.000000
   19        6.430012   1.000000
   20        6.430012   1.000000
   21        6.430012   1.000000
   22        9.008253  -0.000000
   23        9.008253  -0.000000
   24        9.008253  -0.000000
   25       12.915988  -0.000000
   26       12.915988  -0.000000
   27       12.915988  -0.000000
   28       20.195386   0.000000
   29       20.195386   0.000000
   30       20.195386   0.000000
 
  0.2000000E+00  0.0000000E+00  0.0000000E+00  0.4800000E-01
    1       -1.259268   1.000000
    2        0.364195   1.000000
    3        0.523769   1.000000
    4        0.523769   1.000000
    5        1.159261   1.000000
    6        1.159261   1.000000
    7        1.567877   1.000000
    8        1.567877   1.000000
    9        1.667522   1.000000
   10        1.775013   1.000000
   11        2.216409   1.000000
   12        2.464879   1.000000
   13        3.771002   1.000000
   14        3.771002   1.000000
   15        4.668157   1.000000
   16        4.668157   1.000000
   17        5.824738   1.000000
   18        5.824738   1.000000
   19        6.422476   1.000000
   20        7.024419   1.000000
   21        9.784570  -0.000000
   22        9.784570  -0.000000
   23        9.962434  -0.000000
   24        9.962434  -0.000000
   25       13.254523  -0.000000
   26       13.254523  -0.000000
   27       16.602165   0.000000
   28       17.586598   0.000000
   29       17.586598   0.000000
   30       18.421158   0.000000
 
  0.4000000E+00  0.0000000E+00  0.0000000E+00  0.4800000E-01
    1        0.095414   1.000000
    2        0.927715   1.000000
    3        1.215170   1.000000
    4        1.494513   1.000000
    5        1.494513   1.000000
    6        1.713370   1.000000
    7        1.860230   1.000000
    8        1.860230   1.000000
    9        1.979230   1.000000
   10        2.298910   1.000000
   11        2.988806   1.000000
   12        2.988806   1.000000
   13        3.327811   1.000000
   14        3.354387   1.000000
   15        3.354387   1.000000
   16        3.604307   1.000000
   17        3.604307   1.000000
   18        3.810801   1.000000
   19        4.569741   1.000000
   20        4.569741   1.000000
   21        5.900837   1.000000
   22        5.900837   1.000000
   23       11.676406  -0.000000
   24       11.676406  -0.000000
   25       14.171056   0.000000
   26       14.171056   0.000000
   27       14.327400   0.000000
   28       14.327400   0.000000
   29       16.023887   0.000000
   30       16.023887   0.000000
 
  0.2000000E+00  0.2000000E+00  0.0000000E+00  0.9600000E-01
    1       -0.809549   1.000000
    2        0.577292   1.000000
    3        1.237096   1.000000
    4        1.537969   1.000000
    5        1.613652   1.000000
    6        1.613652   1.000000
    7        1.683618   1.000000
    8        1.755075   1.000000
    9        1.875060   1.000000
   10        2.033049   1.000000
   11        2.311533   1.000000
   12        2.311533   1.000000
   13        3.585788   1.000000
   14        3.585788   1.000000
   15        4.530442   1.000000
   16        4.585345   1.000000
   17        6.112346   1.000000
   18        6.112346   1.000000
   19        6.410763   1.000000
   20        6.410763   1.000000
   21        7.508870   1.000032
   22        7.508870   1.000032
   23        7.675816   1.002192
   24       10.549227  -0.000000
   25       13.502536  -0.000000
   26       14.205232   0.000000
   27       17.004891   0.000000
   28       17.004891   0.000000
   29       18.212740   0.000000
   30       18.212740   0.000000
 
  0.4000000E+00  0.2000000E+00  0.0000000E+00  0.1920000E+00
    1        0.521082   1.000000
    2        1.002774   1.000000
    3        1.394849   1.000000
    4        1.650652   1.000000
    5        1.803506   1.000000
    6        1.843356   1.000000
    7        1.976269   1.000000
    8        2.047106   1.000000
    9        2.155340   1.000000
   10        2.271489   1.000000
   11        2.615808   1.000000
   12        2.952989   1.000000
   13        3.082898   1.000000
   14        3.672110   1.000000
   15        3.754586   1.000000
   16        3.852347   1.000000
   17        3.913034   1.000000
   18        4.208153   1.000000
   19        4.811844   1.000000
   20        5.439019   1.000000
   21        5.527618   1.000000
   22        6.585804   1.000000
   23        8.585866  -0.003993
   24       10.891403  -0.000000
   25       12.348145  -0.000000
   26       14.627379   0.000000
   27       14.934472   0.000000
   28       16.391108   0.000000
   29       18.207844   0.000000
   30       19.678091   0.000000
 
  0.4000000E+00  0.4000000E+00  0.0000000E+00  0.9600000E-01
    1        0.881802   1.000000
    2        1.143942   1.000000
    3        1.501952   1.000000
    4        1.771690   1.000000
    5        1.790761   1.000000
    6        2.009044   1.000000
    7        2.335512   1.000000
    8        2.367060   1.000000
    9        2.367060   1.000000
   10        2.684190   1.000000
   11        2.684190   1.000000
   12        3.027207   1.000000
   13        3.027207   1.000000
   14        3.407275   1.000000
   15        3.807285   1.000000
   16        4.608995   1.000000
   17        4.608995   1.000000
   18        4.776130   1.000000
   19        5.142596   1.000000
   20        5.696651   1.000000
   21        5.696651   1.000000
   22        7.047377   1.000000
   23        7.047377   1.000000
   24        7.969932   1.007931
   25       14.049864   0.000000
   26       15.743728   0.000000
   27       16.618122   0.000000
   28       16.618122   0.000000
   29       17.707214   0.000000
   30       17.707214   0.000000
 
  0.2000000E+00  0.2000000E+00  0.2000000E+00  0.6400000E-01
    1       -0.403063   1.000000
    2        0.667588   1.000000
    3        0.667588   1.000000
    4        1.328521   1.000000
    5        1.651297   1.000000
    6        1.651297   1.000000
    7        1.651297   1.000000
    8        1.765495   1.000000
    9        1.765495   1.000000
   10        2.527410   1.000000
   11        2.527410   1.000000
   12        2.527410   1.000000
   13        2.892742   1.000000
   14        2.892742   1.000000
   15        2.892742   1.000000
   16        5.284136   1.000000
   17        5.284136   1.000000
   18        5.284136   1.000000
   19        7.884483   1.034505
   20        7.884483   1.034505
   21        7.884483   1.034505
   22        8.289368   0.034542
   23        8.289368   0.034542
   24        8.289368   0.034542
   25       14.688593   0.000000
   26       14.688593   0.000000
   27       14.688593   0.000000
   28       17.422947   0.000000
   29       17.422947   0.000000
   30       17.422947   0.000000
 
  0.4000000E+00  0.2000000E+00  0.2000000E+00  0.1920000E+00
    1        0.881837   1.000000
    2        0.924069   1.000000
    3        1.364278   1.000000
    4        1.364278   1.000000
    5        1.826913   1.000000
    6        2.156219   1.000000
    7        2.157357   1.000000
    8        2.157357   1.000000
    9        2.456045   1.000000
   10        2.487769   1.000000
   11        2.536825   1.000000
   12        2.536825   1.000000
   13        2.838209   1.000000
   14        3.722867   1.000000
   15        3.722867   1.000000
   16        3.761025   1.000000
   17        4.305539   1.000000
   18        4.422474   1.000000
   19        4.991747   1.000000
   20        4.991747   1.000000
   21        5.757830   1.000000
   22        8.216603   0.221213
   23        9.006193  -0.000000
   24        9.006193  -0.000000
   25       11.567828  -0.000000
   26       11.567828  -0.000000
   27       16.211020   0.000000
   28       18.512167   0.000000
   29       18.623997   0.000000
   30       18.623997   0.000000
 
  0.4000000E+00  0.4000000E+00  0.2000000E+00  0.1920000E+00
    1        0.972144   1.000000
    2        1.489585   1.000000
    3        1.489585   1.000000
    4        1.537377   1.000000
    5        1.770996   1.000000
    6        1.937634   1.000000
    7        1.937634   1.000000
    8        1.952627   1.000000
    9        2.364606   1.000000
   10        2.364606   1.000000
   11        2.466331   1.000000
   12        3.080694   1.000000
   13        3.415626   1.000000
   14        3.415626   1.000000
   15        3.571667   1.000000
   16        3.621339   1.000000
   17        4.150874   1.000000
   18        5.231695   1.000000
   19        5.376355   1.000000
   20        5.376355   1.000000
   21        6.042825   1.000000
   22        6.042825   1.000000
   23        6.790358   1.000000
   24        8.260825   0.092159
   25       10.873020  -0.000000
   26       13.048037  -0.000000
   27       13.048037  -0.000000
   28       15.364975   0.000000
   29       19.840654   0.000000
   30       21.915828   0.000000
 
  0.4000000E+00  0.4000000E+00  0.4000000E+00  0.6400000E-01
    1        1.205228   1.000000
    2        1.205228   1.000000
    3        1.205228   1.000000
    4        2.169601   1.000000
    5        2.613372   1.000000
    6        2.613372   1.000000
    7        2.613372   1.000000
    8        2.762301   1.000000
    9        2.762301   1.000000
   10        2.970715   1.000000
   11        2.970715   1.000000
   12        2.970715   1.000000
   13        4.827981   1.000000
   14        6.375304   1.000000
   15        6.375304   1.000000
   16        6.375304   1.000000
   17        6.795353   1.000000
   18        6.795353   1.000000
   19        6.795353   1.000000
   20        8.542128  -0.008519
   21        8.542128  -0.008519
   22        8.542128  -0.008519
   23        9.348017  -0.000000
   24        9.348017  -0.000000
   25       10.338867  -0.000000
   26       10.338867  -0.000000
   27       10.338867  -0.000000
   28       12.287621  -0.000000
   29       25.459290   0.000000
   30       25.459290   0.000000
