<?xml version="1.0" encoding="ISO-8859-1"?>
<modeling>
 <generator>
  <i name="program" type="string">vasp </i>
  <i name="version" type="string">6.2.0  </i>
  <i name="subversion" type="string">18Jan21 (build Mar 17 2021 09:06:54) complex                          serial </i>
  <i name="platform" type="string">LinuxIFC </i>
  <i name="date" type="string">2021 08 03 </i>
  <i name="time" type="string">10:15:00 </i>
 </generator>
 <incar>
  <i type="string" name="PREC">normal</i>
  <i type="int" name="ICHARG">     1</i>
  <i type="int" name="IBRION">    -1</i>
  <i name="EDIFF">      0.00000100</i>
  <i type="int" name="NSW">     0</i>
  <i name="ENCUT">    150.00000000</i>
  <i type="int" name="NBANDS">    30</i>
  <i type="int" name="ISMEAR">     1</i>
  <i name="SIGMA">      0.20000000</i>
  <i type="logical" name="LCHARG"> T  </i>
  <i type="int" name="KPAR">     1</i>
  <i type="int" name="NCORE">     1</i>
  <i type="string" name="GGA">PE</i>
 </incar>
 <primitive_cell>
  <structure name="primitive_cell" >
   <crystal>
    <varray name="basis" >
     <v>       1.81750000      -1.81750000       0.00000000 </v>
     <v>       1.81750000       0.00000000       1.81750000 </v>
     <v>       0.00000000      -1.81750000       1.81750000 </v>
    </varray>
    <i name="volume">     12.00751822 </i>
    <varray name="rec_basis" >
     <v>       0.27510316      -0.27510316      -0.27510316 </v>
     <v>       0.27510316       0.27510316       0.27510316 </v>
     <v>      -0.27510316      -0.27510316       0.27510316 </v>
    </varray>
   </crystal>
   <varray name="positions" >
    <v>       0.00000000       0.00000000       0.00000000 </v>
   </varray>
  </structure>
  <varray name="primitive_index" >
   <v type="int" >        1 </v>
  </varray>
 </primitive_cell>
 <kpoints>
  <generation param="Monkhorst-Pack">
   <v type="int" name="divisions">       5        5        5 </v>
   <v name="usershift">      0.00000000       0.00000000       0.00000000 </v>
   <v name="genvec1">      0.20000000       0.00000000       0.00000000 </v>
   <v name="genvec2">      0.00000000       0.20000000       0.00000000 </v>
   <v name="genvec3">      0.00000000       0.00000000       0.20000000 </v>
   <v name="shift">      0.00000000       0.00000000       0.00000000 </v>
  </generation>
  <varray name="kpointlist" >
   <v>       0.00000000       0.00000000       0.00000000 </v>
   <v>       0.20000000       0.00000000       0.00000000 </v>
   <v>       0.40000000       0.00000000       0.00000000 </v>
   <v>       0.20000000       0.20000000       0.00000000 </v>
   <v>       0.40000000       0.20000000       0.00000000 </v>
   <v>       0.40000000       0.40000000       0.00000000 </v>
   <v>       0.20000000       0.20000000       0.20000000 </v>
   <v>       0.40000000       0.20000000       0.20000000 </v>
   <v>       0.40000000       0.40000000       0.20000000 </v>
   <v>       0.40000000       0.40000000       0.40000000 </v>
  </varray>
  <varray name="weights" >
   <v>       0.00800000 </v>
   <v>       0.04800000 </v>
   <v>       0.04800000 </v>
   <v>       0.09600000 </v>
   <v>       0.19200000 </v>
   <v>       0.09600000 </v>
   <v>       0.06400000 </v>
   <v>       0.19200000 </v>
   <v>       0.19200000 </v>
   <v>       0.06400000 </v>
  </varray>
 </kpoints>
 <parameters>
  <separator name="general" >
   <i type="string" name="SYSTEM">unknown system</i>
   <i type="logical" name="LCOMPAT"> F  </i>
  </separator>
  <separator name="electronic" >
   <i type="string" name="PREC">normal</i>
   <i name="ENMAX">    150.00000000</i>
   <i name="ENAUG">    586.98000000</i>
   <i name="EDIFF">      0.00000100</i>
   <i type="int" name="IALGO">    38</i>
   <i type="int" name="IWAVPR">     0</i>
   <i type="int" name="NBANDS">    30</i>
   <i type="int" name="NBANDSLOW">    -1</i>
   <i type="int" name="NBANDSHIGH">    -1</i>
   <i name="NELECT">     44.00000000</i>
   <i type="int" name="TURBO">     0</i>
   <i type="int" name="IRESTART">     0</i>
   <i type="int" name="NREBOOT">     0</i>
   <i type="int" name="NMIN">     0</i>
   <i name="EREF">      0.00000000</i>
   <separator name="electronic smearing" >
    <i type="int" name="ISMEAR">     1</i>
    <i name="SIGMA">      0.20000000</i>
    <i name="KSPACING">      0.50000000</i>
    <i type="logical" name="KGAMMA"> T  </i>
    <i type="logical" name="KBLOWUP"> T  </i>
   </separator>
   <separator name="electronic projectors" >
    <i type="logical" name="LREAL"> F  </i>
    <v name="ROPT">      0.00000000</v>
    <i type="int" name="LMAXPAW">  -100</i>
    <i type="int" name="LMAXMIX">     2</i>
    <i type="logical" name="NLSPLINE"> F  </i>
   </separator>
   <separator name="electronic startup" >
    <i type="int" name="ISTART">     1</i>
    <i type="int" name="ICHARG">     1</i>
    <i type="int" name="INIWAV">     1</i>
   </separator>
   <separator name="electronic spin" >
    <i type="int" name="ISPIN">     1</i>
    <i type="logical" name="LNONCOLLINEAR"> F  </i>
    <v name="MAGMOM">      1.00000000      1.00000000      1.00000000      1.00000000</v>
    <i name="NUPDOWN">     -1.00000000</i>
    <i type="logical" name="LSORBIT"> F  </i>
    <v name="SAXIS">      0.00000000      0.00000000      1.00000000</v>
    <i type="logical" name="LSPIRAL"> F  </i>
    <v name="QSPIRAL">      0.00000000      0.00000000      0.00000000</v>
    <i type="logical" name="LZEROZ"> F  </i>
   </separator>
   <separator name="electronic exchange-correlation" >
    <i type="logical" name="LASPH"> F  </i>
    <i type="logical" name="LMETAGGA"> F  </i>
   </separator>
   <separator name="electronic convergence" >
    <i type="int" name="NELM">    60</i>
    <i type="int" name="NELMDL">     0</i>
    <i type="int" name="NELMIN">     2</i>
    <i name="ENINI">    150.00000000</i>
    <separator name="electronic convergence detail" >
     <i type="logical" name="LDIAG"> T  </i>
     <i type="logical" name="LSUBROT"> F  </i>
     <i name="WEIMIN">      0.00000000</i>
     <i name="EBREAK">      0.00000001</i>
     <i name="DEPER">      0.30000000</i>
     <i type="int" name="NRMM">     4</i>
     <i name="TIME">      0.40000000</i>
    </separator>
   </separator>
   <separator name="electronic mixer" >
    <i name="AMIX">      0.40000000</i>
    <i name="BMIX">      1.00000000</i>
    <i name="AMIN">      0.10000000</i>
    <i name="AMIX_MAG">      1.60000000</i>
    <i name="BMIX_MAG">      1.00000000</i>
    <separator name="electronic mixer details" >
     <i type="int" name="IMIX">     4</i>
     <i type="logical" name="MIXFIRST"> F  </i>
     <i type="int" name="MAXMIX">   -45</i>
     <i name="WC">    100.00000000</i>
     <i type="int" name="INIMIX">     1</i>
     <i type="int" name="MIXPRE">     1</i>
     <i type="int" name="MREMOVE">     5</i>
    </separator>
   </separator>
   <separator name="electronic dipolcorrection" >
    <i type="logical" name="LDIPOL"> F  </i>
    <i type="logical" name="LMONO"> F  </i>
    <i type="int" name="IDIPOL">     0</i>
    <i name="EPSILON">      1.00000000</i>
    <v name="DIPOL">   -100.00000000   -100.00000000   -100.00000000</v>
    <i name="EFIELD">      0.00000000</i>
   </separator>
  </separator>
  <separator name="grids" >
   <i type="int" name="NGX">    12</i>
   <i type="int" name="NGY">    12</i>
   <i type="int" name="NGZ">    12</i>
   <i type="int" name="NGXF">    24</i>
   <i type="int" name="NGYF">    24</i>
   <i type="int" name="NGZF">    24</i>
   <i type="logical" name="ADDGRID"> F  </i>
  </separator>
  <separator name="ionic" >
   <i type="int" name="NSW">     0</i>
   <i type="int" name="IBRION">    -1</i>
   <i type="int" name="MDALGO">     0</i>
   <i type="int" name="ISIF">     2</i>
   <i name="PSTRESS">      0.00000000</i>
   <i name="EDIFFG">      0.00001000</i>
   <i type="int" name="NFREE">     0</i>
   <i name="POTIM">      0.50000000</i>
   <i name="SMASS">     -3.00000000</i>
   <i name="SCALEE">      1.00000000</i>
  </separator>
  <separator name="ionic md" >
   <i name="TEBEG">      0.00010000</i>
   <i name="TEEND">      0.00010000</i>
   <i type="int" name="NBLOCK">     1</i>
   <i type="int" name="KBLOCK">     1</i>
   <i type="int" name="NPACO">   256</i>
   <i name="APACO">     16.00000000</i>
  </separator>
  <separator name="symmetry" >
   <i type="int" name="ISYM">     2</i>
   <i name="SYMPREC">      0.00001000</i>
  </separator>
  <separator name="dos" >
   <i type="int" name="LORBIT">     0</i>
   <v name="RWIGS">     -1.00000000</v>
   <i type="int" name="NEDOS">   301</i>
   <i name="EMIN">     10.00000000</i>
   <i name="EMAX">    -10.00000000</i>
   <i name="EFERMI">      0.00000000</i>
  </separator>
  <separator name="writing" >
   <i type="int" name="NWRITE">     2</i>
   <i type="logical" name="LWAVE"> T  </i>
   <i type="logical" name="LDOWNSAMPLE"> F  </i>
   <i type="logical" name="LCHARG"> T  </i>
   <i type="logical" name="LPARD"> F  </i>
   <i type="logical" name="LVTOT"> F  </i>
   <i type="logical" name="LVHAR"> F  </i>
   <i type="logical" name="LELF"> F  </i>
   <i type="logical" name="LOPTICS"> F  </i>
   <v name="STM">      0.00000000      0.00000000      0.00000000      0.00000000      0.00000000      0.00000000      0.00000000</v>
  </separator>
  <separator name="performance" >
   <i type="int" name="NPAR">     1</i>
   <i type="int" name="NSIM">     4</i>
   <i type="int" name="NBLK">    -1</i>
   <i type="logical" name="LPLANE"> T  </i>
   <i type="logical" name="LSCALAPACK"> F  </i>
   <i type="logical" name="LSCAAWARE"> F  </i>
   <i type="logical" name="LSCALU"> F  </i>
   <i type="logical" name="LASYNC"> F  </i>
   <i type="logical" name="LORBITALREAL"> F  </i>
  </separator>
  <separator name="miscellaneous" >
   <i type="int" name="IDIOT">     3</i>
   <i type="int" name="PHON_NSTRUCT">    -1</i>
   <i type="logical" name="LMUSIC"> F  </i>
   <v name="POMASS">     63.54600000</v>
   <v name="DARWINR">      0.00000000</v>
   <v name="DARWINV">      1.00000000</v>
   <i type="logical" name="LCORR"> T  </i>
  </separator>
  <i type="logical" name="GGA_COMPAT"> T  </i>
  <i type="logical" name="LBERRY"> F  </i>
  <i type="int" name="ICORELEVEL">     0</i>
  <i type="logical" name="LDAU"> F  </i>
  <i type="int" name="I_CONSTRAINED_M">     0</i>
  <separator name="electronic exchange-correlation" >
   <i type="string" name="GGA">PE</i>
   <i type="int" name="VOSKOWN">     0</i>
   <i type="logical" name="LHFCALC"> F  </i>
   <i type="string" name="PRECFOCK"></i>
   <i type="logical" name="LSYMGRAD"> F  </i>
   <i type="logical" name="LHFONE"> F  </i>
   <i type="logical" name="LRHFCALC"> F  </i>
   <i type="logical" name="LTHOMAS"> F  </i>
   <i type="logical" name="LMODELHF"> F  </i>
   <i type="logical" name="LFOCKACE"> F  </i>
   <i name="ENCUT4O">     -1.00000000</i>
   <i type="int" name="EXXOEP">     0</i>
   <i type="int" name="FOURORBIT">     0</i>
   <i name="AEXX">      0.00000000</i>
   <i name="HFALPHA">      0.00000000</i>
   <i name="MCALPHA">      0.00000000</i>
   <i name="ALDAX">      1.00000000</i>
   <i name="AGGAX">      1.00000000</i>
   <i name="ALDAC">      1.00000000</i>
   <i name="AGGAC">      1.00000000</i>
   <i type="int" name="NKREDX">     1</i>
   <i type="int" name="NKREDY">     1</i>
   <i type="int" name="NKREDZ">     1</i>
   <i type="logical" name="SHIFTRED"> F  </i>
   <i type="logical" name="ODDONLY"> F  </i>
   <i type="logical" name="EVENONLY"> F  </i>
   <i type="int" name="LMAXFOCK">     0</i>
   <i type="int" name="NMAXFOCKAE">     0</i>
   <i type="logical" name="LFOCKAEDFT"> F  </i>
   <i name="HFSCREEN">      0.00000000</i>
   <i name="HFSCREENC">      0.00000000</i>
   <i type="int" name="NBANDSGWLOW">     0</i>
  </separator>
  <separator name="vdW DFT" >
   <i type="logical" name="LUSE_VDW"> F  </i>
   <i name="Zab_VDW">     -0.84910000</i>
   <i name="PARAM1">      0.12340000</i>
   <i name="PARAM2">      1.00000000</i>
   <i name="PARAM3">      0.00000000</i>
  </separator>
  <separator name="model GW" >
   <i type="int" name="MODEL_GW">     0</i>
   <i name="MODEL_EPS0">      7.20451093</i>
   <i name="MODEL_ALPHA">      1.00000000</i>
  </separator>
  <separator name="linear response parameters" >
   <i type="logical" name="LEPSILON"> F  </i>
   <i type="logical" name="LRPA"> F  </i>
   <i type="logical" name="LNABLA"> F  </i>
   <i type="logical" name="LVEL"> F  </i>
   <i type="int" name="KINTER">     0</i>
   <i name="CSHIFT">      0.10000000</i>
   <i name="OMEGAMAX">     -1.00000000</i>
   <i name="DEG_THRESHOLD">      0.00200000</i>
   <i name="RTIME">     -0.10000000</i>
   <i name="WPLASMAI">      0.00000000</i>
   <v name="DFIELD">      0.00000000      0.00000000      0.00000000</v>
   <v name="WPLASMA">      0.00000000      0.00000000      0.00000000      0.00000000      0.00000000      0.00000000      0.00000000      0.00000000      0.00000000</v>
  </separator>
  <separator name="orbital magnetization" >
   <i type="logical" name="NUCIND"> F  </i>
   <v name="MAGPOS">      0.00000000      0.00000000      0.00000000</v>
   <i type="logical" name="LNICSALL"> T  </i>
   <i type="logical" name="ORBITALMAG"> F  </i>
   <i type="logical" name="LMAGBLOCH"> F  </i>
   <i type="logical" name="LCHIMAG"> F  </i>
   <i type="logical" name="LGAUGE"> T  </i>
   <i type="int" name="MAGATOM">     0</i>
   <v name="MAGDIPOL">      0.00000000      0.00000000      0.00000000</v>
   <v name="AVECCONST">      0.00000000      0.00000000      0.00000000</v>
  </separator>
  <separator name="response functions" >
   <i type="logical" name="LFINITE_TEMPERATURE"> F  </i>
   <i type="logical" name="LADDER"> F  </i>
   <i type="logical" name="LRPAFORCE"> F  </i>
   <i type="logical" name="LFXC"> F  </i>
   <i type="logical" name="LHARTREE"> T  </i>
   <i type="int" name="IBSE">     0</i>
   <v type="int" name="KPOINT">    -1     0     0     0</v>
   <i type="logical" name="LTCTC"> F  </i>
   <i type="logical" name="LTCTE"> F  </i>
   <i type="logical" name="LTETE"> F  </i>
   <i type="logical" name="LTRIPLET"> F  </i>
   <i type="logical" name="LFXCEPS"> F  </i>
   <i type="logical" name="LFXHEG"> F  </i>
   <i type="int" name="NATURALO">     2</i>
   <i type="logical" name="LHOLEGF"> F  </i>
   <i type="logical" name="L2ORDER"> F  </i>
   <i type="logical" name="LDMP1"> F  </i>
   <i type="logical" name="LMP2LT"> F  </i>
   <i type="logical" name="LSMP2LT"> F  </i>
   <i type="logical" name="LGWLF"> F  </i>
   <i name="ENCUTGW">     -2.00000000</i>
   <i name="ENCUTGWSOFT">     -2.00000000</i>
   <i name="ENCUTLF">     -1.00000000</i>
   <i type="logical" name="LESF_SPLINES"> F  </i>
   <i type="int" name="LMAXMP2">    -1</i>
   <i name="SCISSOR">      0.00000000</i>
   <i type="int" name="NOMEGA">     0</i>
   <i type="int" name="NOMEGAR">     0</i>
   <i type="int" name="NBANDSGW">    -1</i>
   <i type="int" name="NBANDSO">    -1</i>
   <i type="int" name="NBANDSV">    -1</i>
   <i type="int" name="NELM">     1</i>
   <i type="int" name="NELMHF">     1</i>
   <i type="int" name="DIM">     3</i>
   <i type="int" name="IESPILON">     4</i>
   <i type="int" name="ANTIRES">     0</i>
   <i name="OMEGAMAX">    -30.00000000</i>
   <i name="OMEGAMIN">    -30.00000000</i>
   <i name="OMEGATL">   -200.00000000</i>
   <i type="int" name="OMEGAGRID">     0</i>
   <i name="CSHIFT">     -0.10000000</i>
   <i type="logical" name="LSELFENERGY"> F  </i>
   <i type="logical" name="LSPECTRAL"> F  </i>
   <i type="logical" name="LSPECTRALGW"> F  </i>
   <i type="logical" name="LSINGLES"> F  </i>
   <i type="logical" name="LFERMIGW"> F  </i>
   <i type="logical" name="ODDONLYGW"> F  </i>
   <i type="logical" name="EVENONLYGW"> F  </i>
   <i type="int" name="NKREDLFX">     1</i>
   <i type="int" name="NKREDLFY">     1</i>
   <i type="int" name="NKREDLFZ">     1</i>
   <i type="int" name="MAXMEM">  2800</i>
   <i type="int" name="TELESCOPE">     0</i>
   <i type="int" name="NTAUPAR">    -1</i>
   <i type="int" name="NOMEGAPAR">    -1</i>
   <i name="DAMP_NEWTON">      0.80000001</i>
   <i name="LAMBDA">      1.00000000</i>
  </separator>
  <separator name="External order field" >
   <i name="OFIELD_KAPPA">      0.00000000</i>
   <v name="OFIELD_K">      0.00000000      0.00000000      0.00000000</v>
   <i name="OFIELD_Q6_NEAR">      0.00000000</i>
   <i name="OFIELD_Q6_FAR">      0.00000000</i>
   <i name="OFIELD_A">      0.00000000</i>
  </separator>
 </parameters>
 <atominfo>
  <atoms>       4 </atoms>
  <types>       1 </types>
  <array name="atoms" >
   <dimension dim="1">ion</dimension>
   <field type="string">element</field>
   <field type="int">atomtype</field>
   <set>
    <rc><c>Cu</c><c>   1</c></rc>
    <rc><c>Cu</c><c>   1</c></rc>
    <rc><c>Cu</c><c>   1</c></rc>
    <rc><c>Cu</c><c>   1</c></rc>
   </set>
  </array>
  <array name="atomtypes" >
   <dimension dim="1">type</dimension>
   <field type="int">atomspertype</field>
   <field type="string">element</field>
   <field>mass</field>
   <field>valence</field>
   <field type="string">pseudopotential</field>
   <set>
    <rc><c>   4</c><c>Cu</c><c>     63.54600000</c><c>     11.00000000</c><c>  PAW_PBE Cu 22Jun2005                  </c></rc>
   </set>
  </array>
 </atominfo>
 <structure name="initialpos" >
  <crystal>
   <varray name="basis" >
    <v>       3.63500000       0.00000000       0.00000000 </v>
    <v>       0.00000000       3.63500000       0.00000000 </v>
    <v>       0.00000000       0.00000000       3.63500000 </v>
   </varray>
   <i name="volume">     48.03007287 </i>
   <varray name="rec_basis" >
    <v>       0.27510316       0.00000000       0.00000000 </v>
    <v>       0.00000000       0.27510316       0.00000000 </v>
    <v>       0.00000000       0.00000000       0.27510316 </v>
   </varray>
  </crystal>
  <varray name="positions" >
   <v>       0.00000000       0.00000000       0.00000000 </v>
   <v>       0.50000000       0.50000000       0.00000000 </v>
   <v>       0.50000000       0.00000000       0.50000000 </v>
   <v>       0.00000000       0.50000000       0.50000000 </v>
  </varray>
 </structure>
 <calculation>
  <scstep>
   <time name="dav">    0.06    0.06</time>
   <time name="total">    0.07    0.07</time>
   <energy>
    <i name="alphaZ">    243.62337785 </i>
    <i name="ewald">  -4395.34838493 </i>
    <i name="hartreedc">  -1260.80347107 </i>
    <i name="XCdc">    172.15449092 </i>
    <i name="pawpsdc">   6492.54400880 </i>
    <i name="pawaedc">  -6835.19461722 </i>
    <i name="eentropy">     -0.00109024 </i>
    <i name="bandstr">    142.59657832 </i>
    <i name="atom">   5524.45088734 </i>
    <i name="e_fr_energy">     84.02177978 </i>
    <i name="e_wo_entrp">     84.02287002 </i>
    <i name="e_0_energy">     84.02214320 </i>
   </energy>
  </scstep>
  <scstep>
   <time name="dav">    0.05    0.05</time>
   <time name="total">    0.06    0.06</time>
   <energy>
    <i name="e_fr_energy">     84.02231910 </i>
    <i name="e_wo_entrp">     84.02344742 </i>
    <i name="e_0_energy">     84.02269521 </i>
   </energy>
  </scstep>
  <scstep>
   <time name="dav">    0.03    0.03</time>
   <time name="total">    0.04    0.04</time>
   <energy>
    <i name="alphaZ">    243.62337785 </i>
    <i name="ewald">  -4395.34838493 </i>
    <i name="hartreedc">  -1260.80262418 </i>
    <i name="XCdc">    172.15444806 </i>
    <i name="pawpsdc">   6492.54266666 </i>
    <i name="pawaedc">  -6835.19379679 </i>
    <i name="eentropy">     -0.00112649 </i>
    <i name="bandstr">    142.59687172 </i>
    <i name="atom">   5524.45088734 </i>
    <i name="e_fr_energy">     84.02231925 </i>
    <i name="e_wo_entrp">     84.02344574 </i>
    <i name="e_0_energy">     84.02269475 </i>
   </energy>
  </scstep>
  <structure>
   <crystal>
    <varray name="basis" >
     <v>       3.63500000       0.00000000       0.00000000 </v>
     <v>       0.00000000       3.63500000       0.00000000 </v>
     <v>       0.00000000       0.00000000       3.63500000 </v>
    </varray>
    <i name="volume">     48.03007287 </i>
    <varray name="rec_basis" >
     <v>       0.27510316       0.00000000       0.00000000 </v>
     <v>       0.00000000       0.27510316       0.00000000 </v>
     <v>       0.00000000       0.00000000       0.27510316 </v>
    </varray>
   </crystal>
   <varray name="positions" >
    <v>       0.00000000       0.00000000       0.00000000 </v>
    <v>       0.50000000       0.50000000       0.00000000 </v>
    <v>       0.50000000       0.00000000       0.50000000 </v>
    <v>       0.00000000       0.50000000       0.50000000 </v>
   </varray>
  </structure>
  <varray name="forces" >
   <v>       0.00000000      -0.00000000      -0.00000000 </v>
   <v>       0.00000000       0.00000000      -0.00000000 </v>
   <v>      -0.00000000      -0.00000000       0.00000000 </v>
   <v>       0.00000000      -0.00000000       0.00000000 </v>
  </varray>
  <varray name="stress" >
   <v>  -20403.83748969       0.00000000      -0.00000000 </v>
   <v>       0.00000000  -20403.83748969       0.00000000 </v>
   <v>       0.00000000       0.00000000  -20403.83748969 </v>
  </varray>
  <energy>
   <i name="e_fr_energy">     84.02231925 </i>
   <i name="e_wo_entrp">     84.02344574 </i>
   <i name="e_0_energy">     84.02269475 </i>
  </energy>
  <time name="totalsc">    0.24    0.24</time>
  <eigenvalues>
   <array>
    <dimension dim="1">band</dimension>
    <dimension dim="2">kpoint</dimension>
    <dimension dim="3">spin</dimension>
    <field>eigene</field>
    <field>occ</field>
    <set>
     <set comment="spin 1">
      <set comment="kpoint 1">
       <r>   -1.7290    1.0000 </r>
       <r>    0.4070    1.0000 </r>
       <r>    0.4070    1.0000 </r>
       <r>    0.4070    1.0000 </r>
       <r>    0.5500    1.0000 </r>
       <r>    0.5500    1.0000 </r>
       <r>    0.5500    1.0000 </r>
       <r>    1.7046    1.0000 </r>
       <r>    1.7046    1.0000 </r>
       <r>    2.3274    1.0000 </r>
       <r>    2.3274    1.0000 </r>
       <r>    2.3274    1.0000 </r>
       <r>    6.3832    1.0000 </r>
       <r>    6.3832    1.0000 </r>
       <r>    6.3832    1.0000 </r>
       <r>    6.4300    1.0000 </r>
       <r>    6.4300    1.0000 </r>
       <r>    6.4300    1.0000 </r>
       <r>    6.4300    1.0000 </r>
       <r>    6.4300    1.0000 </r>
       <r>    6.4300    1.0000 </r>
       <r>    9.0083   -0.0000 </r>
       <r>    9.0083   -0.0000 </r>
       <r>    9.0083   -0.0000 </r>
       <r>   12.9160   -0.0000 </r>
       <r>   12.9160   -0.0000 </r>
       <r>   12.9160   -0.0000 </r>
       <r>   20.1954    0.0000 </r>
       <r>   20.1954    0.0000 </r>
       <r>   20.1954    0.0000 </r>
      </set>
      <set comment="kpoint 2">
       <r>   -1.2593    1.0000 </r>
       <r>    0.3642    1.0000 </r>
       <r>    0.5238    1.0000 </r>
       <r>    0.5238    1.0000 </r>
       <r>    1.1593    1.0000 </r>
       <r>    1.1593    1.0000 </r>
       <r>    1.5679    1.0000 </r>
       <r>    1.5679    1.0000 </r>
       <r>    1.6675    1.0000 </r>
       <r>    1.7750    1.0000 </r>
       <r>    2.2164    1.0000 </r>
       <r>    2.4649    1.0000 </r>
       <r>    3.7710    1.0000 </r>
       <r>    3.7710    1.0000 </r>
       <r>    4.6682    1.0000 </r>
       <r>    4.6682    1.0000 </r>
       <r>    5.8247    1.0000 </r>
       <r>    5.8247    1.0000 </r>
       <r>    6.4225    1.0000 </r>
       <r>    7.0244    1.0000 </r>
       <r>    9.7846   -0.0000 </r>
       <r>    9.7846   -0.0000 </r>
       <r>    9.9624   -0.0000 </r>
       <r>    9.9624   -0.0000 </r>
       <r>   13.2545   -0.0000 </r>
       <r>   13.2545   -0.0000 </r>
       <r>   16.6022    0.0000 </r>
       <r>   17.5866    0.0000 </r>
       <r>   17.5866    0.0000 </r>
       <r>   18.4212    0.0000 </r>
      </set>
      <set comment="kpoint 3">
       <r>    0.0954    1.0000 </r>
       <r>    0.9277    1.0000 </r>
       <r>    1.2152    1.0000 </r>
       <r>    1.4945    1.0000 </r>
       <r>    1.4945    1.0000 </r>
       <r>    1.7134    1.0000 </r>
       <r>    1.8602    1.0000 </r>
       <r>    1.8602    1.0000 </r>
       <r>    1.9792    1.0000 </r>
       <r>    2.2989    1.0000 </r>
       <r>    2.9888    1.0000 </r>
       <r>    2.9888    1.0000 </r>
       <r>    3.3278    1.0000 </r>
       <r>    3.3544    1.0000 </r>
       <r>    3.3544    1.0000 </r>
       <r>    3.6043    1.0000 </r>
       <r>    3.6043    1.0000 </r>
       <r>    3.8108    1.0000 </r>
       <r>    4.5697    1.0000 </r>
       <r>    4.5697    1.0000 </r>
       <r>    5.9008    1.0000 </r>
       <r>    5.9008    1.0000 </r>
       <r>   11.6764   -0.0000 </r>
       <r>   11.6764   -0.0000 </r>
       <r>   14.1711    0.0000 </r>
       <r>   14.1711    0.0000 </r>
       <r>   14.3274    0.0000 </r>
       <r>   14.3274    0.0000 </r>
       <r>   16.0239    0.0000 </r>
       <r>   16.0239    0.0000 </r>
      </set>
      <set comment="kpoint 4">
       <r>   -0.8095    1.0000 </r>
       <r>    0.5773    1.0000 </r>
       <r>    1.2371    1.0000 </r>
       <r>    1.5380    1.0000 </r>
       <r>    1.6137    1.0000 </r>
       <r>    1.6137    1.0000 </r>
       <r>    1.6836    1.0000 </r>
       <r>    1.7551    1.0000 </r>
       <r>    1.8751    1.0000 </r>
       <r>    2.0330    1.0000 </r>
       <r>    2.3115    1.0000 </r>
       <r>    2.3115    1.0000 </r>
       <r>    3.5858    1.0000 </r>
       <r>    3.5858    1.0000 </r>
       <r>    4.5304    1.0000 </r>
       <r>    4.5853    1.0000 </r>
       <r>    6.1123    1.0000 </r>
       <r>    6.1123    1.0000 </r>
       <r>    6.4108    1.0000 </r>
       <r>    6.4108    1.0000 </r>
       <r>    7.5089    1.0000 </r>
       <r>    7.5089    1.0000 </r>
       <r>    7.6758    1.0022 </r>
       <r>   10.5492   -0.0000 </r>
       <r>   13.5025   -0.0000 </r>
       <r>   14.2052    0.0000 </r>
       <r>   17.0049    0.0000 </r>
       <r>   17.0049    0.0000 </r>
       <r>   18.2127    0.0000 </r>
       <r>   18.2127    0.0000 </r>
      </set>
      <set comment="kpoint 5">
       <r>    0.5211    1.0000 </r>
       <r>    1.0028    1.0000 </r>
       <r>    1.3948    1.0000 </r>
       <r>    1.6507    1.0000 </r>
       <r>    1.8035    1.0000 </r>
       <r>    1.8434    1.0000 </r>
       <r>    1.9763    1.0000 </r>
       <r>    2.0471    1.0000 </r>
       <r>    2.1553    1.0000 </r>
       <r>    2.2715    1.0000 </r>
       <r>    2.6158    1.0000 </r>
       <r>    2.9530    1.0000 </r>
       <r>    3.0829    1.0000 </r>
       <r>    3.6721    1.0000 </r>
       <r>    3.7546    1.0000 </r>
       <r>    3.8523    1.0000 </r>
       <r>    3.9130    1.0000 </r>
       <r>    4.2082    1.0000 </r>
       <r>    4.8118    1.0000 </r>
       <r>    5.4390    1.0000 </r>
       <r>    5.5276    1.0000 </r>
       <r>    6.5858    1.0000 </r>
       <r>    8.5859   -0.0040 </r>
       <r>   10.8914   -0.0000 </r>
       <r>   12.3481   -0.0000 </r>
       <r>   14.6274    0.0000 </r>
       <r>   14.9345    0.0000 </r>
       <r>   16.3911    0.0000 </r>
       <r>   18.2078    0.0000 </r>
       <r>   19.6781    0.0000 </r>
      </set>
      <set comment="kpoint 6">
       <r>    0.8818    1.0000 </r>
       <r>    1.1439    1.0000 </r>
       <r>    1.5020    1.0000 </r>
       <r>    1.7717    1.0000 </r>
       <r>    1.7908    1.0000 </r>
       <r>    2.0090    1.0000 </r>
       <r>    2.3355    1.0000 </r>
       <r>    2.3671    1.0000 </r>
       <r>    2.3671    1.0000 </r>
       <r>    2.6842    1.0000 </r>
       <r>    2.6842    1.0000 </r>
       <r>    3.0272    1.0000 </r>
       <r>    3.0272    1.0000 </r>
       <r>    3.4073    1.0000 </r>
       <r>    3.8073    1.0000 </r>
       <r>    4.6090    1.0000 </r>
       <r>    4.6090    1.0000 </r>
       <r>    4.7761    1.0000 </r>
       <r>    5.1426    1.0000 </r>
       <r>    5.6967    1.0000 </r>
       <r>    5.6967    1.0000 </r>
       <r>    7.0474    1.0000 </r>
       <r>    7.0474    1.0000 </r>
       <r>    7.9699    1.0079 </r>
       <r>   14.0499    0.0000 </r>
       <r>   15.7437    0.0000 </r>
       <r>   16.6181    0.0000 </r>
       <r>   16.6181    0.0000 </r>
       <r>   17.7072    0.0000 </r>
       <r>   17.7072    0.0000 </r>
      </set>
      <set comment="kpoint 7">
       <r>   -0.4031    1.0000 </r>
       <r>    0.6676    1.0000 </r>
       <r>    0.6676    1.0000 </r>
       <r>    1.3285    1.0000 </r>
       <r>    1.6513    1.0000 </r>
       <r>    1.6513    1.0000 </r>
       <r>    1.6513    1.0000 </r>
       <r>    1.7655    1.0000 </r>
       <r>    1.7655    1.0000 </r>
       <r>    2.5274    1.0000 </r>
       <r>    2.5274    1.0000 </r>
       <r>    2.5274    1.0000 </r>
       <r>    2.8927    1.0000 </r>
       <r>    2.8927    1.0000 </r>
       <r>    2.8927    1.0000 </r>
       <r>    5.2841    1.0000 </r>
       <r>    5.2841    1.0000 </r>
       <r>    5.2841    1.0000 </r>
       <r>    7.8845    1.0345 </r>
       <r>    7.8845    1.0345 </r>
       <r>    7.8845    1.0345 </r>
       <r>    8.2894    0.0345 </r>
       <r>    8.2894    0.0345 </r>
       <r>    8.2894    0.0345 </r>
       <r>   14.6886    0.0000 </r>
       <r>   14.6886    0.0000 </r>
       <r>   14.6886    0.0000 </r>
       <r>   17.4229    0.0000 </r>
       <r>   17.4229    0.0000 </r>
       <r>   17.4229    0.0000 </r>
      </set>
      <set comment="kpoint 8">
       <r>    0.8818    1.0000 </r>
       <r>    0.9241    1.0000 </r>
       <r>    1.3643    1.0000 </r>
       <r>    1.3643    1.0000 </r>
       <r>    1.8269    1.0000 </r>
       <r>    2.1562    1.0000 </r>
       <r>    2.1574    1.0000 </r>
       <r>    2.1574    1.0000 </r>
       <r>    2.4560    1.0000 </r>
       <r>    2.4878    1.0000 </r>
       <r>    2.5368    1.0000 </r>
       <r>    2.5368    1.0000 </r>
       <r>    2.8382    1.0000 </r>
       <r>    3.7229    1.0000 </r>
       <r>    3.7229    1.0000 </r>
       <r>    3.7610    1.0000 </r>
       <r>    4.3055    1.0000 </r>
       <r>    4.4225    1.0000 </r>
       <r>    4.9917    1.0000 </r>
       <r>    4.9917    1.0000 </r>
       <r>    5.7578    1.0000 </r>
       <r>    8.2166    0.2212 </r>
       <r>    9.0062   -0.0000 </r>
       <r>    9.0062   -0.0000 </r>
       <r>   11.5678   -0.0000 </r>
       <r>   11.5678   -0.0000 </r>
       <r>   16.2110    0.0000 </r>
       <r>   18.5122    0.0000 </r>
       <r>   18.6240    0.0000 </r>
       <r>   18.6240    0.0000 </r>
      </set>
      <set comment="kpoint 9">
       <r>    0.9721    1.0000 </r>
       <r>    1.4896    1.0000 </r>
       <r>    1.4896    1.0000 </r>
       <r>    1.5374    1.0000 </r>
       <r>    1.7710    1.0000 </r>
       <r>    1.9376    1.0000 </r>
       <r>    1.9376    1.0000 </r>
       <r>    1.9526    1.0000 </r>
       <r>    2.3646    1.0000 </r>
       <r>    2.3646    1.0000 </r>
       <r>    2.4663    1.0000 </r>
       <r>    3.0807    1.0000 </r>
       <r>    3.4156    1.0000 </r>
       <r>    3.4156    1.0000 </r>
       <r>    3.5717    1.0000 </r>
       <r>    3.6213    1.0000 </r>
       <r>    4.1509    1.0000 </r>
       <r>    5.2317    1.0000 </r>
       <r>    5.3764    1.0000 </r>
       <r>    5.3764    1.0000 </r>
       <r>    6.0428    1.0000 </r>
       <r>    6.0428    1.0000 </r>
       <r>    6.7904    1.0000 </r>
       <r>    8.2608    0.0922 </r>
       <r>   10.8730   -0.0000 </r>
       <r>   13.0480   -0.0000 </r>
       <r>   13.0480   -0.0000 </r>
       <r>   15.3650    0.0000 </r>
       <r>   19.8407    0.0000 </r>
       <r>   21.9158    0.0000 </r>
      </set>
      <set comment="kpoint 10">
       <r>    1.2052    1.0000 </r>
       <r>    1.2052    1.0000 </r>
       <r>    1.2052    1.0000 </r>
       <r>    2.1696    1.0000 </r>
       <r>    2.6134    1.0000 </r>
       <r>    2.6134    1.0000 </r>
       <r>    2.6134    1.0000 </r>
       <r>    2.7623    1.0000 </r>
       <r>    2.7623    1.0000 </r>
       <r>    2.9707    1.0000 </r>
       <r>    2.9707    1.0000 </r>
       <r>    2.9707    1.0000 </r>
       <r>    4.8280    1.0000 </r>
       <r>    6.3753    1.0000 </r>
       <r>    6.3753    1.0000 </r>
       <r>    6.3753    1.0000 </r>
       <r>    6.7954    1.0000 </r>
       <r>    6.7954    1.0000 </r>
       <r>    6.7954    1.0000 </r>
       <r>    8.5421   -0.0085 </r>
       <r>    8.5421   -0.0085 </r>
       <r>    8.5421   -0.0085 </r>
       <r>    9.3480   -0.0000 </r>
       <r>    9.3480   -0.0000 </r>
       <r>   10.3389   -0.0000 </r>
       <r>   10.3389   -0.0000 </r>
       <r>   10.3389   -0.0000 </r>
       <r>   12.2876   -0.0000 </r>
       <r>   25.4593    0.0000 </r>
       <r>   25.4593    0.0000 </r>
      </set>
     </set>
    </set>
   </array>
  </eigenvalues>
  <separator name="orbital magnetization" >
   <v name="MAGDIPOLOUT">      0.00000000      0.00000000      0.00000000</v>
  </separator>
  <dos>
   <i name="efermi">      8.14609381 </i>
   <total>
    <array>
     <dimension dim="1">gridpoints</dimension>
     <dimension dim="2">spin</dimension>
     <field>energy</field>
     <field>total</field>
     <field>integrated</field>
     <set>
      <set comment="spin 1">
       <r>    -3.7290     0.0000     0.0000 </r>
       <r>    -3.6250     0.0000     0.0000 </r>
       <r>    -3.5210     0.0000     0.0000 </r>
       <r>    -3.4171    -0.0000    -0.0000 </r>
       <r>    -3.3131    -0.0000    -0.0000 </r>
       <r>    -3.2091    -0.0000    -0.0000 </r>
       <r>    -3.1052    -0.0000    -0.0000 </r>
       <r>    -3.0012    -0.0000    -0.0000 </r>
       <r>    -2.8973    -0.0000    -0.0000 </r>
       <r>    -2.7933    -0.0000    -0.0000 </r>
       <r>    -2.6893    -0.0000    -0.0000 </r>
       <r>    -2.5854    -0.0000    -0.0000 </r>
       <r>    -2.4814    -0.0000    -0.0000 </r>
       <r>    -2.3775    -0.0000    -0.0000 </r>
       <r>    -2.2735    -0.0001    -0.0000 </r>
       <r>    -2.1695    -0.0005    -0.0001 </r>
       <r>    -2.0656    -0.0024    -0.0003 </r>
       <r>    -1.9616    -0.0024    -0.0006 </r>
       <r>    -1.8577     0.0147     0.0010 </r>
       <r>    -1.7537     0.0504     0.0062 </r>
       <r>    -1.6497     0.0560     0.0120 </r>
       <r>    -1.5458     0.0121     0.0133 </r>
       <r>    -1.4418     0.0181     0.0152 </r>
       <r>    -1.3379     0.1876     0.0347 </r>
       <r>    -1.2339     0.3708     0.0732 </r>
       <r>    -1.1299     0.2751     0.1018 </r>
       <r>    -1.0260     0.0716     0.1093 </r>
       <r>    -0.9220     0.2234     0.1325 </r>
       <r>    -0.8180     0.6559     0.2007 </r>
       <r>    -0.7141     0.6999     0.2734 </r>
       <r>    -0.6101     0.3049     0.3051 </r>
       <r>    -0.5062     0.1883     0.3247 </r>
       <r>    -0.4022     0.4329     0.3697 </r>
       <r>    -0.2982     0.4487     0.4164 </r>
       <r>    -0.1943     0.1586     0.4328 </r>
       <r>    -0.0903     0.0039     0.4332 </r>
       <r>     0.0136     0.1402     0.4478 </r>
       <r>     0.1176     0.3008     0.4791 </r>
       <r>     0.2216     0.2351     0.5035 </r>
       <r>     0.3255     0.4104     0.5462 </r>
       <r>     0.4295     1.6322     0.7159 </r>
       <r>     0.5334     3.3453     1.0637 </r>
       <r>     0.6374     3.5312     1.4308 </r>
       <r>     0.7414     2.5530     1.6962 </r>
       <r>     0.8453     3.6018     2.0706 </r>
       <r>     0.9493     6.1745     2.7125 </r>
       <r>     1.0532     6.4263     3.3806 </r>
       <r>     1.1572     5.1337     3.9143 </r>
       <r>     1.2612     5.3923     4.4749 </r>
       <r>     1.3651     7.4585     5.2503 </r>
       <r>     1.4691    10.2214     6.3129 </r>
       <r>     1.5731    12.1066     7.5715 </r>
       <r>     1.6770    13.1037     8.9338 </r>
       <r>     1.7810    14.6017    10.4518 </r>
       <r>     1.8849    15.4962    12.0628 </r>
       <r>     1.9889    14.1346    13.5322 </r>
       <r>     2.0929    11.9777    14.7775 </r>
       <r>     2.1968    11.0932    15.9307 </r>
       <r>     2.3008    11.7164    17.1488 </r>
       <r>     2.4047    13.3257    18.5341 </r>
       <r>     2.5087    14.2525    20.0158 </r>
       <r>     2.6127    12.2076    21.2849 </r>
       <r>     2.7166     7.9456    22.1110 </r>
       <r>     2.8206     5.6482    22.6981 </r>
       <r>     2.9245     7.1211    23.4385 </r>
       <r>     3.0285     8.7950    24.3528 </r>
       <r>     3.1325     6.7674    25.0563 </r>
       <r>     3.2364     3.1427    25.3831 </r>
       <r>     3.3404     2.7199    25.6658 </r>
       <r>     3.4443     4.9404    26.1794 </r>
       <r>     3.5483     7.3347    26.9419 </r>
       <r>     3.6523    10.4585    28.0292 </r>
       <r>     3.7562    12.6692    29.3463 </r>
       <r>     3.8602    10.5405    30.4421 </r>
       <r>     3.9641     5.3962    31.0031 </r>
       <r>     4.0681     2.1681    31.2285 </r>
       <r>     4.1721     2.6050    31.4993 </r>
       <r>     4.2760     3.8065    31.8951 </r>
       <r>     4.3800     3.7925    32.2893 </r>
       <r>     4.4840     3.8566    32.6903 </r>
       <r>     4.5879     4.6485    33.1735 </r>
       <r>     4.6919     4.8157    33.6742 </r>
       <r>     4.7958     4.2105    34.1119 </r>
       <r>     4.8998     3.9086    34.5182 </r>
       <r>     5.0038     3.8201    34.9154 </r>
       <r>     5.1077     3.4336    35.2723 </r>
       <r>     5.2117     3.7787    35.6652 </r>
       <r>     5.3156     5.5291    36.2400 </r>
       <r>     5.4196     6.5809    36.9241 </r>
       <r>     5.5236     5.3125    37.4764 </r>
       <r>     5.6275     3.5685    37.8474 </r>
       <r>     5.7315     3.3673    38.1975 </r>
       <r>     5.8354     3.5580    38.5674 </r>
       <r>     5.9394     3.5697    38.9385 </r>
       <r>     6.0434     4.3130    39.3869 </r>
       <r>     6.1473     4.1441    39.8177 </r>
       <r>     6.2513     2.7128    40.0997 </r>
       <r>     6.3552     2.9519    40.4066 </r>
       <r>     6.4592     4.0718    40.8299 </r>
       <r>     6.5632     3.4893    41.1927 </r>
       <r>     6.6671     2.6128    41.4643 </r>
       <r>     6.7711     2.9653    41.7726 </r>
       <r>     6.8751     3.1308    42.0981 </r>
       <r>     6.9790     2.4981    42.3578 </r>
       <r>     7.0830     1.9922    42.5649 </r>
       <r>     7.1869     1.1598    42.6855 </r>
       <r>     7.2909     0.2119    42.7075 </r>
       <r>     7.3949     0.3240    42.7412 </r>
       <r>     7.4988     1.2891    42.8752 </r>
       <r>     7.6028     1.7571    43.0578 </r>
       <r>     7.7067     1.4374    43.2073 </r>
       <r>     7.8107     1.4595    43.3590 </r>
       <r>     7.9147     1.9461    43.5613 </r>
       <r>     8.0186     1.7822    43.7466 </r>
       <r>     8.1226     1.8301    43.9369 </r>
       <r>     8.2265     3.4497    44.2955 </r>
       <r>     8.3305     4.2580    44.7382 </r>
       <r>     8.4345     3.1073    45.0612 </r>
       <r>     8.5384     2.7209    45.3441 </r>
       <r>     8.6424     2.6854    45.6233 </r>
       <r>     8.7463     1.2814    45.7565 </r>
       <r>     8.8503     0.5276    45.8113 </r>
       <r>     8.9543     1.9694    46.0161 </r>
       <r>     9.0582     3.2140    46.3502 </r>
       <r>     9.1622     2.1659    46.5754 </r>
       <r>     9.2661     0.8832    46.6672 </r>
       <r>     9.3701     0.8325    46.7537 </r>
       <r>     9.4741     0.7108    46.8276 </r>
       <r>     9.5780     0.2116    46.8496 </r>
       <r>     9.6820     0.2018    46.8706 </r>
       <r>     9.7860     0.7106    46.9445 </r>
       <r>     9.8899     1.0899    47.0578 </r>
       <r>     9.9939     0.9838    47.1601 </r>
       <r>    10.0978     0.5114    47.2132 </r>
       <r>    10.2018     0.3930    47.2541 </r>
       <r>    10.3058     1.0921    47.3676 </r>
       <r>    10.4097     1.6428    47.5384 </r>
       <r>    10.5137     1.3265    47.6763 </r>
       <r>    10.6176     0.7121    47.7503 </r>
       <r>    10.7216     0.6757    47.8206 </r>
       <r>    10.8256     1.9493    48.0232 </r>
       <r>    10.9295     3.0728    48.3427 </r>
       <r>    11.0335     2.0738    48.5583 </r>
       <r>    11.1374     0.3920    48.5990 </r>
       <r>    11.2414    -0.2808    48.5698 </r>
       <r>    11.3454    -0.2049    48.5485 </r>
       <r>    11.4493     0.8189    48.6337 </r>
       <r>    11.5533     2.8209    48.9269 </r>
       <r>    11.6572     3.6018    49.3014 </r>
       <r>    11.7612     2.0911    49.5188 </r>
       <r>    11.8652     0.3952    49.5599 </r>
       <r>    11.9691    -0.1873    49.5404 </r>
       <r>    12.0731    -0.1779    49.5219 </r>
       <r>    12.1771     0.2535    49.5482 </r>
       <r>    12.2810     1.3238    49.6859 </r>
       <r>    12.3850     2.0320    49.8971 </r>
       <r>    12.4889     1.3355    50.0360 </r>
       <r>    12.5929     0.2470    50.0616 </r>
       <r>    12.6969    -0.1962    50.0412 </r>
       <r>    12.8008    -0.1479    50.0259 </r>
       <r>    12.9048     0.6477    50.0932 </r>
       <r>    13.0087     2.3807    50.3407 </r>
       <r>    13.1127     3.3105    50.6849 </r>
       <r>    13.2167     2.3145    50.9255 </r>
       <r>    13.3206     1.0420    51.0338 </r>
       <r>    13.4246     0.6643    51.1029 </r>
       <r>    13.5285     0.7462    51.1804 </r>
       <r>    13.6325     0.5505    51.2377 </r>
       <r>    13.7365     0.1091    51.2490 </r>
       <r>    13.8404    -0.0946    51.2392 </r>
       <r>    13.9444     0.1588    51.2557 </r>
       <r>    14.0483     0.9412    51.3535 </r>
       <r>    14.1523     1.8852    51.5495 </r>
       <r>    14.2563     2.1756    51.7757 </r>
       <r>    14.3602     1.4873    51.9303 </r>
       <r>    14.4642     0.7591    52.0092 </r>
       <r>    14.5682     1.3804    52.1527 </r>
       <r>    14.6721     2.7136    52.4349 </r>
       <r>    14.7761     2.6998    52.7155 </r>
       <r>    14.8800     1.8877    52.9118 </r>
       <r>    14.9840     1.4881    53.0665 </r>
       <r>    15.0880     0.8276    53.1525 </r>
       <r>    15.1919     0.2640    53.1800 </r>
       <r>    15.2959     0.7663    53.2596 </r>
       <r>    15.3998     1.4775    53.4132 </r>
       <r>    15.5038     1.1131    53.5289 </r>
       <r>    15.6078     0.4285    53.5735 </r>
       <r>    15.7117     0.4828    53.6237 </r>
       <r>    15.8157     0.6839    53.6948 </r>
       <r>    15.9196     0.5905    53.7562 </r>
       <r>    16.0236     0.7502    53.8342 </r>
       <r>    16.1276     1.3030    53.9696 </r>
       <r>    16.2315     1.8884    54.1660 </r>
       <r>    16.3355     2.1356    54.3880 </r>
       <r>    16.4394     2.0300    54.5990 </r>
       <r>    16.5434     2.0080    54.8078 </r>
       <r>    16.6474     2.0239    55.0182 </r>
       <r>    16.7513     1.3026    55.1536 </r>
       <r>    16.8553     0.5539    55.2112 </r>
       <r>    16.9592     0.9652    55.3115 </r>
       <r>    17.0632     1.4512    55.4624 </r>
       <r>    17.1672     0.8495    55.5507 </r>
       <r>    17.2711     0.3098    55.5829 </r>
       <r>    17.3751     0.8945    55.6759 </r>
       <r>    17.4791     1.7327    55.8560 </r>
       <r>    17.5830     2.0439    56.0685 </r>
       <r>    17.6870     2.1419    56.2912 </r>
       <r>    17.7909     1.6765    56.4655 </r>
       <r>    17.8949     0.5424    56.5219 </r>
       <r>    17.9989    -0.0500    56.5167 </r>
       <r>    18.1028     0.9036    56.6106 </r>
       <r>    18.2068     2.6231    56.8833 </r>
       <r>    18.3107     2.8362    57.1782 </r>
       <r>    18.4147     2.0604    57.3924 </r>
       <r>    18.5187     2.8627    57.6900 </r>
       <r>    18.6226     4.1715    58.1236 </r>
       <r>    18.7266     3.2807    58.4647 </r>
       <r>    18.8305     1.0643    58.5754 </r>
       <r>    18.9345    -0.0940    58.5656 </r>
       <r>    19.0385    -0.1590    58.5491 </r>
       <r>    19.1424    -0.0448    58.5444 </r>
       <r>    19.2464    -0.0210    58.5422 </r>
       <r>    19.3503    -0.0668    58.5353 </r>
       <r>    19.4543    -0.0763    58.5273 </r>
       <r>    19.5583     0.3414    58.5628 </r>
       <r>    19.6622     1.3814    58.7064 </r>
       <r>    19.7662     2.2896    58.9445 </r>
       <r>    19.8702     2.2095    59.1742 </r>
       <r>    19.9741     1.2235    59.3014 </r>
       <r>    20.0781     0.3016    59.3327 </r>
       <r>    20.1820     0.0767    59.3407 </r>
       <r>    20.2860     0.1267    59.3539 </r>
       <r>    20.3900     0.0704    59.3612 </r>
       <r>    20.4939     0.0015    59.3614 </r>
       <r>    20.5979    -0.0094    59.3604 </r>
       <r>    20.7018    -0.0031    59.3600 </r>
       <r>    20.8058    -0.0004    59.3600 </r>
       <r>    20.9098    -0.0000    59.3600 </r>
       <r>    21.0137    -0.0000    59.3600 </r>
       <r>    21.1177    -0.0000    59.3600 </r>
       <r>    21.2216    -0.0000    59.3600 </r>
       <r>    21.3256    -0.0004    59.3600 </r>
       <r>    21.4296    -0.0053    59.3594 </r>
       <r>    21.5335    -0.0331    59.3560 </r>
       <r>    21.6375    -0.0796    59.3477 </r>
       <r>    21.7414     0.0955    59.3576 </r>
       <r>    21.8454     0.8412    59.4451 </r>
       <r>    21.9494     1.5448    59.6057 </r>
       <r>    22.0533     1.1661    59.7269 </r>
       <r>    22.1573     0.2954    59.7576 </r>
       <r>    22.2612    -0.0666    59.7507 </r>
       <r>    22.3652    -0.0519    59.7453 </r>
       <r>    22.4692    -0.0111    59.7441 </r>
       <r>    22.5731    -0.0011    59.7440 </r>
       <r>    22.6771    -0.0001    59.7440 </r>
       <r>    22.7811    -0.0000    59.7440 </r>
       <r>    22.8850    -0.0000    59.7440 </r>
       <r>    22.9890    -0.0000    59.7440 </r>
       <r>    23.0929    -0.0000    59.7440 </r>
       <r>    23.1969    -0.0000    59.7440 </r>
       <r>    23.3009     0.0000    59.7440 </r>
       <r>    23.4048     0.0000    59.7440 </r>
       <r>    23.5088     0.0000    59.7440 </r>
       <r>    23.6127     0.0000    59.7440 </r>
       <r>    23.7167     0.0000    59.7440 </r>
       <r>    23.8207    -0.0000    59.7440 </r>
       <r>    23.9246    -0.0000    59.7440 </r>
       <r>    24.0286    -0.0000    59.7440 </r>
       <r>    24.1325    -0.0000    59.7440 </r>
       <r>    24.2365    -0.0000    59.7440 </r>
       <r>    24.3405    -0.0000    59.7440 </r>
       <r>    24.4444    -0.0000    59.7440 </r>
       <r>    24.5484    -0.0000    59.7440 </r>
       <r>    24.6523    -0.0000    59.7440 </r>
       <r>    24.7563    -0.0000    59.7440 </r>
       <r>    24.8603    -0.0002    59.7440 </r>
       <r>    24.9642    -0.0029    59.7437 </r>
       <r>    25.0682    -0.0195    59.7416 </r>
       <r>    25.1722    -0.0522    59.7362 </r>
       <r>    25.2761     0.0402    59.7404 </r>
       <r>    25.3801     0.5078    59.7932 </r>
       <r>    25.4840     1.0136    59.8986 </r>
       <r>    25.5880     0.8244    59.9843 </r>
       <r>    25.6920     0.2370    60.0089 </r>
       <r>    25.7959    -0.0383    60.0049 </r>
       <r>    25.8999    -0.0378    60.0010 </r>
       <r>    26.0038    -0.0087    60.0001 </r>
       <r>    26.1078    -0.0009    60.0000 </r>
       <r>    26.2118    -0.0001    60.0000 </r>
       <r>    26.3157    -0.0000    60.0000 </r>
       <r>    26.4197    -0.0000    60.0000 </r>
       <r>    26.5236    -0.0000    60.0000 </r>
       <r>    26.6276    -0.0000    60.0000 </r>
       <r>    26.7316    -0.0000    60.0000 </r>
       <r>    26.8355     0.0000    60.0000 </r>
       <r>    26.9395     0.0000    60.0000 </r>
       <r>    27.0434     0.0000    60.0000 </r>
       <r>    27.1474     0.0000    60.0000 </r>
       <r>    27.2514     0.0000    60.0000 </r>
       <r>    27.3553     0.0000    60.0000 </r>
       <r>    27.4593     0.0000    60.0000 </r>
      </set>
     </set>
    </array>
   </total>
  </dos>
 </calculation>
 <structure name="finalpos" >
  <crystal>
   <varray name="basis" >
    <v>       3.63500000       0.00000000       0.00000000 </v>
    <v>       0.00000000       3.63500000       0.00000000 </v>
    <v>       0.00000000       0.00000000       3.63500000 </v>
   </varray>
   <i name="volume">     48.03007287 </i>
   <varray name="rec_basis" >
    <v>       0.27510316       0.00000000       0.00000000 </v>
    <v>       0.00000000       0.27510316       0.00000000 </v>
    <v>       0.00000000       0.00000000       0.27510316 </v>
   </varray>
  </crystal>
  <varray name="positions" >
   <v>       0.00000000       0.00000000       0.00000000 </v>
   <v>       0.50000000       0.50000000       0.00000000 </v>
   <v>       0.50000000       0.00000000       0.50000000 </v>
   <v>       0.00000000       0.50000000       0.50000000 </v>
  </varray>
 </structure>
</modeling>
