unknown system                          
   1.00000000000000     
     2.330000    0.000000    0.000000
    -1.165000    2.017839    0.000000
     0.000000    0.000000    4.100000
   Fe
     2
Direct
  0.000000  0.000000  0.000000
  0.333333  0.666667  0.500000
 
   20   20   32
  161.96      153.48      130.64      99.938      68.672      42.446      24.128      13.937      9.9086      8.7735    
  8.4168      8.7736      9.9086      13.937      24.128      42.446      68.672      99.938      130.64      153.48    
  153.48      153.48      137.85      111.26      80.679      52.540      30.990      17.495      11.107      9.0920    
  8.4165      8.4162      9.0917      11.107      17.494      30.988      52.538      80.683      111.27      137.87    
  130.65      137.84      130.64      111.26      85.122      58.463      36.179      20.829      12.546      9.4220    
  8.4453      8.1106      8.4446      9.4220      12.547      20.828      36.175      58.460      85.125      111.27    
  99.934      111.20      111.20      99.938      80.679      58.462      38.112      22.849      13.740      9.7789    
  8.4910      7.8959      7.8956      8.4907      9.7798      13.742      22.849      38.109      58.457      80.673    
  68.660      80.589      85.002      80.598      68.672      52.540      36.179      22.849      14.204      10.025    
  8.5330      7.7754      7.5123      7.7752      8.5330      10.026      14.207      22.853      36.179      52.533    
  42.444      52.466      58.335      58.338      52.472      42.445      30.990      20.830      13.740      10.025    
  8.5500      7.7262      7.3003      7.3005      7.7259      8.5486      10.025      13.744      20.837      30.996    
  24.137      30.969      36.110      38.020      36.106      30.961      24.128      17.495      12.547      9.7790    
  8.5330      7.7262      7.2345      7.0748      7.2351      7.7251      8.5292      9.7752      12.547      17.501    
  13.937      17.510      20.835      22.835      22.831      20.826      17.503      13.937      11.108      9.4221    
  8.4910      7.7753      7.3002      7.0748      7.0756      7.3018      7.7751      8.4869      9.4149      11.101    
  9.8994      11.129      12.590      13.790      14.253      13.788      12.590      11.135      9.9088      9.0921    
  8.4452      7.8958      7.5122      7.3004      7.2350      7.3018      7.5155      7.8996      8.4452      9.0859    
  8.7733      9.1173      9.4732      9.8514      10.109      10.111      9.8560      9.4802      9.1231      8.7734    
  8.4163      8.1104      7.8955      7.7752      7.7259      7.7250      7.7750      7.8996      8.1181      8.4224    
  8.4254      8.4545      8.5066      8.5717      8.6287      8.6532      8.6325      8.5754      8.5060      8.4482    
  8.4165      8.4160      8.4446      8.4908      8.5330      8.5486      8.5292      8.4870      8.4453      8.4224    
  8.7733      8.4545      8.1807      7.9886      7.8839      7.8446      7.8454      7.8841      7.9846      8.1732    
  8.4485      8.7735      9.0918      9.4222      9.7800      10.026      10.025      9.7752      9.4150      9.0859    
  9.8994      9.1172      8.5066      7.9886      7.6280      7.4307      7.3700      7.4295      7.6249      7.9849    
  8.5065      9.1234      9.9088      11.108      12.547      13.742      14.207      13.744      12.547      11.101    
  13.937      11.129      9.4732      8.5716      7.8839      7.4307      7.2164      7.2157      7.4293      7.8842    
  8.5755      9.4801      11.135      13.937      17.494      20.828      22.848      22.852      20.837      17.501    
  24.137      17.510      12.590      9.8514      8.6287      7.8447      7.3701      7.2157      7.3694      7.8457    
  8.6325      9.8551      12.589      17.504      24.128      30.988      36.175      38.109      36.179      30.996    
  42.444      30.969      20.835      13.790      10.109      8.6533      7.8455      7.4295      7.4293      7.8457    
  8.6546      10.109      13.786      20.827      30.963      42.445      52.538      58.460      58.457      52.533    
  68.660      52.466      36.110      22.835      14.253      10.111      8.6324      7.8840      7.6249      7.8842    
  8.6324      10.109      14.250      22.832      36.110      52.473      68.672      80.683      85.125      80.673    
  99.934      80.588      58.335      38.020      22.832      13.788      9.8559      8.5753      7.9847      7.9850    
  8.5755      9.8550      13.786      22.832      38.023      58.340      80.594      99.938      111.27      111.27    
  130.65      111.20      85.002      58.338      36.106      20.826      12.590      9.4801      8.5060      8.1733    
  8.5066      9.4800      12.589      20.827      36.110      58.340      84.998      111.19      130.64      137.87    
  153.48      137.84      111.20      80.598      52.472      30.961      17.503      11.135      9.1230      8.4484    
  8.4487      9.1234      11.135      17.504      30.963      52.474      80.594      111.19      137.82      153.48    
  151.68      143.76      122.41      93.656      64.339      39.766      22.690      13.303      9.6665      8.6073    
  8.2610      8.6074      9.6666      13.303      22.690      39.766      64.339      93.656      122.41      143.75    
  143.76      143.76      129.15      104.26      75.589      49.202      29.055      16.546      10.725      8.9060    
  8.2497      8.2494      8.9057      10.725      16.545      29.053      49.201      75.593      104.27      129.16    
  122.42      129.14      122.41      104.26      79.751      54.744      33.883      19.607      12.009      9.1976    
  8.2716      7.9484      8.2708      9.1976      12.010      19.606      33.879      54.742      79.754      104.27    
  93.652      104.22      104.22      93.656      75.589      54.744      35.684      21.467      13.083      9.5058    
  8.3133      7.7397      7.7393      8.3130      9.5066      13.085      21.467      35.681      54.739      75.584    
  64.327      75.525      79.668      75.534      64.338      49.202      33.882      21.467      13.502      9.7189    
  8.3531      7.6235      7.3721      7.6234      8.3531      9.7199      13.505      21.471      33.883      49.195    
  39.764      49.160      54.668      54.671      49.165      39.765      29.054      19.607      13.083      9.7190    
  8.3695      7.5765      7.1705      7.1707      7.5763      8.3682      9.7186      13.087      19.614      29.059    
  22.698      29.064      33.871      35.659      33.867      29.058      22.690      16.546      12.010      9.5060    
  8.3532      7.5765      7.1081      6.9567      7.1087      7.5755      8.3496      9.5024      12.010      16.551    
  13.303      16.590      19.668      21.527      21.523      19.661      16.584      13.304      10.725      9.1978    
  8.3133      7.6235      7.1704      6.9567      6.9575      7.1718      7.6233      8.3095      9.1911      10.720    
  9.6580      10.775      12.107      13.207      13.632      13.205      12.107      10.781      9.6667      8.9060    
  8.2714      7.7395      7.3720      7.1706      7.1087      7.1718      7.3750      7.7430      8.2714      8.9002    
  8.6070      8.9586      9.3018      9.6519      9.8884      9.8897      9.6561      9.3083      8.9639      8.6072    
  8.2494      7.9482      7.7392      7.6234      7.5763      7.5755      7.6232      7.7430      7.9554      8.2551    
  8.2690      8.3138      8.3850      8.4684      8.5387      8.5679      8.5421      8.4718      8.3843      8.3080    
  8.2607      8.2491      8.2709      8.3131      8.3532      8.3682      8.3496      8.3096      8.2716      8.2551    
  8.6070      8.3138      8.0700      7.9069      7.8249      7.7979      7.7986      7.8250      7.9032      8.0629    
  8.3083      8.6072      8.9058      9.1979      9.5068      9.7200      9.7186      9.5025      9.1913      8.9003    
  9.6579      8.9585      8.3849      7.9068      7.5814      7.4076      7.3552      7.4066      7.5786      7.9035    
  8.3849      8.9643      9.6667      10.726      12.010      13.085      13.505      13.087      12.010      10.720    
  13.303      10.775      9.3017      8.4683      7.8248      7.4077      7.2130      7.2123      7.4064      7.8251    
  8.4720      9.3082      10.781      13.304      16.545      19.606      21.467      21.470      19.613      16.551    
  22.698      16.590      12.107      9.6518      8.5387      7.7980      7.3553      7.2123      7.3546      7.7988    
  8.5421      9.6553      12.107      16.585      22.690      29.052      33.879      35.681      33.883      29.059    
  39.764      29.065      19.668      13.207      9.8884      8.5679      7.7987      7.4066      7.4064      7.7988    
  8.5692      9.8887      13.203      19.662      29.059      39.765      49.200      54.742      54.739      49.195    
  64.327      49.160      33.871      21.527      13.632      9.8896      8.5421      7.8250      7.5786      7.8251    
  8.5421      9.8887      13.629      21.523      33.871      49.167      64.338      75.593      79.755      75.584    
  93.652      75.525      54.668      35.659      21.523      13.205      9.6559      8.4717      7.9033      7.9036    
  8.4720      9.6552      13.203      21.523      35.662      54.673      75.530      93.656      104.27      104.27    
  122.42      104.22      79.668      54.671      33.868      19.661      12.107      9.3081      8.3844      8.0631    
  8.3850      9.3081      12.106      19.662      33.871      54.673      79.665      104.21      122.41      129.16    
  143.76      129.14      104.22      75.534      49.166      29.058      16.584      10.781      8.9639      8.3082    
  8.3085      8.9643      10.780      16.585      29.060      49.167      75.531      104.21      129.13      143.76    
  124.54      118.08      100.61      76.990      52.851      32.714      18.976      11.718      9.0597      8.1606    
  7.8461      8.1607      9.0597      11.718      18.976      32.714      52.851      76.990      100.61      118.08    
  118.08      118.08      106.13      85.694      62.081      40.380      24.005      14.133      9.7796      8.4062    
  7.8064      7.8061      8.4059      9.7798      14.133      24.004      40.379      62.084      85.702      106.14    
  100.62      106.13      100.61      85.694      65.497      44.900      27.861      16.466      10.670      8.6225    
  7.8064      7.5173      7.8057      8.6224      10.671      16.465      27.859      44.898      65.500      85.701    
  76.987      85.697      85.698      76.990      62.081      44.900      29.307      17.901      11.433      8.8185    
  7.8322      7.3212      7.3208      7.8318      8.8190      11.434      17.901      29.304      44.896      62.077    
  52.842      62.092      65.516      62.099      52.850      40.380      27.861      17.902      11.735      8.9520    
  7.8620      7.2134      6.9944      7.2134      7.8620      8.9527      11.737      17.904      27.861      40.375    
  32.713      40.427      44.966      44.968      40.430      32.714      24.004      16.466      11.433      8.9521    
  7.8749      7.1699      6.8183      6.8185      7.1699      7.8740      8.9518      11.436      16.472      24.009    
  18.982      24.100      28.005      29.464      28.002      24.095      18.976      14.133      10.670      8.8188    
  7.8621      7.1699      6.7642      6.6350      6.7648      7.1693      7.8594      8.8159      10.671      14.137    
  11.718      14.255      16.676      18.153      18.151      16.670      14.250      11.719      9.7800      8.6227    
  7.8323      7.2133      6.8181      6.6349      6.6355      6.8192      7.2131      7.8292      8.6174      9.7753    
  9.0529      9.9004      10.904      11.742      12.068      11.740      10.904      9.9052      9.0600      8.4063    
  7.8062      7.3210      6.9942      6.8184      6.7648      6.8192      6.9965      7.3237      7.8062      8.4016    
  8.1604      8.5248      8.8543      9.1414      9.3259      9.3269      9.1447      8.8594      8.5291      8.1605    
  7.8060      7.5170      7.3207      7.2133      7.1699      7.1693      7.2131      7.3237      7.5228      7.8106    
  7.8523      7.9321      8.0412      8.1589      8.2527      8.2899      8.2553      8.1615      8.0405      7.9273    
  7.8456      7.8057      7.8057      7.8320      7.8621      7.8740      7.8594      7.8293      7.8064      7.8107    
  8.1604      7.9320      7.7569      7.6554      7.6182      7.6143      7.6149      7.6184      7.6524      7.7513    
  7.9275      8.1605      8.4060      8.6227      8.8193      8.9528      8.9518      8.8159      8.6175      8.4017    
  9.0528      8.5247      8.0411      7.6553      7.4058      7.2804      7.2443      7.2797      7.4038      7.6527    
  8.0411      8.5294      9.0600      9.7802      10.671      11.434      11.737      11.436      10.671      9.7753    
  11.718      9.9003      8.8543      8.1588      7.6182      7.2804      7.1275      7.1270      7.2794      7.6184    
  8.1617      8.8594      9.9049      11.719      14.133      16.465      17.901      17.904      16.471      14.137    
  18.982      14.255      10.904      9.1413      8.2527      7.6144      7.2445      7.1270      7.2438      7.6150    
  8.2553      9.1441      10.903      14.250      18.976      24.003      27.859      29.304      27.861      24.009    
  32.713      24.100      16.676      11.742      9.3259      8.2899      7.6151      7.2798      7.2795      7.6150    
  8.2908      9.3262      11.739      16.670      24.096      32.714      40.379      44.898      44.896      40.375    
  52.842      40.427      28.005      18.153      12.068      9.3268      8.2552      7.6184      7.4038      7.6185    
  8.2553      9.3261      12.066      18.151      28.005      40.431      52.850      62.084      65.500      62.077    
  76.987      62.091      44.966      29.464      18.151      11.740      9.1444      8.1613      7.6525      7.6528    
  8.1617      9.1439      11.739      18.151      29.467      44.970      62.096      76.990      85.702      85.701    
  100.62      85.696      65.515      44.968      28.003      16.670      10.904      8.8592      8.0406      7.7515    
  8.0412      8.8592      10.903      16.670      28.005      44.970      65.513      85.690      100.61      106.14    
  118.08      106.13      85.697      62.098      40.431      24.095      14.250      9.9048      8.5290      7.9275    
  7.9279      8.5293      9.9046      14.250      24.096      40.432      62.096      85.690      106.12      118.08    
  89.556      84.927      72.384      55.367      38.025      23.795      14.474      9.9150      8.3194      7.5639    
  7.3008      7.5640      8.3195      9.9150      14.474      23.795      38.025      55.367      72.384      84.927    
  84.929      84.927      76.338      61.607      44.587      29.098      17.746      11.305      8.7059      7.7291    
  7.2243      7.2240      7.7288      8.7062      11.305      17.746      29.098      44.588      61.611      76.343    
  72.388      76.365      72.384      61.607      47.022      32.255      20.313      12.706      9.1489      7.8763    
  7.1870      6.9506      7.1863      7.8761      9.1495      12.706      20.311      32.254      47.023      61.611    
  55.366      61.674      61.674      55.368      44.587      32.255      21.284      13.590      9.5395      7.9817    
  7.1797      6.7641      6.7638      7.1793      7.9819      9.5401      13.590      21.282      32.252      44.584    
  38.020      44.700      47.180      44.704      38.025      29.098      20.312      13.590      9.6975      8.0394    
  7.1862      6.6589      6.4860      6.6589      7.1862      8.0397      9.6986      13.591      20.313      29.095    
  23.794      29.263      32.513      32.515      29.265      23.794      17.746      12.706      9.5398      8.0395    
  7.1907      6.6147      6.3381      6.3384      6.6150      7.1902      8.0392      9.5414      12.710      17.749    
  14.478      17.952      20.660      21.681      20.658      17.949      14.474      11.305      9.1494      7.9820    
  7.1864      6.6147      6.2929      6.1925      6.2935      6.6145      7.1846      7.9801      9.1495      11.308    
  9.9147      11.523      13.103      14.085      14.083      13.099      11.520      9.9153      8.7063      7.8766    
  7.1798      6.6588      6.3379      6.1924      6.1927      6.3386      6.6586      7.1778      7.8730      8.7031    
  8.3149      8.9119      9.5473      10.072      10.277      10.071      9.5476      8.9153      8.3198      7.7292    
  7.1868      6.7639      6.4858      6.3382      6.2934      6.3386      6.4871      6.7656      7.1868      7.7260    
  7.5638      7.9240      8.2554      8.5076      8.6471      8.6476      8.5096      8.2587      7.9268      7.5637    
  7.2238      6.9503      6.7637      6.6589      6.6150      6.6145      6.6586      6.7656      6.9542      7.2270    
  7.3050      7.4184      7.5554      7.6925      7.7965      7.8362      7.7981      7.6940      7.5548      7.4150    
  7.3003      7.2236      7.1863      7.1795      7.1864      7.1902      7.1846      7.1779      7.1870      7.2271    
  7.5637      7.4183      7.3176      7.2719      7.2687      7.2796      7.2801      7.2689      7.2699      7.3137    
  7.4153      7.5638      7.7290      7.8765      7.9822      8.0398      8.0392      7.9802      7.8732      7.7261    
  8.3148      7.9239      7.5553      7.2718      7.0961      7.0120      6.9891      7.0118      7.0949      7.2701    
  7.5553      7.9270      8.3198      8.7066      9.1498      9.5402      9.6985      9.5413      9.1494      8.7031    
  9.9147      8.9119      8.2554      7.6923      7.2686      7.0121      6.8986      6.8983      7.0115      7.2688    
  7.6942      8.2588      8.9150      9.9153      11.305      12.706      13.589      13.591      12.710      11.308    
  14.478      11.523      9.5473      8.5076      7.7964      7.2797      6.9892      6.8984      6.9886      7.2798    
  7.7981      8.5094      9.5471      11.520      14.474      17.746      20.311      21.282      20.313      17.749    
  23.794      17.953      13.103      10.072      8.6471      7.8362      7.2801      7.0119      7.0116      7.2798    
  7.8367      8.6474      10.070      13.099      17.949      23.794      29.097      32.254      32.252      29.095    
  38.020      29.263      20.660      14.085      10.277      8.6475      7.7980      7.2689      7.0950      7.2689    
  7.7980      8.6473      10.276      14.083      20.660      29.266      38.025      44.589      47.023      44.584    
  55.366      44.699      32.513      21.681      14.083      10.071      8.5093      7.6938      7.2701      7.2703    
  7.6942      8.5091      10.070      14.083      21.683      32.516      44.702      55.368      61.612      61.611    
  72.388      61.673      47.179      32.515      20.658      13.099      9.5473      8.2584      7.5548      7.3141    
  7.5554      8.2585      9.5467      13.099      20.660      32.516      47.178      61.669      72.384      76.344    
  84.929      76.365      61.674      44.704      29.265      17.949      11.520      8.9149      7.9266      7.4154    
  7.4157      7.9270      8.9147      11.520      17.950      29.266      44.703      61.669      76.359      84.927    
  56.297      53.390      45.516      34.887      24.236      15.843      10.760      8.5278      7.5608      6.9645    
  6.7656      6.9645      7.5608      8.5278      10.760      15.843      24.236      34.887      45.516      53.390    
  53.391      53.390      47.981      38.730      28.162      18.823      12.381      9.0827      7.7857      7.0323    
  6.6487      6.6485      7.0321      7.7860      9.0833      12.381      18.823      28.163      38.732      47.983    
  45.518      48.031      45.517      38.730      29.631      20.633      13.706      9.6667      7.9482      7.0931    
  6.5637      6.3895      6.5632      7.0929      7.9487      9.6671      13.705      20.632      29.631      38.731    
  34.886      38.857      38.858      34.887      28.162      20.633      14.217      10.050      8.0652      7.1350    
  6.5100      6.2043      6.2041      6.5096      7.1350      8.0655      10.050      14.216      20.631      28.160    
  24.234      28.370      29.918      28.372      24.236      18.823      13.705      10.050      8.1118      7.1554    
  6.4821      6.0919      5.9682      6.0920      6.4821      7.1554      8.1121      10.051      13.706      18.822    
  15.843      19.095      21.066      21.067      19.096      15.842      12.380      9.6668      8.0655      7.1555    
  6.4739      6.0407      5.8410      5.8413      6.0411      6.4737      7.1553      8.0662      9.6689      12.382    
  10.762      12.686      14.236      14.831      14.236      12.684      10.760      9.0829      7.9486      7.1353    
  6.4823      6.0407      5.8017      5.7286      5.8022      6.0407      6.4815      7.1344      7.9487      9.0844    
  8.5275      9.3885      10.232      10.765      10.764      10.231      9.3875      8.5281      7.7862      7.0934    
  6.5101      6.0918      5.8409      5.7285      5.7287      5.8411      6.0917      6.5090      7.0915      7.7843    
  7.5583      8.0717      8.4994      8.8046      8.9188      8.8041      8.4998      8.0738      7.5611      7.0324    
  6.5636      6.2042      5.9679      5.8412      5.8021      5.8411      5.9684      6.2049      6.5636      7.0307    
  6.9643      7.3007      7.6140      7.8559      7.9875      7.9877      7.8568      7.6156      7.3022      6.9643    
  6.6483      6.3892      6.2040      6.0919      6.0411      6.0408      6.0917      6.2050      6.3913      6.6501    
  6.7677      6.9099      7.0633      7.2059      7.3092      7.3475      7.3099      7.2065      7.0628      6.9080    
  6.7652      6.6482      6.5632      6.5097      6.4823      6.4738      6.4815      6.5091      6.5637      6.6501    
  6.9643      6.9099      6.8826      6.8861      6.9090      6.9296      6.9299      6.9092      6.8851      6.8805    
  6.9082      6.9643      7.0323      7.0932      7.1353      7.1555      7.1553      7.1344      7.0916      7.0308    
  7.5583      7.3007      7.0633      6.8860      6.7811      6.7344      6.7226      6.7345      6.7807      6.8852    
  7.0632      7.3024      7.5611      7.7865      7.9490      8.0656      8.1121      8.0661      7.9486      7.7843    
  8.5275      8.0717      7.6140      7.2058      6.9089      6.7344      6.6591      6.6590      6.7342      6.9091    
  7.2067      7.6157      8.0735      8.5281      9.0834      9.6670      10.050      10.051      9.6687      9.0844    
  10.762      9.3886      8.4995      7.8559      7.3091      6.9296      6.7227      6.6591      6.7222      6.9295    
  7.3099      7.8568      8.4994      9.3870      10.760      12.380      13.705      14.216      13.706      12.382    
  15.843      12.686      10.233      8.8047      7.9875      7.3474      6.9299      6.7346      6.7343      6.9295    
  7.3476      7.9878      8.8040      10.231      12.684      15.842      18.823      20.632      20.632      18.822    
  24.234      19.095      14.237      10.765      8.9189      7.9876      7.3097      6.9092      6.7809      6.9091    
  7.3098      7.9877      8.9186      10.765      14.236      19.096      24.236      28.163      29.631      28.161    
  34.886      28.369      21.066      14.831      10.765      8.8040      7.8565      7.2063      6.8852      6.8854    
  7.2067      7.8565      8.8038      10.765      14.832      21.068      28.371      34.887      38.732      38.732    
  45.518      38.857      29.918      21.067      14.236      10.231      8.4995      7.6153      7.0629      6.8808    
  7.0633      7.6154      8.4990      10.231      14.236      21.068      29.917      38.855      45.517      47.984    
  53.391      48.030      38.857      28.371      19.096      12.685      9.3874      8.0734      7.3021      6.9083    
  6.9086      7.3023      8.0731      9.3868      12.685      19.096      28.371      38.855      48.028      53.390    
  31.143      29.583      25.394      19.859      14.553      10.693      8.6055      7.5975      6.8888      6.4703    
  6.3362      6.4703      6.8888      7.5975      8.6054      10.693      14.553      19.859      25.394      29.583    
  29.583      29.583      26.681      21.793      16.392      11.911      9.1214      7.7916      6.9841      6.4386    
  6.1775      6.1774      6.4384      6.9843      7.7921      9.1218      11.911      16.392      21.793      26.682    
  25.395      26.743      25.395      21.793      17.093      12.680      9.5680      7.9287      7.0465      6.4102    
  6.0442      5.9282      6.0438      6.4100      7.0469      7.9292      9.5680      12.679      17.092      21.793    
  19.859      21.953      21.954      19.860      16.392      12.680      9.7463      8.0130      7.0761      6.3856    
  5.9435      5.7386      5.7384      5.9433      6.3854      7.0760      8.0129      9.7460      12.679      16.391    
  14.553      16.652      17.452      16.652      14.553      11.910      9.5678      8.0131      7.0838      6.3706    
  5.8809      5.6136      5.5313      5.6137      5.8809      6.3703      7.0836      8.0131      9.5681      11.910    
  10.693      12.243      13.212      13.212      12.243      10.692      9.1212      7.9288      7.0762      6.3707    
  5.8597      5.5523      5.4150      5.4152      5.5526      5.8598      6.3704      7.0763      7.9295      9.1222    
  8.6061      9.4885      10.209      10.490      10.209      9.4879      8.6053      7.7917      7.0468      6.3858    
  5.8810      5.5523      5.3778      5.3248      5.3781      5.5525      5.8809      6.3855      7.0469      7.7923    
  7.5973      8.1603      8.6105      8.8760      8.8758      8.6102      8.1603      7.5977      6.9844      6.4104    
  5.9436      5.6136      5.4148      5.3248      5.3248      5.4148      5.6135      5.9433      6.4098      6.9837    
  6.8879      7.3388      7.7238      7.9818      8.0723      7.9817      7.7241      7.3397      6.8890      6.4387    
  6.0441      5.7384      5.5311      5.4151      5.3781      5.4148      5.5311      5.7386      6.0441      6.4380    
  6.4702      6.7793      7.0678      7.2930      7.4168      7.4167      7.2931      7.0682      6.7797      6.4702    
  6.1772      5.9280      5.7383      5.6137      5.5527      5.5525      5.6135      5.7386      5.9288      6.1779    
  6.3368      6.5110      6.6860      6.8406      6.9489      6.9881      6.9490      6.8406      6.6856      6.5102    
  6.3359      6.1771      6.0438      5.9434      5.8810      5.8598      5.8809      5.9434      6.0442      6.1779    
  6.4702      6.5110      6.5647      6.6284      6.6888      6.7266      6.7267      6.6890      6.6280      6.5639    
  6.5104      6.4702      6.4385      6.4102      6.3856      6.3704      6.3705      6.3855      6.4098      6.4381    
  6.8879      6.7792      6.6860      6.6283      6.6082      6.6102      6.6141      6.6105      6.6083      6.6282    
  6.6859      6.7799      6.8890      6.9846      7.0471      7.0761      7.0836      7.0762      7.0468      6.9837    
  7.5973      7.3388      7.0678      6.8406      6.6888      6.6102      6.5814      6.5814      6.6102      6.6889    
  6.8408      7.0684      7.3395      7.5977      7.7922      7.9291      8.0128      8.0130      7.9294      7.7922    
  8.6061      8.1603      7.7239      7.2930      6.9489      6.7266      6.6142      6.5814      6.6138      6.7263    
  6.9490      7.2933      7.7238      8.1598      8.6053      9.1216      9.5678      9.7459      9.5680      9.1221    
  10.693      9.4885      8.6106      7.9819      7.4167      6.9881      6.7268      6.6105      6.6103      6.7264    
  6.9880      7.4170      7.9819      8.6099      9.4875      10.692      11.910      12.679      12.679      11.910    
  14.553      12.243      10.209      8.8762      8.0724      7.4166      6.9489      6.6890      6.6084      6.6889    
  6.9490      7.4169      8.0726      8.8761      10.209      12.243      14.553      16.392      17.093      16.392    
  19.859      16.652      13.212      10.490      8.8760      7.9816      7.2929      6.8405      6.6282      6.6283    
  6.8408      7.2931      7.9817      8.8760      10.490      13.213      16.652      19.860      21.794      21.793    
  25.395      21.953      17.451      13.212      10.209      8.6103      7.7239      7.0680      6.6857      6.5641    
  6.6860      7.0681      7.7235      8.6098      10.209      13.213      17.452      21.953      25.395      26.682    
  29.583      26.743      21.953      16.652      12.243      9.4882      8.1602      7.3395      6.7796      6.5105    
  6.5106      6.7798      7.3392      8.1596      9.4878      12.243      16.652      21.953      26.742      29.583    
  16.120      15.466      13.745      11.576      9.6570      8.3744      7.5471      6.8707      6.3970      6.1354    
  6.0543      6.1354      6.3971      6.8707      7.5471      8.3744      9.6570      11.576      13.745      15.466    
  15.466      15.466      14.249      12.270      10.217      8.6567      7.6843      6.9386      6.3692      6.0145    
  5.8526      5.8526      6.0144      6.3693      6.9390      7.6847      8.6568      10.216      12.269      14.249    
  13.744      14.310      13.745      12.270      10.438      8.8422      7.7622      6.9780      6.3429      5.9116    