unknown system                          
   1.00000000000000     
     2.330000    0.000000    0.000000
    -1.165000    2.017839    0.000000
     0.000000    0.000000    4.100000
   Fe
     2
Direct
  0.000000  0.000000  0.000000
  0.333333  0.666667  0.500000
 
   20   20   32
 0.16196223422E+03 0.15347805546E+03 0.13064402506E+03 0.99937738201E+02 0.68672063159E+02
 0.42445671639E+02 0.24128245118E+02 0.13936751925E+02 0.99085753319E+01 0.87735311469E+01
 0.84167747020E+01 0.87736254336E+01 0.99086476630E+01 0.13936720844E+02 0.24128166309E+02
 0.42445660163E+02 0.68672144827E+02 0.99937826698E+02 0.13064404382E+03 0.15347803007E+03
 0.15348387350E+03 0.15347819168E+03 0.13785370370E+03 0.11126170859E+03 0.80679259341E+02
 0.52539931643E+02 0.30990467859E+02 0.17494585952E+02 0.11107255202E+02 0.90920265460E+01
 0.84165117859E+01 0.84162031564E+01 0.90917057198E+01 0.11107429116E+02 0.17494172110E+02
 0.30988440466E+02 0.52538421503E+02 0.80682936283E+02 0.11127241219E+03 0.13786632949E+03
 0.13065266948E+03 0.13783536674E+03 0.13064435943E+03 0.11126178515E+03 0.85121700504E+02
 0.58462622059E+02 0.36179172038E+02 0.20829412872E+02 0.12546397544E+02 0.94219600462E+01
 0.84452871453E+01 0.81106301277E+01 0.84445819543E+01 0.94219542261E+01 0.12546995036E+02
 0.20828309074E+02 0.36175482325E+02 0.58459919514E+02 0.85125018167E+02 0.11127105932E+03
 0.99933855917E+02 0.11120209627E+03 0.11120347007E+03 0.99937902869E+02 0.80679056153E+02
 0.58462441278E+02 0.38112240495E+02 0.22848546591E+02 0.13739973706E+02 0.97789127736E+01
 0.84910136088E+01 0.78959459540E+01 0.78955969628E+01 0.84907334632E+01 0.97798023745E+01
 0.13741500565E+02 0.22848535311E+02 0.38109036754E+02 0.58456693992E+02 0.80673122070E+02
 0.68659719187E+02 0.80588600279E+02 0.85002166600E+02 0.80598150974E+02 0.68671765566E+02
 0.52539503608E+02 0.36179038545E+02 0.22848600465E+02 0.14204060215E+02 0.10024903480E+02
 0.85329799046E+01 0.77753524628E+01 0.75122904703E+01 0.77752335718E+01 0.85329862554E+01
 0.10026065058E+02 0.14207319273E+02 0.22852506092E+02 0.36179282298E+02 0.52532578070E+02
 0.42444207151E+02 0.52466359881E+02 0.58334804530E+02 0.58337877436E+02 0.52471828369E+02
 0.42445249136E+02 0.30990287280E+02 0.20829554731E+02 0.13740118265E+02 0.10024954884E+02
 0.85500396025E+01 0.77261876235E+01 0.73003302061E+01 0.73005138028E+01 0.77258647235E+01
 0.85485978246E+01 0.10024612046E+02 0.13744018334E+02 0.20836958388E+02 0.30995736909E+02
 0.24136791976E+02 0.30968608831E+02 0.36109943053E+02 0.38019515824E+02 0.36106109588E+02
 0.30961257153E+02 0.24128144416E+02 0.17494773121E+02 0.12546644677E+02 0.97790369268E+01
 0.85330484733E+01 0.77261932564E+01 0.72344666492E+01 0.70748231350E+01 0.72350681944E+01
 0.77250596861E+01 0.85291862829E+01 0.97751836197E+01 0.12546995036E+02 0.17500663516E+02
 0.13936546868E+02 0.17509537506E+02 0.20834510056E+02 0.22835311327E+02 0.22831436401E+02
 0.20826078551E+02 0.17503273112E+02 0.13936947923E+02 0.11107518900E+02 0.94220806192E+01
 0.84910440668E+01 0.77753357066E+01 0.73002377380E+01 0.70747708849E+01 0.70756450850E+01
 0.73017928383E+01 0.77750595959E+01 0.84869366583E+01 0.94149318992E+01 0.11101411708E+02
 0.98994415882E+01 0.11128718803E+02 0.12589626222E+02 0.13790241090E+02 0.14253238514E+02
 0.13787866425E+02 0.12589819551E+02 0.11134893577E+02 0.99087566049E+01 0.90920617202E+01
 0.84451772459E+01 0.78958462337E+01 0.75121748658E+01 0.73004117140E+01 0.72350470569E+01
 0.73017832175E+01 0.75155100351E+01 0.78995677436E+01 0.84451623620E+01 0.90858622877E+01
 0.87733123102E+01 0.91172794172E+01 0.94732039201E+01 0.98514336230E+01 0.10109125402E+02
 0.10110565457E+02 0.98560377159E+01 0.94802283032E+01 0.91230817376E+01 0.87734468548E+01
 0.84162666256E+01 0.81104368479E+01 0.78955331103E+01 0.77751965592E+01 0.77258584058E+01
 0.77250477354E+01 0.77750393394E+01 0.78996036114E+01 0.81181395539E+01 0.84223597120E+01
 0.84254003691E+01 0.84544911119E+01 0.85066195837E+01 0.85716862457E+01 0.86287477773E+01
 0.86531971674E+01 0.86324532551E+01 0.85753915356E+01 0.85059826638E+01 0.84482100713E+01
 0.84164991228E+01 0.84159858651E+01 0.84445968382E+01 0.84908377279E+01 0.85330484733E+01
 0.85486189540E+01 0.85291799320E+01 0.84870104651E+01 0.84452871454E+01 0.84223875810E+01
 0.87732567392E+01 0.84544562068E+01 0.81806958395E+01 0.79886146304E+01 0.78838892230E+01
 0.78445869852E+01 0.78453895965E+01 0.78840615875E+01 0.79846416355E+01 0.81731590943E+01
 0.84485168419E+01 0.87734855705E+01 0.90917873125E+01 0.94221810509E+01 0.97799593085E+01
 0.10026133487E+02 0.10024629072E+02 0.97752164005E+01 0.94150381512E+01 0.90859087062E+01
 0.98993963347E+01 0.91172203938E+01 0.85065718698E+01 0.79885717408E+01 0.76280046381E+01
 0.74306740185E+01 0.73699734477E+01 0.74294981702E+01 0.76248788508E+01 0.79849160433E+01
 0.85065359940E+01 0.91233948610E+01 0.99087836825E+01 0.11107692876E+02 0.12547198008E+02
 0.13741571277E+02 0.14207306858E+02 0.13743944487E+02 0.12546950875E+02 0.11101411770E+02
 0.13936569428E+02 0.11128718859E+02 0.94731528624E+01 0.85715911570E+01 0.78838587158E+01
 0.74307262309E+01 0.72164488261E+01 0.72156577428E+01 0.74293156725E+01 0.78841534975E+01
 0.85755416705E+01 0.94800976776E+01 0.11134711079E+02 0.13936939402E+02 0.17494307645E+02
 0.20828284218E+02 0.22848417967E+02 0.22852334874E+02 0.20836791673E+02 0.17500611882E+02
 0.24136870785E+02 0.17509614237E+02 0.12589626892E+02 0.98513652721E+01 0.86287191639E+01
 0.78446959618E+01 0.73700911805E+01 0.72156721095E+01 0.73694201175E+01 0.78457094075E+01
 0.86324532550E+01 0.98551303737E+01 0.12589239143E+02 0.17503693355E+02 0.24128144416E+02
 0.30988240049E+02 0.36175238573E+02 0.38108863933E+02 0.36179172038E+02 0.30995717072E+02
 0.42444281181E+02 0.30968673438E+02 0.20834568843E+02 0.13790266925E+02 0.10109128901E+02
 0.86532603704E+01 0.78454922012E+01 0.74295182704E+01 0.74292835602E+01 0.78457030357E+01
 0.86546199885E+01 0.10109488122E+02 0.13786475967E+02 0.20827295034E+02 0.30963295586E+02
 0.42445311689E+02 0.52538113150E+02 0.58459860955E+02 0.58456816215E+02 0.52532697753E+02
 0.68659745535E+02 0.52466284274E+02 0.36109976481E+02 0.22835427546E+02 0.14253283597E+02
 0.10110519359E+02 0.86324111206E+01 0.78840412135E+01 0.76248660116E+01 0.78841636307E+01
 0.86324397340E+01 0.10109438526E+02 0.14250126965E+02 0.22831610377E+02 0.36109801544E+02
 0.52473281381E+02 0.68671873582E+02 0.80683026934E+02 0.85125392461E+02 0.80673415909E+02
 0.99933843402E+02 0.80588329378E+02 0.58334678467E+02 0.38019635546E+02 0.22831532746E+02
 0.13787762583E+02 0.98558542906E+01 0.85753034589E+01 0.79846769411E+01 0.79849942385E+01
 0.85755486826E+01 0.98550152993E+01 0.13786346290E+02 0.22831590504E+02 0.38022762650E+02
 0.58340319224E+02 0.80594256174E+02 0.99937978851E+02 0.11127287626E+03 0.11127144682E+03
 0.13065265072E+03 0.11120170553E+03 0.85001817273E+02 0.58337893852E+02 0.36106284525E+02
 0.20826068201E+02 0.12589626892E+02 0.94800805494E+01 0.85060185396E+01 0.81733112470E+01
 0.85066195837E+01 0.94800009816E+01 0.12589045814E+02 0.20827225895E+02 0.36109943053E+02
 0.58340461704E+02 0.84998366627E+02 0.11119238910E+03 0.13064435943E+03 0.13786665732E+03
 0.15348386508E+03 0.13783502304E+03 0.11120300609E+03 0.80598033800E+02 0.52472093897E+02
 0.30961473357E+02 0.17503210396E+02 0.11134710980E+02 0.91230300165E+01 0.84483721763E+01
 0.84487138521E+01 0.91234021633E+01 0.11134528426E+02 0.17503553907E+02 0.30963447183E+02
 0.52473622515E+02 0.80594409902E+02 0.11119231587E+03 0.13782236082E+03 0.15347815787E+03
 0.15167704033E+03 0.14375502022E+03 0.12241014203E+03 0.93655935582E+02 0.64338707649E+02
 0.39765681451E+02 0.22690024239E+02 0.13303457238E+02 0.96664857184E+01 0.86072566613E+01
 0.82609889396E+01 0.86073534630E+01 0.96665630116E+01 0.13303430287E+02 0.22689942662E+02
 0.39765657801E+02 0.64338773641E+02 0.93656014749E+02 0.12241016147E+03 0.14375499929E+03
 0.14376040705E+03 0.14375517378E+03 0.12915111188E+03 0.10425996419E+03 0.75589249558E+02
 0.49202003845E+02 0.29054518893E+02 0.16545506935E+02 0.10725150644E+02 0.89059748214E+01
 0.82496773238E+01 0.82493712724E+01 0.89056530208E+01 0.10725343746E+02 0.16545216938E+02
 0.29052728052E+02 0.49200613583E+02 0.75592577663E+02 0.10426976825E+03 0.12916272284E+03
 0.12241814810E+03 0.12913845407E+03 0.12241051631E+03 0.10426005111E+03 0.79751464993E+02
 0.54744299709E+02 0.33882585337E+02 0.19606576922E+02 0.12009396411E+02 0.91976395943E+01
 0.82715554990E+01 0.79484211978E+01 0.82708408173E+01 0.91975920017E+01 0.12009990909E+02
 0.19605648694E+02 0.33879222683E+02 0.54741754554E+02 0.79754424948E+02 0.10426852669E+03
 0.93652357572E+02 0.10421646992E+03 0.10421774900E+03 0.93656124268E+02 0.75589031652E+02
 0.54744099633E+02 0.35683719389E+02 0.21466923964E+02 0.13083239799E+02 0.95058475847E+01
 0.83132846164E+01 0.77396633563E+01 0.77393150823E+01 0.83129697439E+01 0.95066252294E+01
 0.13084638822E+02 0.21466919029E+02 0.35680753766E+02 0.54738762412E+02 0.75583512725E+02
 0.64327310030E+02 0.75525235884E+02 0.79668067580E+02 0.75534036994E+02 0.64338383819E+02
 0.49201527528E+02 0.33882421356E+02 0.21466975088E+02 0.13502419549E+02 0.97189119715E+01
 0.83531235063E+01 0.76235413795E+01 0.73721106074E+01 0.76234489293E+01 0.83531264334E+01
 0.97199412352E+01 0.13505378134E+02 0.21470576207E+02 0.33882699666E+02 0.49195205822E+02
 0.39764349392E+02 0.49160477830E+02 0.54668102492E+02 0.54670925048E+02 0.49165469609E+02
 0.39765204382E+02 0.29054298618E+02 0.19606716770E+02 0.13083406651E+02 0.97189791471E+01
 0.83695032227E+01 0.75765379309E+01 0.71705014540E+01 0.71707109815E+01 0.75763138513E+01
 0.83682006350E+01 0.97186328256E+01 0.13086987589E+02 0.19613606422E+02 0.29059444222E+02
 0.22697929290E+02 0.29064471258E+02 0.33870958500E+02 0.35658563375E+02 0.33867406156E+02
 0.29057650420E+02 0.22689901411E+02 0.16545705665E+02 0.12009681368E+02 0.95060085100E+01
 0.83532069034E+01 0.75765418559E+01 0.71080810726E+01 0.69567463228E+01 0.71086896134E+01
 0.75755485594E+01 0.83496494504E+01 0.95024249347E+01 0.12009990909E+02 0.16551167816E+02
 0.13303231405E+02 0.16590186062E+02 0.19668315414E+02 0.21526824172E+02 0.21523250680E+02
 0.19660553589E+02 0.16584458827E+02 0.13303685227E+02 0.10725456471E+02 0.91977937858E+01
 0.83133265839E+01 0.76235157674E+01 0.71703941762E+01 0.69566858279E+01 0.69574883230E+01
 0.71718205086E+01 0.76232500468E+01 0.83095114493E+01 0.91911415653E+01 0.10719737103E+02
 0.96579970627E+01 0.10774993944E+02 0.12106870318E+02 0.13206918662E+02 0.13632262146E+02
 0.13204730620E+02 0.12107095139E+02 0.10780794486E+02 0.96667014490E+01 0.89060194057E+01
 0.82714330139E+01 0.77395410160E+01 0.73719732118E+01 0.71705930587E+01 0.71086603936E+01
 0.71718098636E+01 0.73750082694E+01 0.77429722594E+01 0.82714201382E+01 0.89002452598E+01
 0.86070467264E+01 0.89585699525E+01 0.93017973726E+01 0.96519046204E+01 0.98883559924E+01
 0.98896734347E+01 0.96561398924E+01 0.93082922230E+01 0.89639464834E+01 0.86071530273E+01
 0.82493903877E+01 0.79481915094E+01 0.77392342794E+01 0.76234079133E+01 0.75763054749E+01
 0.75755362579E+01 0.76232346429E+01 0.77430137968E+01 0.79553772533E+01 0.82550857700E+01
 0.82689755674E+01 0.83138475858E+01 0.83849768948E+01 0.84684226657E+01 0.85387282583E+01
 0.85678733370E+01 0.85421383113E+01 0.84718141366E+01 0.83843324786E+01 0.83079647115E+01
 0.82606589124E+01 0.82491155664E+01 0.82708536930E+01 0.83130957861E+01 0.83532069034E+01
 0.83682267284E+01 0.83496465233E+01 0.83095955241E+01 0.82715554990E+01 0.82551170000E+01
 0.86069885262E+01 0.83138074569E+01 0.80699508794E+01 0.79068911543E+01 0.78248615372E+01
 0.77978566263E+01 0.77986183485E+01 0.78250496756E+01 0.79032056353E+01 0.80629264986E+01
 0.83082647619E+01 0.86071916289E+01 0.89057512706E+01 0.91978630385E+01 0.95068197627E+01
 0.97200194216E+01 0.97186438364E+01 0.95024585427E+01 0.91912584107E+01 0.89002989254E+01
 0.96579487115E+01 0.89584996983E+01 0.83849198816E+01 0.79068452680E+01 0.75814094944E+01
 0.74076227762E+01 0.73551740388E+01 0.74065921435E+01 0.75785722749E+01 0.79034737704E+01
 0.83848828577E+01 0.89642532201E+01 0.96667303909E+01 0.10725655353E+02 0.12010231747E+02
 0.13084715060E+02 0.13505346152E+02 0.13086896977E+02 0.12009946790E+02 0.10719742883E+02
 0.13303253153E+02 0.10774985695E+02 0.93017373751E+01 0.84683229457E+01 0.78248298957E+01
 0.74076760094E+01 0.72130169206E+01 0.72122938164E+01 0.74063880582E+01 0.78251137255E+01
 0.84719863066E+01 0.93081895717E+01 0.10780590401E+02 0.13303680025E+02 0.16545366632E+02
 0.19605612445E+02 0.21466771002E+02 0.21470377056E+02 0.19613430326E+02 0.16551118781E+02
 0.22698010867E+02 0.16590261598E+02 0.12106871511E+02 0.96518387912E+01 0.85386999171E+01
 0.77979659300E+01 0.73552980646E+01 0.72123158390E+01 0.73546236597E+01 0.77988472097E+01
 0.85421383113E+01 0.96553361594E+01 0.12106515818E+02 0.16584756941E+02 0.22689901411E+02
 0.29052493212E+02 0.33878944373E+02 0.35680559209E+02 0.33882585337E+02 0.29059429658E+02
 0.39764428567E+02 0.29064535584E+02 0.19668381843E+02 0.13206958361E+02 0.98883651288E+01
 0.85679316040E+01 0.77987218182E+01 0.74066272101E+01 0.74063698916E+01 0.77988413757E+01
 0.85691581367E+01 0.98887272868E+01 0.13203477735E+02 0.19661607591E+02 0.29059446422E+02
 0.39765259908E+02 0.49200274643E+02 0.54741695340E+02 0.54738903275E+02 0.49195343200E+02
 0.64327341077E+02 0.49160390051E+02 0.33870991943E+02 0.21526959602E+02 0.13632321650E+02
 0.98896180134E+01 0.85420798619E+01 0.78250339809E+01 0.75785799286E+01 0.78251296723E+01
 0.85421082031E+01 0.98886627291E+01 0.13629461523E+02 0.21523449562E+02 0.33870786101E+02
 0.49166778019E+02 0.64338480857E+02 0.75592688829E+02 0.79754844938E+02 0.75583841797E+02
 0.93652347053E+02 0.75524932544E+02 0.54667952824E+02 0.35658694720E+02 0.21523371072E+02
 0.13204622717E+02 0.96559243170E+01 0.84717073899E+01 0.79032567385E+01 0.79035707600E+01
 0.84719792799E+01 0.96551864133E+01 0.13203330133E+02 0.21523434525E+02 0.35661608786E+02
 0.54673205167E+02 0.75530448465E+02 0.93656192916E+02 0.10427028896E+03 0.10426896048E+03
 0.12241812866E+03 0.10421603203E+03 0.79667668535E+02 0.54670935576E+02 0.33867611998E+02
 0.19660557676E+02 0.12106871511E+02 0.93081045721E+01 0.83843695025E+01 0.80631114620E+01
 0.83849768948E+01 0.93080619183E+01 0.12106290997E+02 0.19661545249E+02 0.33870958500E+02
 0.54673365364E+02 0.79664590597E+02 0.10420752054E+03 0.12241051631E+03 0.12916309092E+03
 0.14376039730E+03 0.12913806752E+03 0.10421722623E+03 0.75533898153E+02 0.49165767130E+02
 0.29057905620E+02 0.16584387522E+02 0.10780566859E+02 0.89638767775E+01 0.83081622425E+01
 0.83085024218E+01 0.89642537684E+01 0.10780371023E+02 0.16584610100E+02 0.29059637297E+02
 0.49167163319E+02 0.75530612964E+02 0.10420743566E+03 0.12912642767E+03 0.14375514310E+03
 0.12454214174E+03 0.11807875355E+03 0.10061444283E+03 0.76990076337E+02 0.52850502962E+02
 0.32714380956E+02 0.18975975198E+02 0.11718488780E+02 0.90596614124E+01 0.81606035285E+01
 0.78460544028E+01 0.81607039106E+01 0.90597485683E+01 0.11718472975E+02 0.18975891638E+02
 0.32714333639E+02 0.52850534944E+02 0.76990133838E+02 0.10061446281E+03 0.11807874218E+03
 0.11808299762E+03 0.11807894410E+03 0.10613038181E+03 0.85694160467E+02 0.62081249205E+02
 0.40380116947E+02 0.24004761206E+02 0.14132761359E+02 0.97795783179E+01 0.84061896060E+01
 0.78063667079E+01 0.78060735202E+01 0.84058744571E+01 0.97798192886E+01 0.14132782146E+02
 0.24003580865E+02 0.40379046546E+02 0.62083676204E+02 0.85701612445E+02 0.10613932810E+03
 0.10062075812E+03 0.10613420987E+03 0.10061490319E+03 0.85694270216E+02 0.65497494940E+02
 0.44900007765E+02 0.27861365863E+02 0.16465960172E+02 0.10669977328E+02 0.86225057441E+01
 0.78063906735E+01 0.75172590681E+01 0.78056689831E+01 0.86223625129E+01 0.10670557654E+02
 0.16465474864E+02 0.27858854354E+02 0.44897888131E+02 0.65499536345E+02 0.85700662708E+02
 0.76987301830E+02 0.85696571680E+02 0.85697596254E+02 0.76990317827E+02 0.62081001186E+02
 0.44899766796E+02 0.29306734839E+02 0.17901484231E+02 0.11433022896E+02 0.88185151534E+01
 0.78322106491E+01 0.73211770661E+01 0.73208385325E+01 0.78318206975E+01 0.88190086323E+01
 0.11434082945E+02 0.17901486381E+02 0.29304391010E+02 0.44895514962E+02 0.62076588755E+02
 0.52841607345E+02 0.62091794275E+02 0.65515577905E+02 0.62098619093E+02 0.52850124019E+02
 0.40379537814E+02 0.27861135701E+02 0.17901528585E+02 0.11734688602E+02 0.89520200545E+01
 0.78620175062E+01 0.72133801441E+01 0.69944205569E+01 0.72133548288E+01 0.78620122425E+01
 0.89527064326E+01 0.11736858214E+02 0.17904318389E+02 0.27861486644E+02 0.40374791106E+02
 0.32713399005E+02 0.40426627805E+02 0.44966286369E+02 0.44968452148E+02 0.40430376001E+02
 0.32713786476E+02 0.24004454589E+02 0.16466093899E+02 0.11433236970E+02 0.89521213074E+01
 0.78749223926E+01 0.71699000584E+01 0.68182646944E+01 0.68185325614E+01 0.71699176939E+01
 0.78739786737E+01 0.89517717990E+01 0.11435980319E+02 0.16471614674E+02 0.24008770939E+02
 0.18982186947E+02 0.24100024837E+02 0.28005179432E+02 0.29464262320E+02 0.28002375728E+02
 0.24094616339E+02 0.18975803931E+02 0.14132983824E+02 0.10670343212E+02 0.88187558036E+01
 0.78621330610E+01 0.71699000912E+01 0.67641878291E+01 0.66349633781E+01 0.67647995894E+01
 0.71692622548E+01 0.78593799527E+01 0.88158974299E+01 0.10670557654E+02 0.14137316780E+02
 0.11718217104E+02 0.14254568988E+02 0.16675807903E+02 0.18153278220E+02 0.18150501695E+02
 0.16669812833E+02 0.14250247912E+02 0.11718786111E+02 0.97799755605E+01 0.86227335717E+01
 0.78322779545E+01 0.72133347996E+01 0.68181251155E+01 0.66348854673E+01 0.66354984438E+01
 0.68192113239E+01 0.72130989577E+01 0.78292445607E+01 0.86174132076E+01 0.97753079772E+01
 0.90528865498E+01 0.99003684769E+01 0.10903758365E+02 0.11741595669E+02 0.12067836070E+02
 0.11739901101E+02 0.10904057534E+02 0.99051582057E+01 0.90599528819E+01 0.84062561156E+01
 0.78062419704E+01 0.73210050015E+01 0.69942349302E+01 0.68183809867E+01 0.67647545385E+01
 0.68191993281E+01 0.69964861373E+01 0.73236705404E+01 0.78062356925E+01 0.84016190169E+01
 0.81604178322E+01 0.85248268545E+01 0.88543351460E+01 0.91413884537E+01 0.93258591124E+01
 0.93268549619E+01 0.91446526869E+01 0.88594308354E+01 0.85290786370E+01 0.81604591658E+01
 0.78059908218E+01 0.75169501217E+01 0.73207189231E+01 0.72133045925E+01 0.71699069750E+01
 0.71692515030E+01 0.72130940657E+01 0.73237229957E+01 0.75227503229E+01 0.78106150387E+01
 0.78523497120E+01 0.79320639385E+01 0.80411940080E+01 0.81589250267E+01 0.82527153515E+01
 0.82898548885E+01 0.82553445617E+01 0.81614919517E+01 0.80405447669E+01 0.79272587744E+01
 0.78456080032E+01 0.78057354041E+01 0.78056752610E+01 0.78319914227E+01 0.78621330610E+01
 0.78740184194E+01 0.78593852164E+01 0.78293479805E+01 0.78063906735E+01 0.78106528086E+01
 0.81603556006E+01 0.79320145654E+01 0.77569144752E+01 0.76553543465E+01 0.76182047648E+01
 0.76143029153E+01 0.76149498416E+01 0.76184233273E+01 0.76524285615E+01 0.77512589189E+01
 0.79275373629E+01 0.81604973163E+01 0.84060081877E+01 0.86227256284E+01 0.88192829260E+01
 0.89528080132E+01 0.89517721266E+01 0.88159310734E+01 0.86175484956E+01 0.84016862379E+01
 0.90528328649E+01 0.85247370705E+01 0.80411203887E+01 0.76553023319E+01 0.74058457217E+01
 0.72803622739E+01 0.72443467480E+01 0.72797006399E+01 0.74037559266E+01 0.76526764894E+01
 0.80410780054E+01 0.85293647153E+01 0.90599863528E+01 0.97802314317E+01 0.10670876450E+02
 0.11434171604E+02 0.11736787653E+02 0.11435854904E+02 0.10670510566E+02 0.97753228778E+01
 0.11718236013E+02 0.99003465938E+01 0.88542613113E+01 0.81588165321E+01 0.76181674018E+01
 0.72804147755E+01 0.71274959120E+01 0.71269511387E+01 0.72794478732E+01 0.76184184885E+01
 0.81617140579E+01 0.88593975238E+01 0.99049054389E+01 0.11718789215E+02 0.14132957396E+02
 0.16465412033E+02 0.17901275818E+02 0.17904063472E+02 0.16471418116E+02 0.14137269566E+02
 0.18982270507E+02 0.14254643268E+02 0.10903765964E+02 0.91413304805E+01 0.82526832413E+01
 0.76144057364E+01 0.72444811749E+01 0.71269908182E+01 0.72438135095E+01 0.76149542408E+01
 0.82553445617E+01 0.91441142815E+01 0.10903490825E+02 0.14250244368E+02 0.18975803931E+02
 0.24003267628E+02 0.27858503411E+02 0.29304155158E+02 0.27861365863E+02 0.24008764319E+02
 0.32713484065E+02 0.24100086612E+02 0.16675894201E+02 0.11741668741E+02 0.93258777955E+01
 0.82898948239E+01 0.76150503002E+01 0.72797706514E+01 0.72794653830E+01 0.76149518783E+01
 0.82907824400E+01 0.93262441493E+01 0.11739004210E+02 0.16670453853E+02 0.24095792425E+02
 0.32713824219E+02 0.40378640923E+02 0.44897831679E+02 0.44895699480E+02 0.40374964616E+02
 0.52841644582E+02 0.40426510366E+02 0.28005213950E+02 0.18153458747E+02 0.12067927247E+02
 0.93267746864E+01 0.82552463128E+01 0.76184201685E+01 0.74038158887E+01 0.76184526927E+01
 0.82552784230E+01 0.93261451908E+01 0.12065839708E+02 0.18150757566E+02 0.28004938799E+02
 0.40431310635E+02 0.52850193238E+02 0.62083833194E+02 0.65500058012E+02 0.62076993764E+02
 0.76987294376E+02 0.62091418383E+02 0.44966085295E+02 0.29464421424E+02 0.18150676785E+02
 0.11739783671E+02 0.91443647690E+01 0.81613457268E+01 0.76525203705E+01 0.76528203130E+01
 0.81616763275E+01 0.91438843368E+01 0.11738813707E+02 0.18150752130E+02 0.29466765086E+02
 0.44970299476E+02 0.62095837131E+02 0.76990367873E+02 0.85702257354E+02 0.85701197869E+02
 0.10062073814E+03 0.85696031389E+02 0.65515070841E+02 0.44968450982E+02 0.28002650879E+02
 0.16669849662E+02 0.10903765964E+02 0.88591561930E+01 0.80405871503E+01 0.77515188988E+01
 0.80411940081E+01 0.88591967161E+01 0.10903191655E+02 0.16670404383E+02 0.28005179432E+02
 0.44970499384E+02 0.65512945616E+02 0.85689616597E+02 0.10061490319E+03 0.10613978490E+03
 0.11808298624E+03 0.10613373146E+03 0.85696946339E+02 0.62098433042E+02 0.40430743064E+02
 0.24094957023E+02 0.14250158243E+02 0.99048320585E+01 0.85289697684E+01 0.79275339395E+01
 0.79278619012E+01 0.85293456308E+01 0.99046011748E+01 0.14250080419E+02 0.24096071333E+02
 0.40431795137E+02 0.62096026972E+02 0.85689506974E+02 0.10612477199E+03 0.11807892136E+03
 0.89555642116E+02 0.84926668980E+02 0.72383606990E+02 0.55367268014E+02 0.38025482433E+02
 0.23794655019E+02 0.14474382955E+02 0.99149926434E+01 0.83194400656E+01 0.75639153691E+01
 0.73008411073E+01 0.75640101574E+01 0.83195281606E+01 0.99149889571E+01 0.14474309339E+02
 0.23794599436E+02 0.38025490733E+02 0.55367306129E+02 0.72383624725E+02 0.84926664204E+02
 0.84929437125E+02 0.84926882648E+02 0.76337814130E+02 0.61606748285E+02 0.44587059375E+02
 0.29098486901E+02 0.17746448862E+02 0.11304548889E+02 0.87058841388E+01 0.77290929241E+01
 0.72242522709E+01 0.72239915568E+01 0.77288091920E+01 0.87061740578E+01 0.11304917633E+02
 0.17746007863E+02 0.29097834357E+02 0.44588387657E+02 0.61611250993E+02 0.76343387296E+02
 0.72387740685E+02 0.76365368851E+02 0.72384123885E+02 0.61606874604E+02 0.47021713458E+02
 0.32255210775E+02 0.20312581760E+02 0.12706041308E+02 0.91489455497E+01 0.78762997633E+01
 0.71869831675E+01 0.69506325430E+01 0.71863031586E+01 0.78760744833E+01 0.91494887146E+01
 0.12706064364E+02 0.20311126021E+02 0.32253665289E+02 0.47022651345E+02 0.61610669032E+02
 0.55365523096E+02 0.61673662630E+02 0.61674349058E+02 0.55367547591E+02 0.44586796823E+02
 0.32254945014E+02 0.21283775989E+02 0.13589640699E+02 0.95395201003E+01 0.79817409060E+01
 0.71797059647E+01 0.67641119597E+01 0.67638085323E+01 0.71792680522E+01 0.79819046609E+01
 0.95401445692E+01 0.13589627971E+02 0.21282212510E+02 0.32252093439E+02 0.44583831703E+02
 0.38019800971E+02 0.44699918836E+02 0.47179703243E+02 0.44704220029E+02 0.38025072232E+02
 0.29097843939E+02 0.20312305952E+02 0.13589677649E+02 0.96974516169E+01 0.80393864097E+01
 0.71862146942E+01 0.66588836623E+01 0.64860486855E+01 0.66589366085E+01 0.71862019466E+01
 0.80396540218E+01 0.96986263653E+01 0.13591411004E+02 0.20312699824E+02 0.29095061435E+02
 0.23794120055E+02 0.29262828306E+02 0.32513396139E+02 0.32514732675E+02 0.29265026737E+02
 0.23793983903E+02 0.17746082207E+02 0.12706164737E+02 0.95397629196E+01 0.80395108660E+01
 0.71906707345E+01 0.66147161559E+01 0.63381007982E+01 0.63384138546E+01 0.66149873246E+01
 0.71901612980E+01 0.80391746408E+01 0.95414482211E+01 0.12709898628E+02 0.17749260165E+02
 0.14478425299E+02 0.17952449889E+02 0.20659825101E+02 0.21681016302E+02 0.20657999063E+02
 0.17948882785E+02 0.14474177065E+02 0.11304782826E+02 0.91493631620E+01 0.79820365861E+01
 0.71863527921E+01 0.66147130421E+01 0.62928971117E+01 0.61924670840E+01 0.62934691069E+01
 0.66144873420E+01 0.71846281437E+01 0.79801422299E+01 0.91494887146E+01 0.11307669953E+02
 0.99146863334E+01 0.11522743881E+02 0.13102696040E+02 0.14084536171E+02 0.14082783286E+02
 0.13098959737E+02 0.11520190471E+02 0.99153370736E+01 0.87063438119E+01 0.78765804785E+01
 0.71797923444E+01 0.66588234313E+01 0.63379383833E+01 0.61923784454E+01 0.61927491059E+01
 0.63385906119E+01 0.66586339848E+01 0.71777876432E+01 0.78730222242E+01 0.87030985127E+01
 0.83148913671E+01 0.89118909603E+01 0.95472641668E+01 0.10071852316E+02 0.10276866128E+02
 0.10070789668E+02 0.95476303619E+01 0.89153192187E+01 0.83197864633E+01 0.77291788195E+01
 0.71868198412E+01 0.67639040359E+01 0.64858270959E+01 0.63382410070E+01 0.62934179456E+01
 0.63385801792E+01 0.64871016545E+01 0.67655915651E+01 0.71868239925E+01 0.77260362706E+01
 0.75637627763E+01 0.79239669897E+01 0.82554404516E+01 0.85076060189E+01 0.86470572439E+01
 0.86476459515E+01 0.85096307566E+01 0.82587364112E+01 0.79267726750E+01 0.75637464049E+01
 0.72238198325E+01 0.69502684271E+01 0.67636566549E+01 0.66588786738E+01 0.66149810249E+01
 0.66144841560E+01 0.66586362813E+01 0.67656476114E+01 0.69542348068E+01 0.72270118592E+01
 0.73049570670E+01 0.74183885101E+01 0.75554052572E+01 0.76924520039E+01 0.77964735431E+01
 0.78362431793E+01 0.77981003081E+01 0.76939735706E+01 0.75547902489E+01 0.74150356945E+01
 0.73003192330E+01 0.72235993585E+01 0.71862990073E+01 0.71794628137E+01 0.71863527921E+01
 0.71902182606E+01 0.71846408913E+01 0.71778960248E+01 0.71869831675E+01 0.72270520994E+01
 0.75637024452E+01 0.74183384600E+01 0.73175855959E+01 0.72718827496E+01 0.72686919837E+01
 0.72795792244E+01 0.72800616386E+01 0.72689222409E+01 0.72699364440E+01 0.73137302121E+01
 0.74152755254E+01 0.75637808621E+01 0.77289658956E+01 0.78764907787E+01 0.79822289083E+01
 0.80397773231E+01 0.80391734858E+01 0.79801707972E+01 0.78731578044E+01 0.77261070788E+01
 0.83148378381E+01 0.79238767766E+01 0.75553300267E+01 0.72718277330E+01 0.70960551350E+01
 0.70120422757E+01 0.69890816299E+01 0.70118166819E+01 0.70948882221E+01 0.72701493679E+01
 0.75552765168E+01 0.79270200561E+01 0.83198210293E+01 0.87066464356E+01 0.91498494299E+01
 0.95402423005E+01 0.96985391520E+01 0.95413031331E+01 0.91494318176E+01 0.87031112174E+01
 0.99147001689E+01 0.89118710701E+01 0.82553722063E+01 0.76923414238E+01 0.72686418461E+01
 0.70120859003E+01 0.68986249275E+01 0.68983057947E+01 0.70115242073E+01 0.72688426902E+01
 0.76942391381E+01 0.82587815046E+01 0.89150267441E+01 0.99153472227E+01 0.11305095902E+02
 0.12705977831E+02 0.13589385174E+02 0.13591131258E+02 0.12709688666E+02 0.11307614285E+02
 0.14478498915E+02 0.11522820019E+02 0.95472901637E+01 0.85075604427E+01 0.77964271575E+01
 0.72796572481E+01 0.69892138153E+01 0.68983606515E+01 0.69885953620E+01 0.72798205162E+01
 0.77981003081E+01 0.85094115741E+01 0.95471095280E+01 0.11519859649E+02 0.14474177065E+02
 0.17745631024E+02 0.20310732149E+02 0.21281964758E+02 0.20312581760E+02 0.17749249982E+02
 0.23794194466E+02 0.17952503829E+02 0.13102804303E+02 0.10071957545E+02 0.86470756143E+01
 0.78362492410E+01 0.72801459997E+01 0.70119178219E+01 0.70115817228E+01 0.72798268535E+01
 0.78367306393E+01 0.86474327796E+01 0.10070329115E+02 0.13099117667E+02 0.17949322737E+02
 0.23794002731E+02 0.29097383387E+02 0.32253622534E+02 0.32252316445E+02 0.29095253426E+02
 0.38019831419E+02 0.29262681554E+02 0.20659862678E+02 0.14084756877E+02 0.10276980711E+02
 0.86475361672E+01 0.77979622124E+01 0.72689343207E+01 0.70950063479E+01 0.72689049076E+01
 0.77980085981E+01 0.86473046249E+01 0.10275851907E+02 0.14083085910E+02 0.20659534118E+02
 0.29265506118E+02 0.38025110980E+02 0.44588579856E+02 0.47023248513E+02 0.44584286454E+02
 0.55365514329E+02 0.44699488093E+02 0.32513159413E+02 0.21681201057E+02 0.14083003192E+02
 0.10070664413E+02 0.85092859290E+01 0.76938026341E+01 0.72700740482E+01 0.72703419887E+01
 0.76941787817E+01 0.85091123226E+01 0.10070098631E+02 0.14083085109E+02 0.21682790589E+02
 0.32516006979E+02 0.44702466344E+02 0.55367576939E+02 0.61611983172E+02 0.61611274891E+02
 0.72387722949E+02 0.61673053276E+02 0.47179122698E+02 0.32514726107E+02 0.20658327623E+02
 0.13099023371E+02 0.95472901637E+01 0.82584001105E+01 0.75548437588E+01 0.73140522931E+01
 0.75554052572E+01 0.82585134494E+01 0.95467433329E+01 0.13099073037E+02 0.20659825101E+02
 0.32516237136E+02 0.47178129440E+02 0.61669245646E+02 0.72384123885E+02 0.76343907430E+02
 0.84929428114E+02 0.76364831745E+02 0.61673614521E+02 0.44704000911E+02 0.29265440687E+02
 0.17949284143E+02 0.11520089084E+02 0.89149226779E+01 0.79266359098E+01 0.74153664029E+01
 0.74156562839E+01 0.79269735040E+01 0.89146500936E+01 0.11519682124E+02 0.17949670154E+02
 0.29266066820E+02 0.44702677969E+02 0.61669120464E+02 0.76359254836E+02 0.84926868860E+02
 0.56296985004E+02 0.53389938053E+02 0.45516383504E+02 0.34886769697E+02 0.24236338670E+02
 0.15842839892E+02 0.10759735374E+02 0.85277541598E+01 0.75607830346E+01 0.69644501203E+01
 0.67656438319E+01 0.69645211702E+01 0.75608490574E+01 0.85277525736E+01 0.10759684651E+02
 0.15842806285E+02 0.24236353322E+02 0.34886802628E+02 0.45516395960E+02 0.53389931955E+02
 0.53391325188E+02 0.53390134352E+02 0.47980652851E+02 0.38729689930E+02 0.28162304434E+02
 0.18823435236E+02 0.12380570621E+02 0.90826894979E+01 0.77857240746E+01 0.70323489481E+01