   2   2   0   0
  0.9638209E+01  0.2330000E-09  0.2330000E-09  0.4100000E-09  0.5000000E-15
  1.000000000000000E-004
  CAR 
 unknown system                          
     74.35975068     -5.29638838  301      7.64991431      1.00000000
     -5.296  0.0000E+00  0.0000E+00
     -5.031  0.0000E+00  0.0000E+00
     -4.765  0.0000E+00  0.0000E+00
     -4.500  0.0000E+00  0.0000E+00
     -4.234  0.0000E+00  0.0000E+00
     -3.969  0.0000E+00  0.0000E+00
     -3.703  0.0000E+00  0.0000E+00
     -3.438 -0.2909E-34 -0.7723E-35
     -3.172 -0.6124E-25 -0.1626E-25
     -2.907 -0.3677E-17 -0.9764E-18
     -2.641 -0.5940E-11 -0.1577E-11
     -2.376 -0.2622E-06 -0.6963E-07
     -2.110 -0.2651E-03 -0.7047E-04
     -1.845  0.1992E-03 -0.1759E-04
     -1.579  0.4863E-01  0.1290E-01
     -1.314  0.5467E-01  0.2741E-01
     -1.048  0.8169E-01  0.4910E-01
     -0.783 -0.4007E-02  0.4804E-01
     -0.517 -0.4699E-02  0.4679E-01
     -0.251  0.3833E-01  0.5697E-01
      0.014  0.3961E+00  0.1621E+00
      0.280  0.5592E+00  0.3106E+00
      0.545  0.2339E+00  0.3727E+00
      0.811 -0.3169E-01  0.3643E+00
      1.076  0.1650E+00  0.4081E+00
      1.342  0.6976E+00  0.5933E+00
      1.607 -0.2146E-02  0.5928E+00
      1.873 -0.1396E-01  0.5891E+00
      2.138  0.5577E-01  0.6039E+00
      2.404  0.2344E+01  0.1226E+01
      2.669  0.2050E+01  0.1771E+01
      2.935  0.1613E+01  0.2199E+01
      3.200  0.3345E+01  0.3087E+01
      3.466  0.2314E+01  0.3701E+01
      3.731  0.2470E+01  0.4357E+01
      3.997  0.8659E+00  0.4587E+01
      4.262  0.3800E+01  0.5596E+01
      4.528  0.4156E+01  0.6699E+01
      4.793  0.2102E+01  0.7258E+01
      5.059  0.1614E+01  0.7686E+01
      5.324  0.3759E+01  0.8684E+01
      5.590  0.3877E+01  0.9714E+01
      5.855  0.2735E+01  0.1044E+02
      6.121  0.3476E+01  0.1136E+02
      6.387  0.2541E+01  0.1204E+02
      6.652  0.3533E+01  0.1298E+02
      6.918  0.4454E+01  0.1416E+02
      7.183  0.4071E+01  0.1524E+02
      7.449  0.1864E+01  0.1573E+02
      7.714  0.1568E+01  0.1615E+02
      7.980  0.2805E+01  0.1690E+02
      8.245  0.3915E+01  0.1793E+02
      8.511  0.4472E+01  0.1912E+02
      8.776  0.6525E+01  0.2085E+02
      9.042  0.1628E+01  0.2129E+02
      9.307  0.9778E+00  0.2155E+02
      9.573  0.9166E+00  0.2179E+02
      9.838  0.1343E-01  0.2179E+02
     10.104 -0.1726E-01  0.2179E+02
     10.369  0.4856E-01  0.2180E+02
     10.635  0.1771E+01  0.2227E+02
     10.900  0.3955E+00  0.2238E+02
     11.166 -0.3388E-01  0.2237E+02
     11.431 -0.1822E-02  0.2237E+02
     11.697  0.2377E-02  0.2237E+02
     11.962  0.3126E+00  0.2245E+02
     12.228  0.3394E-01  0.2246E+02
     12.493  0.2460E+00  0.2253E+02
     12.759  0.7711E+00  0.2273E+02
     13.025  0.1614E+01  0.2316E+02
     13.290  0.6729E+00  0.2334E+02
     13.556  0.1591E+00  0.2338E+02
     13.821  0.5320E+00  0.2352E+02
     14.087  0.1829E+00  0.2357E+02
     14.352  0.7859E+00  0.2378E+02
     14.618  0.1186E+00  0.2381E+02
     14.883  0.3971E-01  0.2382E+02
     15.149  0.3074E+00  0.2390E+02
     15.414  0.5636E-01  0.2392E+02
     15.680  0.6306E+00  0.2408E+02
     15.945  0.1141E+00  0.2411E+02
     16.211 -0.2279E-01  0.2411E+02
     16.476  0.2274E+00  0.2417E+02
     16.742  0.2514E+00  0.2424E+02
     17.007  0.2986E+00  0.2432E+02
     17.273  0.8192E-01  0.2434E+02
     17.538 -0.3856E-01  0.2433E+02
     17.804  0.5628E+00  0.2448E+02
     18.069  0.1952E+01  0.2499E+02
     18.335  0.4470E+00  0.2511E+02
     18.600 -0.3617E-01  0.2510E+02
     18.866  0.8728E+00  0.2534E+02
     19.131  0.6363E+00  0.2550E+02
     19.397  0.9015E+00  0.2574E+02
     19.663  0.7800E+00  0.2595E+02
     19.928  0.7582E+00  0.2615E+02
     20.194  0.1102E+01  0.2644E+02
     20.459  0.3776E+00  0.2654E+02
     20.725  0.3730E+00  0.2664E+02
     20.990  0.8260E+00  0.2686E+02
     21.256 -0.5480E-02  0.2686E+02
     21.521  0.2170E+00  0.2692E+02
     21.787  0.1051E+01  0.2720E+02
     22.052  0.1288E+01  0.2754E+02
     22.318  0.1373E+00  0.2758E+02
     22.583  0.5821E+00  0.2773E+02
     22.849  0.1232E+01  0.2806E+02
     23.114  0.5620E+00  0.2821E+02
     23.380  0.1139E+01  0.2851E+02
     23.645  0.1196E+01  0.2883E+02
     23.911  0.4319E+00  0.2894E+02
     24.176  0.1353E+00  0.2898E+02
     24.442 -0.1098E-01  0.2898E+02
     24.707  0.6051E+00  0.2914E+02
     24.973  0.2329E+00  0.2920E+02
     25.238  0.1126E+01  0.2950E+02
     25.504  0.1426E+01  0.2988E+02
     25.770  0.8718E+00  0.3011E+02
     26.035  0.7761E+00  0.3031E+02
     26.301  0.1582E+01  0.3073E+02
     26.566  0.8981E+00  0.3097E+02
     26.832  0.7829E+00  0.3118E+02
     27.097  0.1270E+01  0.3152E+02
     27.363  0.5241E+00  0.3166E+02
     27.628  0.1444E+01  0.3204E+02
     27.894  0.2942E+00  0.3212E+02
     28.159  0.1328E+01  0.3247E+02
     28.425  0.6621E+00  0.3265E+02
     28.690  0.5962E+00  0.3280E+02
     28.956  0.1177E+01  0.3312E+02
     29.221  0.4069E+00  0.3322E+02
     29.487  0.6663E+00  0.3340E+02
     29.752  0.5666E+00  0.3355E+02
     30.018  0.2215E+00  0.3361E+02
     30.283  0.1521E+00  0.3365E+02
     30.549 -0.3777E-01  0.3364E+02
     30.814  0.3606E+00  0.3374E+02
     31.080  0.9490E+00  0.3399E+02
     31.345  0.1114E+01  0.3428E+02
     31.611  0.1389E+01  0.3465E+02
     31.876  0.2178E+01  0.3523E+02
     32.142  0.8972E+00  0.3547E+02
     32.408  0.4401E+00  0.3559E+02
     32.673  0.1476E+01  0.3598E+02
     32.939  0.1787E+01  0.3645E+02
     33.204  0.3957E+00  0.3656E+02
     33.470  0.5935E+00  0.3672E+02
     33.735  0.1362E+00  0.3675E+02
     34.001  0.5146E+00  0.3689E+02
     34.266  0.1702E+01  0.3734E+02
     34.532  0.1221E+01  0.3766E+02
     34.797  0.9420E+00  0.3791E+02
     35.063  0.5403E+00  0.3806E+02
     35.328 -0.5838E-01  0.3804E+02
     35.594  0.2350E+00  0.3810E+02
     35.859  0.1213E+01  0.3843E+02
     36.125  0.3526E+00  0.3852E+02
     36.390  0.4688E+00  0.3865E+02
     36.656  0.5950E+00  0.3880E+02
     36.921  0.7386E+00  0.3900E+02
     37.187  0.9895E+00  0.3926E+02
     37.452  0.1385E+01  0.3963E+02
     37.718  0.1783E+00  0.3968E+02
     37.983  0.1212E+01  0.4000E+02
     38.249  0.1424E+01  0.4038E+02
     38.514  0.8658E+00  0.4061E+02
     38.780  0.2531E+00  0.4067E+02
     39.046  0.8669E-01  0.4070E+02
     39.311  0.9371E+00  0.4095E+02
     39.577  0.9860E+00  0.4121E+02
     39.842  0.2258E+01  0.4181E+02
     40.108  0.1232E+00  0.4184E+02
     40.373  0.3534E+00  0.4193E+02
     40.639  0.8948E+00  0.4217E+02
     40.904  0.1535E+01  0.4258E+02
     41.170  0.5888E+00  0.4274E+02
     41.435  0.3898E+00  0.4284E+02
     41.701  0.1076E+01  0.4312E+02
     41.966  0.1791E+01  0.4360E+02
     42.232  0.7691E+00  0.4380E+02
     42.497  0.6484E+00  0.4398E+02
     42.763  0.5884E+00  0.4413E+02
     43.028  0.4072E+00  0.4424E+02
     43.294  0.1364E+01  0.4460E+02
     43.559  0.7934E+00  0.4481E+02
     43.825  0.1745E+01  0.4528E+02
     44.090  0.8285E+00  0.4550E+02
     44.356  0.9510E+00  0.4575E+02
     44.621  0.7765E+00  0.4596E+02
     44.887  0.1853E+01  0.4645E+02
     45.152  0.4801E+00  0.4658E+02
     45.418  0.8622E+00  0.4680E+02
     45.684  0.1945E+01  0.4732E+02
     45.949  0.8393E+00  0.4754E+02
     46.215  0.5072E+00  0.4768E+02
     46.480  0.9517E+00  0.4793E+02
     46.746  0.1303E+01  0.4828E+02
     47.011  0.9207E+00  0.4852E+02
     47.277  0.1680E+01  0.4897E+02
     47.542  0.4844E+00  0.4910E+02
     47.808  0.1177E+01  0.4941E+02
     48.073  0.2052E+00  0.4946E+02
     48.339  0.7628E+00  0.4967E+02
     48.604  0.6720E+00  0.4984E+02
     48.870 -0.4847E-01  0.4983E+02
     49.135  0.8064E+00  0.5004E+02
     49.401  0.1918E+01  0.5055E+02
     49.666  0.9001E+00  0.5079E+02
     49.932  0.8272E+00  0.5101E+02
     50.197  0.1342E+01  0.5137E+02
     50.463  0.1717E+01  0.5182E+02
     50.728  0.2098E+01  0.5238E+02
     50.994  0.5794E+00  0.5254E+02
     51.259  0.5957E+00  0.5269E+02
     51.525  0.4573E+00  0.5282E+02
     51.791  0.2863E+00  0.5289E+02
     52.056  0.4815E+00  0.5302E+02
     52.322  0.5334E+00  0.5316E+02
     52.587  0.1086E+01  0.5345E+02
     52.853  0.1002E+01  0.5372E+02
     53.118  0.4090E+00  0.5382E+02
     53.384  0.1537E+01  0.5423E+02
     53.649  0.4216E+00  0.5434E+02
     53.915  0.9851E+00  0.5461E+02
     54.180  0.2132E+01  0.5517E+02
     54.446  0.2014E+01  0.5571E+02
     54.711  0.1554E+01  0.5612E+02
     54.977  0.1099E+01  0.5641E+02
     55.242  0.9718E+00  0.5667E+02
     55.508  0.8001E+00  0.5688E+02
     55.773  0.1210E+01  0.5720E+02
     56.039  0.4493E+00  0.5732E+02
     56.304  0.9877E+00  0.5758E+02
     56.570  0.1599E+01  0.5801E+02
     56.835  0.1213E+01  0.5833E+02
     57.101  0.2140E+01  0.5890E+02
     57.366  0.1690E+01  0.5935E+02
     57.632  0.2096E+01  0.5990E+02
     57.897  0.2128E+01  0.6047E+02
     58.163  0.1641E+01  0.6091E+02
     58.429  0.2056E+01  0.6145E+02
     58.694  0.9946E+00  0.6172E+02
     58.960  0.2490E+01  0.6238E+02
     59.225  0.1720E+01  0.6283E+02
     59.491  0.1178E+01  0.6315E+02
     59.756  0.1957E+01  0.6367E+02
     60.022  0.1425E+01  0.6404E+02
     60.287  0.3592E+00  0.6414E+02
     60.553  0.1306E+01  0.6449E+02
     60.818  0.1851E+01  0.6498E+02
     61.084  0.5002E+00  0.6511E+02
     61.349  0.5900E+00  0.6527E+02
     61.615  0.2846E+01  0.6602E+02
     61.880  0.2534E+01  0.6670E+02
     62.146  0.1803E+01  0.6717E+02
     62.411  0.1985E+01  0.6770E+02
     62.677  0.2524E+01  0.6837E+02
     62.942  0.1559E+01  0.6879E+02
     63.208  0.3314E+00  0.6887E+02
     63.473  0.1188E+01  0.6919E+02
     63.739  0.3220E+01  0.7004E+02
     64.004  0.1626E+01  0.7048E+02
     64.270  0.1598E+01  0.7090E+02
     64.535  0.4659E+00  0.7102E+02
     64.801  0.1089E+01  0.7131E+02
     65.067  0.2366E+01  0.7194E+02
     65.332  0.2803E+01  0.7269E+02
     65.598  0.1434E+01  0.7307E+02
     65.863  0.1882E+01  0.7357E+02
     66.129  0.1538E+01  0.7397E+02
     66.394  0.9320E+00  0.7422E+02
     66.660  0.9912E+00  0.7449E+02
     66.925  0.1163E+01  0.7479E+02
     67.191  0.3064E+01  0.7561E+02
     67.456  0.1296E+01  0.7595E+02
     67.722  0.4125E+00  0.7606E+02
     67.987  0.6737E+00  0.7624E+02
     68.253  0.1775E+01  0.7671E+02
     68.518  0.2713E+01  0.7743E+02
     68.784  0.9637E+00  0.7769E+02
     69.049  0.1201E+01  0.7801E+02
     69.315  0.1751E+01  0.7847E+02
     69.580  0.1893E+01  0.7897E+02
     69.846  0.1140E+01  0.7928E+02
     70.111  0.6098E+00  0.7944E+02
     70.377  0.3391E+00  0.7953E+02
     70.642  0.1090E+01  0.7982E+02
     70.908  0.6964E+00  0.8000E+02
     71.174 -0.6780E-02  0.8000E+02
     71.439 -0.3200E-02  0.8000E+02
     71.705 -0.3147E-05  0.8000E+02
     71.970 -0.7128E-10  0.8000E+02
     72.236  0.0000E+00  0.8000E+02
     72.501  0.0000E+00  0.8000E+02
     72.767  0.0000E+00  0.8000E+02
     73.032  0.0000E+00  0.8000E+02
     73.298  0.0000E+00  0.8000E+02
     73.563  0.0000E+00  0.8000E+02
     73.829  0.0000E+00  0.8000E+02
     74.094  0.0000E+00  0.8000E+02
     74.360  0.0000E+00  0.8000E+02
