unknown system                          
   1.00000000000000     
     3.374435    0.000000    0.000000
     0.000000    3.374435    0.000000
     0.000000    0.000000    3.374435
   Cu
     4
Direct
  0.000000  0.000000  0.000000
  0.500000  0.500000  0.000000
  0.500000  0.000000  0.500000
  0.000000  0.500000  0.500000
 
   32   32   32
  671.90      638.47      547.48      422.49      291.39      177.33      94.028      44.750      23.234      16.587    
  13.069      10.779      9.4438      8.7066      8.2732      7.9974      7.8931      7.9974      8.2732      8.7066    
  9.4438      10.779      13.069      16.587      23.234      44.750      94.028      177.33      291.39      422.49    
  547.48      638.47      638.47      606.59      519.82      400.64      275.75      167.36      88.600      42.440    
  22.593      16.427      13.005      10.789      9.4984      8.7853      8.3653      8.0983      7.9974      8.0983    
  8.3653      8.7853      9.4984      10.789      13.005      16.427      22.593      42.440      88.600      167.36    
  275.75      400.64      519.82      606.59      547.48      519.82      444.53      341.24      233.39      140.56    
  74.218      36.486      21.014      15.973      12.825      10.814      9.6467      8.9968      8.6105      8.3653    
  8.2732      8.3653      8.6105      8.9968      9.6467      10.814      12.825      15.973      21.014      36.486    
  74.218      140.56      233.39      341.24      444.53      519.82      422.49      400.64      341.24      260.04    
  175.96      104.86      55.686      29.270      19.232      15.300      12.579      10.874      9.8870      9.3313    
  8.9968      8.7853      8.7066      8.7853      8.9968      9.3313      9.8870      10.874      12.579      15.300    
  19.232      29.270      55.686      104.86      175.96      260.04      341.24      400.64      291.39      275.75    
  233.39      175.96      117.54      69.727      38.504      23.242      17.709      14.539      12.365      11.044    
  10.297      9.8870      9.6467      9.4984      9.4438      9.4984      9.6467      9.8870      10.297      11.044    
  12.365      14.539      17.709      23.242      38.504      69.727      117.54      175.96      233.39      275.75    
  177.33      167.36      140.56      104.86      69.727      42.584      26.495      19.536      16.264      13.858    
  12.319      11.461      11.044      10.874      10.814      10.789      10.779      10.789      10.814      10.874    
  11.044      11.461      12.319      13.858      16.264      19.536      26.495      42.584      69.727      104.86    
  140.56      167.36      94.028      88.600      74.218      55.686      38.504      26.495      20.294      17.279    
  14.989      13.444      12.614      12.319      12.365      12.579      12.825      13.005      13.069      13.005    
  12.825      12.579      12.365      12.319      12.614      13.444      14.989      17.279      20.294      26.495    
  38.504      55.686      74.218      88.600      44.750      42.440      36.486      29.270      23.242      19.536    
  17.279      15.415      14.118      13.481      13.444      13.858      14.539      15.300      15.973      16.427    
  16.587      16.427      15.973      15.300      14.539      13.858      13.444      13.481      14.118      15.415    
  17.279      19.536      23.242      29.270      36.486      42.440      23.234      22.593      21.014      19.232    
  17.709      16.264      14.989      14.118      13.808      14.118      14.989      16.264      17.709      19.232    
  21.014      22.593      23.234      22.593      21.014      19.232      17.709      16.264      14.989      14.118    
  13.808      14.118      14.989      16.264      17.709      19.232      21.014      22.593      16.587      16.427    
  15.973      15.300      14.539      13.858      13.444      13.481      14.118      15.415      17.279      19.536    
  23.242      29.270      36.486      42.440      44.750      42.440      36.486      29.270      23.242      19.536    
  17.279      15.415      14.118      13.481      13.444      13.858      14.539      15.300      15.973      16.427    
  13.069      13.005      12.825      12.579      12.365      12.319      12.614      13.444      14.989      17.279    
  20.294      26.495      38.504      55.686      74.218      88.600      94.028      88.600      74.218      55.686    
  38.504      26.495      20.294      17.279      14.989      13.444      12.614      12.319      12.365      12.579    
  12.825      13.005      10.779      10.789      10.814      10.874      11.044      11.461      12.319      13.858    
  16.264      19.536      26.495      42.584      69.727      104.86      140.56      167.36      177.33      167.36    
  140.56      104.86      69.727      42.584      26.495      19.536      16.264      13.858      12.319      11.461    
  11.044      10.874      10.814      10.789      9.4438      9.4984      9.6467      9.8870      10.297      11.044    
  12.365      14.539      17.709      23.242      38.504      69.727      117.54      175.96      233.39      275.75    
  291.39      275.75      233.39      175.96      117.54      69.727      38.504      23.242      17.709      14.539    
  12.365      11.044      10.297      9.8870      9.6467      9.4984      8.7066      8.7853      8.9968      9.3313    
  9.8870      10.874      12.579      15.300      19.232      29.270      55.686      104.86      175.96      260.04    
  341.24      400.64      422.49      400.64      341.24      260.04      175.96      104.86      55.686      29.270    
  19.232      15.300      12.579      10.874      9.8870      9.3313      8.9968      8.7853      8.2732      8.3653    
  8.6105      8.9968      9.6467      10.814      12.825      15.973      21.014      36.486      74.218      140.56    
  233.39      341.24      444.53      519.82      547.48      519.82      444.53      341.24      233.39      140.56    
  74.218      36.486      21.014      15.973      12.825      10.814      9.6467      8.9968      8.6105      8.3653    
  7.9974      8.0983      8.3653      8.7853      9.4984      10.789      13.005      16.427      22.593      42.440    
  88.600      167.36      275.75      400.64      519.82      606.59      638.47      606.59      519.82      400.64    
  275.75      167.36      88.600      42.440      22.593      16.427      13.005      10.789      9.4984      8.7853    
  8.3653      8.0983      7.8931      7.9974      8.2732      8.7066      9.4438      10.779      13.069      16.587    
  23.234      44.750      94.028      177.33      291.39      422.49      547.48      638.47      671.90      638.47    
  547.48      422.49      291.39      177.33      94.028      44.750      23.234      16.587      13.069      10.779    
  9.4438      8.7066      8.2732      7.9974      7.9974      8.0983      8.3653      8.7853      9.4984      10.789    
  13.005      16.427      22.593      42.440      88.600      167.36      275.75      400.64      519.82      606.59    
  638.47      606.59      519.82      400.64      275.75      167.36      88.600      42.440      22.593      16.427    
  13.005      10.789      9.4984      8.7853      8.3653      8.0983      8.2732      8.3653      8.6105      8.9968    
  9.6467      10.814      12.825      15.973      21.014      36.486      74.218      140.56      233.39      341.24    
  444.53      519.82      547.48      519.82      444.53      341.24      233.39      140.56      74.218      36.486    
  21.014      15.973      12.825      10.814      9.6467      8.9968      8.6105      8.3653      8.7066      8.7853    
  8.9968      9.3313      9.8870      10.874      12.579      15.300      19.232      29.270      55.686      104.86    
  175.96      260.04      341.24      400.64      422.49      400.64      341.24      260.04      175.96      104.86    
  55.686      29.270      19.232      15.300      12.579      10.874      9.8870      9.3313      8.9968      8.7853    
  9.4438      9.4984      9.6467      9.8870      10.297      11.044      12.365      14.539      17.709      23.242    
  38.504      69.727      117.54      175.96      233.39      275.75      291.39      275.75      233.39      175.96    
  117.54      69.727      38.504      23.242      17.709      14.539      12.365      11.044      10.297      9.8870    
  9.6467      9.4984      10.779      10.789      10.814      10.874      11.044      11.461      12.319      13.858    
  16.264      19.536      26.495      42.584      69.727      104.86      140.56      167.36      177.33      167.36    
  140.56      104.86      69.727      42.584      26.495      19.536      16.264      13.858      12.319      11.461    
  11.044      10.874      10.814      10.789      13.069      13.005      12.825      12.579      12.365      12.319    
  12.614      13.444      14.989      17.279      20.294      26.495      38.504      55.686      74.218      88.600    
  94.028      88.600      74.218      55.686      38.504      26.495      20.294      17.279      14.989      13.444    
  12.614      12.319      12.365      12.579      12.825      13.005      16.587      16.427      15.973      15.300    
  14.539      13.858      13.444      13.481      14.118      15.415      17.279      19.536      23.242      29.270    
  36.486      42.440      44.750      42.440      36.486      29.270      23.242      19.536      17.279      15.415    
  14.118      13.481      13.444      13.858      14.539      15.300      15.973      16.427      23.234      22.593    
  21.014      19.232      17.709      16.264      14.989      14.118      13.808      14.118      14.989      16.264    
  17.709      19.232      21.014      22.593      23.234      22.593      21.014      19.232      17.709      16.264    
  14.989      14.118      13.808      14.118      14.989      16.264      17.709      19.232      21.014      22.593    
  44.750      42.440      36.486      29.270      23.242      19.536      17.279      15.415      14.118      13.481    
  13.444      13.858      14.539      15.300      15.973      16.427      16.587      16.427      15.973      15.300    
  14.539      13.858      13.444      13.481      14.118      15.415      17.279      19.536      23.242      29.270    
  36.486      42.440      94.028      88.600      74.218      55.686      38.504      26.495      20.294      17.279    
  14.989      13.444      12.614      12.319      12.365      12.579      12.825      13.005      13.069      13.005    
  12.825      12.579      12.365      12.319      12.614      13.444      14.989      17.279      20.294      26.495    
  38.504      55.686      74.218      88.600      177.33      167.36      140.56      104.86      69.727      42.584    
  26.495      19.536      16.264      13.858      12.319      11.461      11.044      10.874      10.814      10.789    
  10.779      10.789      10.814      10.874      11.044      11.461      12.319      13.858      16.264      19.536    
  26.495      42.584      69.727      104.86      140.56      167.36      291.39      275.75      233.39      175.96    
  117.54      69.727      38.504      23.242      17.709      14.539      12.365      11.044      10.297      9.8870    
  9.6467      9.4984      9.4438      9.4984      9.6467      9.8870      10.297      11.044      12.365      14.539    
  17.709      23.242      38.504      69.727      117.54      175.96      233.39      275.75      422.49      400.64    
  341.24      260.04      175.96      104.86      55.686      29.270      19.232      15.300      12.579      10.874    
  9.8870      9.3313      8.9968      8.7853      8.7066      8.7853      8.9968      9.3313      9.8870      10.874    
  12.579      15.300      19.232      29.270      55.686      104.86      175.96      260.04      341.24      400.64    
  547.48      519.82      444.53      341.24      233.39      140.56      74.218      36.486      21.014      15.973    
  12.825      10.814      9.6467      8.9968      8.6105      8.3653      8.2732      8.3653      8.6105      8.9968    
  9.6467      10.814      12.825      15.973      21.014      36.486      74.218      140.56      233.39      341.24    
  444.53      519.82      638.47      606.59      519.82      400.64      275.75      167.36      88.600      42.440    
  22.593      16.427      13.005      10.789      9.4984      8.7853      8.3653      8.0983      7.9974      8.0983    
  8.3653      8.7853      9.4984      10.789      13.005      16.427      22.593      42.440      88.600      167.36    
  275.75      400.64      519.82      606.59      638.47      606.59      519.82      400.64      275.75      167.36    
  88.600      42.440      22.593      16.427      13.005      10.789      9.4984      8.7853      8.3653      8.0983    
  7.9974      8.0983      8.3653      8.7853      9.4984      10.789      13.005      16.427      22.593      42.440    
  88.600      167.36      275.75      400.64      519.82      606.59      606.59      576.18      493.44      379.82    
  260.88      157.92      83.494      40.296      22.010      16.269      12.941      10.797      9.5510      8.8614    
  8.4544      8.1959      8.0983      8.1959      8.4544      8.8614      9.5510      10.797      12.941      16.269    
  22.010      40.296      83.494      157.92      260.88      379.82      493.44      576.18      519.82      493.44    
  421.67      323.24      220.61      132.55      69.988      34.783      20.574      15.821      12.765      10.821    
  9.6941      9.0660      8.6918      8.4544      8.3653      8.4544      8.6918      9.0660      9.6941      10.821    
  12.765      15.821      20.574      34.783      69.988      132.55      220.61      323.24      421.67      493.44    
  400.64      379.82      323.24      245.96      166.11      98.838      52.644      28.136      18.945      15.160    
  12.524      10.878      9.9263      9.3897      9.0660      8.8614      8.7853      8.8614      9.0660      9.3897    
  9.9263      10.878      12.524      15.160      18.945      28.136      52.644      98.838      166.11      245.96    
  323.24      379.82      275.75      260.88      220.61      166.11      110.81      65.792      36.663      22.625    
  17.497      14.414      12.313      11.041      10.322      9.9263      9.6941      9.5510      9.4984      9.5510    
  9.6941      9.9263      10.322      11.041      12.313      14.414      17.497      22.625      36.663      65.792    
  110.81      166.11      220.61      260.88      167.36      157.92      132.55      98.838      65.792      40.450    
  25.603      19.236      16.079      13.748      12.265      11.440      11.041      10.878      10.821      10.797    
  10.789      10.797      10.821      10.878      11.041      11.440      12.265      13.748      16.079      19.236    
  25.603      40.450      65.792      98.838      132.55      157.92      88.600      83.494      69.988      52.644    
  36.663      25.603      19.941      17.060      14.835      13.343      12.545      12.265      12.313      12.524    
  12.765      12.941      13.005      12.941      12.765      12.524      12.313      12.265      12.545      13.343    
  14.835      17.060      19.941      25.603      36.663      52.644      69.988      83.494      42.440      40.296    
  34.783      28.136      22.625      19.236      17.060      15.244      13.987      13.375      13.343      13.748    
  14.414      15.160      15.821      16.269      16.427      16.269      15.821      15.160      14.414      13.748    
  13.343      13.375      13.987      15.244      17.060      19.236      22.625      28.136      34.783      40.296    
  22.593      22.010      20.574      18.945      17.497      16.079      14.835      13.987      13.687      13.987    
  14.835      16.079      17.497      18.945      20.574      22.010      22.593      22.010      20.574      18.945    
  17.497      16.079      14.835      13.987      13.687      13.987      14.835      16.079      17.497      18.945    
  20.574      22.010      16.427      16.269      15.821      15.160      14.414      13.748      13.343      13.375    
  13.987      15.244      17.060      19.236      22.625      28.136      34.783      40.296      42.440      40.296    
  34.783      28.136      22.625      19.236      17.060      15.244      13.987      13.375      13.343      13.748    
  14.414      15.160      15.821      16.269      13.005      12.941      12.765      12.524      12.313      12.265    
  12.545      13.343      14.835      17.060      19.941      25.603      36.663      52.644      69.988      83.494    
  88.600      83.494      69.988      52.644      36.663      25.603      19.941      17.060      14.835      13.343    
  12.545      12.265      12.313      12.524      12.765      12.941      10.789      10.797      10.821      10.878    
  11.041      11.440      12.265      13.748      16.079      19.236      25.603      40.450      65.792      98.838    
  132.55      157.92      167.36      157.92      132.55      98.838      65.792      40.450      25.603      19.236    
  16.079      13.748      12.265      11.440      11.041      10.878      10.821      10.797      9.4984      9.5510    
  9.6941      9.9263      10.322      11.041      12.313      14.414      17.497      22.625      36.663      65.792    
  110.81      166.11      220.61      260.88      275.75      260.88      220.61      166.11      110.81      65.792    
  36.663      22.625      17.497      14.414      12.313      11.041      10.322      9.9263      9.6941      9.5510    
  8.7853      8.8614      9.0660      9.3897      9.9263      10.878      12.524      15.160      18.945      28.136    
  52.644      98.838      166.11      245.96      323.24      379.82      400.64      379.82      323.24      245.96    
  166.11      98.838      52.644      28.136      18.945      15.160      12.524      10.878      9.9263      9.3897    
  9.0660      8.8614      8.3653      8.4544      8.6918      9.0660      9.6941      10.821      12.765      15.821    
  20.574      34.783      69.988      132.55      220.61      323.24      421.67      493.44      519.82      493.44    
  421.67      323.24      220.61      132.55      69.988      34.783      20.574      15.821      12.765      10.821    
  9.6941      9.0660      8.6918      8.4544      8.0983      8.1959      8.4544      8.8614      9.5510      10.797    
  12.941      16.269      22.010      40.296      83.494      157.92      260.88      379.82      493.44      576.18    
  606.59      576.18      493.44      379.82      260.88      157.92      83.494      40.296      22.010      16.269    
  12.941      10.797      9.5510      8.8614      8.4544      8.1959      7.9974      8.0983      8.3653      8.7853    
  9.4984      10.789      13.005      16.427      22.593      42.440      88.600      167.36      275.75      400.64    
  519.82      606.59      638.47      606.59      519.82      400.64      275.75      167.36      88.600      42.440    
  22.593      16.427      13.005      10.789      9.4984      8.7853      8.3653      8.0983      8.0983      8.1959    
  8.4544      8.8614      9.5510      10.797      12.941      16.269      22.010      40.296      83.494      157.92    
  260.88      379.82      493.44      576.18      606.59      576.18      493.44      379.82      260.88      157.92    
  83.494      40.296      22.010      16.269      12.941      10.797      9.5510      8.8614      8.4544      8.1959    
  8.3653      8.4544      8.6918      9.0660      9.6941      10.821      12.765      15.821      20.574      34.783    
  69.988      132.55      220.61      323.24      421.67      493.44      519.82      493.44      421.67      323.24    
  220.61      132.55      69.988      34.783      20.574      15.821      12.765      10.821      9.6941      9.0660    
  8.6918      8.4544      8.7853      8.8614      9.0660      9.3897      9.9263      10.878      12.524      15.160    
  18.945      28.136      52.644      98.838      166.11      245.96      323.24      379.82      400.64      379.82    
  323.24      245.96      166.11      98.838      52.644      28.136      18.945      15.160      12.524      10.878    
  9.9263      9.3897      9.0660      8.8614      9.4984      9.5510      9.6941      9.9263      10.322      11.041    
  12.313      14.414      17.497      22.625      36.663      65.792      110.81      166.11      220.61      260.88    
  275.75      260.88      220.61      166.11      110.81      65.792      36.663      22.625      17.497      14.414    
  12.313      11.041      10.322      9.9263      9.6941      9.5510      10.789      10.797      10.821      10.878    
  11.041      11.440      12.265      13.748      16.079      19.236      25.603      40.450      65.792      98.838    
  132.55      157.92      167.36      157.92      132.55      98.838      65.792      40.450      25.603      19.236    
  16.079      13.748      12.265      11.440      11.041      10.878      10.821      10.797      13.005      12.941    
  12.765      12.524      12.313      12.265      12.545      13.343      14.835      17.060      19.941      25.603    
  36.663      52.644      69.988      83.494      88.600      83.494      69.988      52.644      36.663      25.603    
  19.941      17.060      14.835      13.343      12.545      12.265      12.313      12.524      12.765      12.941    
  16.427      16.269      15.821      15.160      14.414      13.748      13.343      13.375      13.987      15.244    
  17.060      19.236      22.625      28.136      34.783      40.296      42.440      40.296      34.783      28.136    
  22.625      19.236      17.060      15.244      13.987      13.375      13.343      13.748      14.414      15.160    
  15.821      16.269      22.593      22.010      20.574      18.945      17.497      16.079      14.835      13.987    
  13.687      13.987      14.835      16.079      17.497      18.945      20.574      22.010      22.593      22.010    
  20.574      18.945      17.497      16.079      14.835      13.987      13.687      13.987      14.835      16.079    
  17.497      18.945      20.574      22.010      42.440      40.296      34.783      28.136      22.625      19.236    
  17.060      15.244      13.987      13.375      13.343      13.748      14.414      15.160      15.821      16.269    
  16.427      16.269      15.821      15.160      14.414      13.748      13.343      13.375      13.987      15.244    
  17.060      19.236      22.625      28.136      34.783      40.296      88.600      83.494      69.988      52.644    
  36.663      25.603      19.941      17.060      14.835      13.343      12.545      12.265      12.313      12.524    
  12.765      12.941      13.005      12.941      12.765      12.524      12.313      12.265      12.545      13.343    
  14.835      17.060      19.941      25.603      36.663      52.644      69.988      83.494      167.36      157.92    
  132.55      98.838      65.792      40.450      25.603      19.236      16.079      13.748      12.265      11.440    
  11.041      10.878      10.821      10.797      10.789      10.797      10.821      10.878      11.041      11.440    
  12.265      13.748      16.079      19.236      25.603      40.450      65.792      98.838      132.55      157.92    
  275.75      260.88      220.61      166.11      110.81      65.792      36.663      22.625      17.497      14.414    
  12.313      11.041      10.322      9.9263      9.6941      9.5510      9.4984      9.5510      9.6941      9.9263    
  10.322      11.041      12.313      14.414      17.497      22.625      36.663      65.792      110.81      166.11    
  220.61      260.88      400.64      379.82      323.24      245.96      166.11      98.838      52.644      28.136    
  18.945      15.160      12.524      10.878      9.9263      9.3897      9.0660      8.8614      8.7853      8.8614    
  9.0660      9.3897      9.9263      10.878      12.524      15.160      18.945      28.136      52.644      98.838    
  166.11      245.96      323.24      379.82      519.82      493.44      421.67      323.24      220.61      132.55    
  69.988      34.783      20.574      15.821      12.765      10.821      9.6941      9.0660      8.6918      8.4544    
  8.3653      8.4544      8.6918      9.0660      9.6941      10.821      12.765      15.821      20.574      34.783    
  69.988      132.55      220.61      323.24      421.67      493.44      606.59      576.18      493.44      379.82    
  260.88      157.92      83.494      40.296      22.010      16.269      12.941      10.797      9.5510      8.8614    
  8.4544      8.1959      8.0983      8.1959      8.4544      8.8614      9.5510      10.797      12.941      16.269    
  22.010      40.296      83.494      157.92      260.88      379.82      493.44      576.18      547.48      519.82    
  444.53      341.24      233.39      140.56      74.218      36.486      21.014      15.973      12.825      10.814    
  9.6467      8.9968      8.6105      8.3653      8.2732      8.3653      8.6105      8.9968      9.6467      10.814    
  12.825      15.973      21.014      36.486      74.218      140.56      233.39      341.24      444.53      519.82    
  519.82      493.44      421.67      323.24      220.61      132.55      69.988      34.783      20.574      15.821    
  12.765      10.821      9.6941      9.0660      8.6918      8.4544      8.3653      8.4544      8.6918      9.0660    
  9.6941      10.821      12.765      15.821      20.574      34.783      69.988      132.55      220.61      323.24    
  421.67      493.44      444.53      421.67      359.49      274.39      186.09      111.10      58.852      30.437    
  19.484      15.393      12.597      10.841      9.8241      9.2530      8.9095      8.6918      8.6105      8.6918    
  8.9095      9.2530      9.8241      10.841      12.597      15.393      19.484      30.437      58.852      111.10    
  186.09      274.39      359.49      421.67      341.24      323.24      274.39      207.87      139.58      82.805    
  44.712      25.278      18.203      14.767      12.371      10.890      10.035      9.5491      9.2530      9.0660    
  8.9968      9.0660      9.2530      9.5491      10.035      10.890      12.371      14.767      18.203      25.278    
  44.712      82.805      139.58      207.87      274.39      323.24      233.39      220.61      186.09      139.58    
  92.848      55.440      31.939      21.086      16.897      14.067      12.172      11.034      10.391      10.035    
  9.8241      9.6941      9.6467      9.6941      9.8241      10.035      10.391      11.034      12.172      14.067    
  16.897      21.086      31.939      55.440      92.848      139.58      186.09      220.61      140.56      132.55    
  111.10      82.805      55.440      34.942      23.364      18.445      15.561      13.446      12.118      11.387    
  11.034      10.890      10.841      10.821      10.814      10.821      10.841      10.890      11.034      11.387    
  12.118      13.446      15.561      18.445      23.364      34.942      55.440      82.805      111.10      132.55    
  74.218      69.988      58.852      44.712      31.939      23.364      19.027      16.442      14.408      13.066    
  12.358      12.118      12.172      12.371      12.597      12.765      12.825      12.765      12.597      12.371    
  12.172      12.118      12.358      13.066      14.408      16.442      19.027      23.364      31.939      44.712    
  58.852      69.988      36.486      34.783      30.437      25.278      21.086      18.445      16.442      14.769    
  13.630      13.083      13.066      13.446      14.067      14.767      15.393      15.821      15.973      15.821    
  15.393      14.767      14.067      13.446      13.066      13.083      13.630      14.769      16.442      18.445    
  21.086      25.278      30.437      34.783      21.014      20.574      19.484      18.203      16.897      15.561    
  14.408      13.630      13.355      13.630      14.408      15.561      16.897      18.203      19.484      20.574    
  21.014      20.574      19.484      18.203      16.897      15.561      14.408      13.630      13.355      13.630    
  14.408      15.561      16.897      18.203      19.484      20.574      15.973      15.821      15.393      14.767    
  14.067      13.446      13.066      13.083      13.630      14.769      16.442      18.445      21.086      25.278    
  30.437      34.783      36.486      34.783      30.437      25.278      21.086      18.445      16.442      14.769    
  13.630      13.083      13.066      13.446      14.067      14.767      15.393      15.821      12.825      12.765    
  12.597      12.371      12.172      12.118      12.358      13.066      14.408      16.442      19.027      23.364    
  31.939      44.712      58.852      69.988      74.218      69.988      58.852      44.712      31.939      23.364    
  19.027      16.442      14.408      13.066      12.358      12.118      12.172      12.371      12.597      12.765    
  10.814      10.821      10.841      10.890      11.034      11.387      12.118      13.446      15.561      18.445    
  23.364      34.942      55.440      82.805      111.10      132.55      140.56      132.55      111.10      82.805    
  55.440      34.942      23.364      18.445      15.561      13.446      12.118      11.387      11.034      10.890    
  10.841      10.821      9.6467      9.6941      9.8241      10.035      10.391      11.034      12.172      14.067    
  16.897      21.086      31.939      55.440      92.848      139.58      186.09      220.61      233.39      220.61    