unknown system                          
   1.00000000000000     
     3.374435    0.000000    0.000000
     0.000000    3.374435    0.000000
     0.000000    0.000000    3.374435
   Cu
     4
Direct
  0.000000  0.000000  0.000000
  0.500000  0.500000  0.000000
  0.500000  0.000000  0.500000
  0.000000  0.500000  0.500000
 
   32   32   32
 0.67190292266E+03 0.63846984994E+03 0.54748081977E+03 0.42248984797E+03 0.29139111793E+03
 0.17733132570E+03 0.94027979768E+02 0.44750046293E+02 0.23233736299E+02 0.16586878618E+02
 0.13069250009E+02 0.10779363043E+02 0.94438240923E+01 0.87065888370E+01 0.82731766806E+01
 0.79974441987E+01 0.78930681821E+01 0.79974441987E+01 0.82731766806E+01 0.87065888370E+01
 0.94438240923E+01 0.10779363043E+02 0.13069250009E+02 0.16586878618E+02 0.23233736299E+02
 0.44750046293E+02 0.94027979768E+02 0.17733132570E+03 0.29139111793E+03 0.42248984797E+03
 0.54748081977E+03 0.63846984994E+03 0.63846984994E+03 0.60658735947E+03 0.51981538684E+03
 0.40063904810E+03 0.27575320701E+03 0.16736310266E+03 0.88599777581E+02 0.42439824646E+02
 0.22593289723E+02 0.16427229802E+02 0.13004787291E+02 0.10788662716E+02 0.94983815990E+01
 0.87853077926E+01 0.83653200544E+01 0.80983397007E+01 0.79974441987E+01 0.80983397007E+01
 0.83653200544E+01 0.87853077926E+01 0.94983815990E+01 0.10788662716E+02 0.13004787291E+02
 0.16427229802E+02 0.22593289723E+02 0.42439824646E+02 0.88599777581E+02 0.16736310266E+03
 0.27575320701E+03 0.40063904810E+03 0.51981538684E+03 0.60658735947E+03 0.54748081977E+03
 0.51981538684E+03 0.44453215634E+03 0.34124462787E+03 0.23338959891E+03 0.14056140943E+03
 0.74217688076E+02 0.36486258026E+02 0.21013542365E+02 0.15972711512E+02 0.12824927070E+02
 0.10814268808E+02 0.96466606513E+01 0.89967895278E+01 0.86105106072E+01 0.83653200544E+01
 0.82731766806E+01 0.83653200544E+01 0.86105106072E+01 0.89967895278E+01 0.96466606513E+01
 0.10814268808E+02 0.12824927070E+02 0.15972711512E+02 0.21013542365E+02 0.36486258026E+02
 0.74217688076E+02 0.14056140943E+03 0.23338959891E+03 0.34124462787E+03 0.44453215634E+03
 0.51981538684E+03 0.42248984797E+03 0.40063904810E+03 0.34124462787E+03 0.26004097850E+03
 0.17596453994E+03 0.10486382020E+03 0.55685777659E+02 0.29270315744E+02 0.19232180603E+02
 0.15299946333E+02 0.12579411957E+02 0.10874268839E+02 0.98869680550E+01 0.93313057368E+01
 0.89967895278E+01 0.87853077926E+01 0.87065888370E+01 0.87853077926E+01 0.89967895278E+01
 0.93313057368E+01 0.98869680550E+01 0.10874268839E+02 0.12579411957E+02 0.15299946333E+02
 0.19232180603E+02 0.29270315744E+02 0.55685777659E+02 0.10486382020E+03 0.17596453994E+03
 0.26004097850E+03 0.34124462787E+03 0.40063904810E+03 0.29139111793E+03 0.27575320701E+03
 0.23338959891E+03 0.17596453994E+03 0.11754250094E+03 0.69726515485E+02 0.38504029386E+02
 0.23242411918E+02 0.17709377083E+02 0.14538587602E+02 0.12364939366E+02 0.11044073294E+02
 0.10297364982E+02 0.98869680550E+01 0.96466606513E+01 0.94983815990E+01 0.94438240923E+01
 0.94983815990E+01 0.96466606513E+01 0.98869680550E+01 0.10297364982E+02 0.11044073294E+02
 0.12364939366E+02 0.14538587602E+02 0.17709377083E+02 0.23242411918E+02 0.38504029386E+02
 0.69726515485E+02 0.11754250094E+03 0.17596453994E+03 0.23338959891E+03 0.27575320701E+03
 0.17733132570E+03 0.16736310266E+03 0.14056140943E+03 0.10486382020E+03 0.69726515485E+02
 0.42584497955E+02 0.26494926796E+02 0.19535714849E+02 0.16263790694E+02 0.13857904111E+02
 0.12319474718E+02 0.11461301374E+02 0.11044073294E+02 0.10874268839E+02 0.10814268808E+02
 0.10788662716E+02 0.10779363043E+02 0.10788662716E+02 0.10814268808E+02 0.10874268839E+02
 0.11044073294E+02 0.11461301374E+02 0.12319474718E+02 0.13857904111E+02 0.16263790694E+02
 0.19535714849E+02 0.26494926796E+02 0.42584497955E+02 0.69726515485E+02 0.10486382020E+03
 0.14056140943E+03 0.16736310266E+03 0.94027979768E+02 0.88599777581E+02 0.74217688076E+02
 0.55685777659E+02 0.38504029386E+02 0.26494926796E+02 0.20294369783E+02 0.17279163989E+02
 0.14989373455E+02 0.13444469773E+02 0.12613531286E+02 0.12319474718E+02 0.12364939366E+02
 0.12579411957E+02 0.12824927070E+02 0.13004787291E+02 0.13069250009E+02 0.13004787291E+02
 0.12824927070E+02 0.12579411957E+02 0.12364939366E+02 0.12319474718E+02 0.12613531286E+02
 0.13444469773E+02 0.14989373455E+02 0.17279163989E+02 0.20294369783E+02 0.26494926796E+02
 0.38504029386E+02 0.55685777659E+02 0.74217688076E+02 0.88599777581E+02 0.44750046293E+02
 0.42439824646E+02 0.36486258026E+02 0.29270315744E+02 0.23242411918E+02 0.19535714849E+02
 0.17279163989E+02 0.15414999121E+02 0.14117606385E+02 0.13481116929E+02 0.13444469773E+02
 0.13857904111E+02 0.14538587602E+02 0.15299946333E+02 0.15972711512E+02 0.16427229802E+02
 0.16586878618E+02 0.16427229802E+02 0.15972711512E+02 0.15299946333E+02 0.14538587602E+02
 0.13857904111E+02 0.13444469773E+02 0.13481116929E+02 0.14117606385E+02 0.15414999121E+02
 0.17279163989E+02 0.19535714849E+02 0.23242411918E+02 0.29270315744E+02 0.36486258026E+02
 0.42439824646E+02 0.23233736299E+02 0.22593289723E+02 0.21013542365E+02 0.19232180603E+02
 0.17709377083E+02 0.16263790694E+02 0.14989373455E+02 0.14117606385E+02 0.13808245549E+02
 0.14117606385E+02 0.14989373455E+02 0.16263790694E+02 0.17709377083E+02 0.19232180603E+02
 0.21013542365E+02 0.22593289723E+02 0.23233736299E+02 0.22593289723E+02 0.21013542365E+02
 0.19232180603E+02 0.17709377083E+02 0.16263790694E+02 0.14989373455E+02 0.14117606385E+02
 0.13808245549E+02 0.14117606385E+02 0.14989373455E+02 0.16263790694E+02 0.17709377083E+02
 0.19232180603E+02 0.21013542365E+02 0.22593289723E+02 0.16586878618E+02 0.16427229802E+02
 0.15972711512E+02 0.15299946333E+02 0.14538587602E+02 0.13857904111E+02 0.13444469773E+02
 0.13481116929E+02 0.14117606385E+02 0.15414999121E+02 0.17279163989E+02 0.19535714849E+02
 0.23242411918E+02 0.29270315744E+02 0.36486258026E+02 0.42439824646E+02 0.44750046293E+02
 0.42439824646E+02 0.36486258026E+02 0.29270315744E+02 0.23242411918E+02 0.19535714849E+02
 0.17279163989E+02 0.15414999121E+02 0.14117606385E+02 0.13481116929E+02 0.13444469773E+02
 0.13857904111E+02 0.14538587602E+02 0.15299946333E+02 0.15972711512E+02 0.16427229802E+02
 0.13069250009E+02 0.13004787291E+02 0.12824927070E+02 0.12579411957E+02 0.12364939366E+02
 0.12319474718E+02 0.12613531286E+02 0.13444469773E+02 0.14989373455E+02 0.17279163989E+02
 0.20294369783E+02 0.26494926796E+02 0.38504029386E+02 0.55685777659E+02 0.74217688076E+02
 0.88599777581E+02 0.94027979768E+02 0.88599777581E+02 0.74217688076E+02 0.55685777659E+02
 0.38504029386E+02 0.26494926796E+02 0.20294369783E+02 0.17279163989E+02 0.14989373455E+02
 0.13444469773E+02 0.12613531286E+02 0.12319474718E+02 0.12364939366E+02 0.12579411957E+02
 0.12824927070E+02 0.13004787291E+02 0.10779363043E+02 0.10788662716E+02 0.10814268808E+02
 0.10874268839E+02 0.11044073294E+02 0.11461301374E+02 0.12319474718E+02 0.13857904111E+02
 0.16263790694E+02 0.19535714849E+02 0.26494926796E+02 0.42584497955E+02 0.69726515485E+02
 0.10486382020E+03 0.14056140943E+03 0.16736310266E+03 0.17733132570E+03 0.16736310266E+03
 0.14056140943E+03 0.10486382020E+03 0.69726515485E+02 0.42584497955E+02 0.26494926796E+02
 0.19535714849E+02 0.16263790694E+02 0.13857904111E+02 0.12319474718E+02 0.11461301374E+02
 0.11044073294E+02 0.10874268839E+02 0.10814268808E+02 0.10788662716E+02 0.94438240923E+01
 0.94983815990E+01 0.96466606513E+01 0.98869680550E+01 0.10297364982E+02 0.11044073294E+02
 0.12364939366E+02 0.14538587602E+02 0.17709377083E+02 0.23242411918E+02 0.38504029386E+02
 0.69726515485E+02 0.11754250094E+03 0.17596453994E+03 0.23338959891E+03 0.27575320701E+03
 0.29139111793E+03 0.27575320701E+03 0.23338959891E+03 0.17596453994E+03 0.11754250094E+03
 0.69726515485E+02 0.38504029386E+02 0.23242411918E+02 0.17709377083E+02 0.14538587602E+02
 0.12364939366E+02 0.11044073294E+02 0.10297364982E+02 0.98869680550E+01 0.96466606513E+01
 0.94983815990E+01 0.87065888370E+01 0.87853077926E+01 0.89967895278E+01 0.93313057368E+01
 0.98869680550E+01 0.10874268839E+02 0.12579411957E+02 0.15299946333E+02 0.19232180603E+02
 0.29270315744E+02 0.55685777659E+02 0.10486382020E+03 0.17596453994E+03 0.26004097850E+03
 0.34124462787E+03 0.40063904810E+03 0.42248984797E+03 0.40063904810E+03 0.34124462787E+03
 0.26004097850E+03 0.17596453994E+03 0.10486382020E+03 0.55685777659E+02 0.29270315744E+02
 0.19232180603E+02 0.15299946333E+02 0.12579411957E+02 0.10874268839E+02 0.98869680550E+01
 0.93313057368E+01 0.89967895278E+01 0.87853077926E+01 0.82731766806E+01 0.83653200544E+01
 0.86105106072E+01 0.89967895278E+01 0.96466606513E+01 0.10814268808E+02 0.12824927070E+02
 0.15972711512E+02 0.21013542365E+02 0.36486258026E+02 0.74217688076E+02 0.14056140943E+03
 0.23338959891E+03 0.34124462787E+03 0.44453215634E+03 0.51981538684E+03 0.54748081977E+03
 0.51981538684E+03 0.44453215634E+03 0.34124462787E+03 0.23338959891E+03 0.14056140943E+03
 0.74217688076E+02 0.36486258026E+02 0.21013542365E+02 0.15972711512E+02 0.12824927070E+02
 0.10814268808E+02 0.96466606513E+01 0.89967895278E+01 0.86105106072E+01 0.83653200544E+01
 0.79974441987E+01 0.80983397007E+01 0.83653200544E+01 0.87853077926E+01 0.94983815990E+01
 0.10788662716E+02 0.13004787291E+02 0.16427229802E+02 0.22593289723E+02 0.42439824646E+02
 0.88599777581E+02 0.16736310266E+03 0.27575320701E+03 0.40063904810E+03 0.51981538684E+03
 0.60658735947E+03 0.63846984994E+03 0.60658735947E+03 0.51981538684E+03 0.40063904810E+03
 0.27575320701E+03 0.16736310266E+03 0.88599777581E+02 0.42439824646E+02 0.22593289723E+02
 0.16427229802E+02 0.13004787291E+02 0.10788662716E+02 0.94983815990E+01 0.87853077926E+01
 0.83653200544E+01 0.80983397007E+01 0.78930681821E+01 0.79974441987E+01 0.82731766806E+01
 0.87065888370E+01 0.94438240923E+01 0.10779363043E+02 0.13069250009E+02 0.16586878618E+02
 0.23233736299E+02 0.44750046293E+02 0.94027979768E+02 0.17733132570E+03 0.29139111793E+03
 0.42248984797E+03 0.54748081977E+03 0.63846984994E+03 0.67190292266E+03 0.63846984994E+03
 0.54748081977E+03 0.42248984797E+03 0.29139111793E+03 0.17733132570E+03 0.94027979768E+02
 0.44750046293E+02 0.23233736299E+02 0.16586878618E+02 0.13069250009E+02 0.10779363043E+02
 0.94438240923E+01 0.87065888370E+01 0.82731766806E+01 0.79974441987E+01 0.79974441987E+01
 0.80983397007E+01 0.83653200544E+01 0.87853077926E+01 0.94983815990E+01 0.10788662716E+02
 0.13004787291E+02 0.16427229802E+02 0.22593289723E+02 0.42439824646E+02 0.88599777581E+02
 0.16736310266E+03 0.27575320701E+03 0.40063904810E+03 0.51981538684E+03 0.60658735947E+03
 0.63846984994E+03 0.60658735947E+03 0.51981538684E+03 0.40063904810E+03 0.27575320701E+03
 0.16736310266E+03 0.88599777581E+02 0.42439824646E+02 0.22593289723E+02 0.16427229802E+02
 0.13004787291E+02 0.10788662716E+02 0.94983815990E+01 0.87853077926E+01 0.83653200544E+01
 0.80983397007E+01 0.82731766806E+01 0.83653200544E+01 0.86105106072E+01 0.89967895278E+01
 0.96466606513E+01 0.10814268808E+02 0.12824927070E+02 0.15972711512E+02 0.21013542365E+02
 0.36486258026E+02 0.74217688076E+02 0.14056140943E+03 0.23338959891E+03 0.34124462787E+03
 0.44453215634E+03 0.51981538684E+03 0.54748081977E+03 0.51981538684E+03 0.44453215634E+03
 0.34124462787E+03 0.23338959891E+03 0.14056140943E+03 0.74217688076E+02 0.36486258026E+02
 0.21013542365E+02 0.15972711512E+02 0.12824927070E+02 0.10814268808E+02 0.96466606513E+01
 0.89967895278E+01 0.86105106072E+01 0.83653200544E+01 0.87065888370E+01 0.87853077926E+01
 0.89967895278E+01 0.93313057368E+01 0.98869680550E+01 0.10874268839E+02 0.12579411957E+02
 0.15299946333E+02 0.19232180603E+02 0.29270315744E+02 0.55685777659E+02 0.10486382020E+03
 0.17596453994E+03 0.26004097850E+03 0.34124462787E+03 0.40063904810E+03 0.42248984797E+03
 0.40063904810E+03 0.34124462787E+03 0.26004097850E+03 0.17596453994E+03 0.10486382020E+03
 0.55685777659E+02 0.29270315744E+02 0.19232180603E+02 0.15299946333E+02 0.12579411957E+02
 0.10874268839E+02 0.98869680550E+01 0.93313057368E+01 0.89967895278E+01 0.87853077926E+01
 0.94438240923E+01 0.94983815990E+01 0.96466606513E+01 0.98869680550E+01 0.10297364982E+02
 0.11044073294E+02 0.12364939366E+02 0.14538587602E+02 0.17709377083E+02 0.23242411918E+02
 0.38504029386E+02 0.69726515485E+02 0.11754250094E+03 0.17596453994E+03 0.23338959891E+03
 0.27575320701E+03 0.29139111793E+03 0.27575320701E+03 0.23338959891E+03 0.17596453994E+03
 0.11754250094E+03 0.69726515485E+02 0.38504029386E+02 0.23242411918E+02 0.17709377083E+02
 0.14538587602E+02 0.12364939366E+02 0.11044073294E+02 0.10297364982E+02 0.98869680550E+01
 0.96466606513E+01 0.94983815990E+01 0.10779363043E+02 0.10788662716E+02 0.10814268808E+02
 0.10874268839E+02 0.11044073294E+02 0.11461301374E+02 0.12319474718E+02 0.13857904111E+02
 0.16263790694E+02 0.19535714849E+02 0.26494926796E+02 0.42584497955E+02 0.69726515485E+02
 0.10486382020E+03 0.14056140943E+03 0.16736310266E+03 0.17733132570E+03 0.16736310266E+03
 0.14056140943E+03 0.10486382020E+03 0.69726515485E+02 0.42584497955E+02 0.26494926796E+02
 0.19535714849E+02 0.16263790694E+02 0.13857904111E+02 0.12319474718E+02 0.11461301374E+02
 0.11044073294E+02 0.10874268839E+02 0.10814268808E+02 0.10788662716E+02 0.13069250009E+02
 0.13004787291E+02 0.12824927070E+02 0.12579411957E+02 0.12364939366E+02 0.12319474718E+02
 0.12613531286E+02 0.13444469773E+02 0.14989373455E+02 0.17279163989E+02 0.20294369783E+02
 0.26494926796E+02 0.38504029386E+02 0.55685777659E+02 0.74217688076E+02 0.88599777581E+02
 0.94027979768E+02 0.88599777581E+02 0.74217688076E+02 0.55685777659E+02 0.38504029386E+02
 0.26494926796E+02 0.20294369783E+02 0.17279163989E+02 0.14989373455E+02 0.13444469773E+02
 0.12613531286E+02 0.12319474718E+02 0.12364939366E+02 0.12579411957E+02 0.12824927070E+02
 0.13004787291E+02 0.16586878618E+02 0.16427229802E+02 0.15972711512E+02 0.15299946333E+02
 0.14538587602E+02 0.13857904111E+02 0.13444469773E+02 0.13481116929E+02 0.14117606385E+02
 0.15414999121E+02 0.17279163989E+02 0.19535714849E+02 0.23242411918E+02 0.29270315744E+02
 0.36486258026E+02 0.42439824646E+02 0.44750046293E+02 0.42439824646E+02 0.36486258026E+02
 0.29270315744E+02 0.23242411918E+02 0.19535714849E+02 0.17279163989E+02 0.15414999121E+02
 0.14117606385E+02 0.13481116929E+02 0.13444469773E+02 0.13857904111E+02 0.14538587602E+02
 0.15299946333E+02 0.15972711512E+02 0.16427229802E+02 0.23233736299E+02 0.22593289723E+02
 0.21013542365E+02 0.19232180603E+02 0.17709377083E+02 0.16263790694E+02 0.14989373455E+02
 0.14117606385E+02 0.13808245549E+02 0.14117606385E+02 0.14989373455E+02 0.16263790694E+02
 0.17709377083E+02 0.19232180603E+02 0.21013542365E+02 0.22593289723E+02 0.23233736299E+02
 0.22593289723E+02 0.21013542365E+02 0.19232180603E+02 0.17709377083E+02 0.16263790694E+02
 0.14989373455E+02 0.14117606385E+02 0.13808245549E+02 0.14117606385E+02 0.14989373455E+02
 0.16263790694E+02 0.17709377083E+02 0.19232180603E+02 0.21013542365E+02 0.22593289723E+02
 0.44750046293E+02 0.42439824646E+02 0.36486258026E+02 0.29270315744E+02 0.23242411918E+02
 0.19535714849E+02 0.17279163989E+02 0.15414999121E+02 0.14117606385E+02 0.13481116929E+02
 0.13444469773E+02 0.13857904111E+02 0.14538587602E+02 0.15299946333E+02 0.15972711512E+02
 0.16427229802E+02 0.16586878618E+02 0.16427229802E+02 0.15972711512E+02 0.15299946333E+02
 0.14538587602E+02 0.13857904111E+02 0.13444469773E+02 0.13481116929E+02 0.14117606385E+02
 0.15414999121E+02 0.17279163989E+02 0.19535714849E+02 0.23242411918E+02 0.29270315744E+02
 0.36486258026E+02 0.42439824646E+02 0.94027979768E+02 0.88599777581E+02 0.74217688076E+02
 0.55685777659E+02 0.38504029386E+02 0.26494926796E+02 0.20294369783E+02 0.17279163989E+02
 0.14989373455E+02 0.13444469773E+02 0.12613531286E+02 0.12319474718E+02 0.12364939366E+02
 0.12579411957E+02 0.12824927070E+02 0.13004787291E+02 0.13069250009E+02 0.13004787291E+02
 0.12824927070E+02 0.12579411957E+02 0.12364939366E+02 0.12319474718E+02 0.12613531286E+02
 0.13444469773E+02 0.14989373455E+02 0.17279163989E+02 0.20294369783E+02 0.26494926796E+02
 0.38504029386E+02 0.55685777659E+02 0.74217688076E+02 0.88599777581E+02 0.17733132570E+03
 0.16736310266E+03 0.14056140943E+03 0.10486382020E+03 0.69726515485E+02 0.42584497955E+02
 0.26494926796E+02 0.19535714849E+02 0.16263790694E+02 0.13857904111E+02 0.12319474718E+02
 0.11461301374E+02 0.11044073294E+02 0.10874268839E+02 0.10814268808E+02 0.10788662716E+02
 0.10779363043E+02 0.10788662716E+02 0.10814268808E+02 0.10874268839E+02 0.11044073294E+02
 0.11461301374E+02 0.12319474718E+02 0.13857904111E+02 0.16263790694E+02 0.19535714849E+02
 0.26494926796E+02 0.42584497955E+02 0.69726515485E+02 0.10486382020E+03 0.14056140943E+03
 0.16736310266E+03 0.29139111793E+03 0.27575320701E+03 0.23338959891E+03 0.17596453994E+03
 0.11754250094E+03 0.69726515485E+02 0.38504029386E+02 0.23242411918E+02 0.17709377083E+02
 0.14538587602E+02 0.12364939366E+02 0.11044073294E+02 0.10297364982E+02 0.98869680550E+01
 0.96466606513E+01 0.94983815990E+01 0.94438240923E+01 0.94983815990E+01 0.96466606513E+01
 0.98869680550E+01 0.10297364982E+02 0.11044073294E+02 0.12364939366E+02 0.14538587602E+02
 0.17709377083E+02 0.23242411918E+02 0.38504029386E+02 0.69726515485E+02 0.11754250094E+03
 0.17596453994E+03 0.23338959891E+03 0.27575320701E+03 0.42248984797E+03 0.40063904810E+03
 0.34124462787E+03 0.26004097850E+03 0.17596453994E+03 0.10486382020E+03 0.55685777659E+02
 0.29270315744E+02 0.19232180603E+02 0.15299946333E+02 0.12579411957E+02 0.10874268839E+02
 0.98869680550E+01 0.93313057368E+01 0.89967895278E+01 0.87853077926E+01 0.87065888370E+01
 0.87853077926E+01 0.89967895278E+01 0.93313057368E+01 0.98869680550E+01 0.10874268839E+02
 0.12579411957E+02 0.15299946333E+02 0.19232180603E+02 0.29270315744E+02 0.55685777659E+02
 0.10486382020E+03 0.17596453994E+03 0.26004097850E+03 0.34124462787E+03 0.40063904810E+03
 0.54748081977E+03 0.51981538684E+03 0.44453215634E+03 0.34124462787E+03 0.23338959891E+03
 0.14056140943E+03 0.74217688076E+02 0.36486258026E+02 0.21013542365E+02 0.15972711512E+02
 0.12824927070E+02 0.10814268808E+02 0.96466606513E+01 0.89967895278E+01 0.86105106072E+01
 0.83653200544E+01 0.82731766806E+01 0.83653200544E+01 0.86105106072E+01 0.89967895278E+01
 0.96466606513E+01 0.10814268808E+02 0.12824927070E+02 0.15972711512E+02 0.21013542365E+02
 0.36486258026E+02 0.74217688076E+02 0.14056140943E+03 0.23338959891E+03 0.34124462787E+03
 0.44453215634E+03 0.51981538684E+03 0.63846984994E+03 0.60658735947E+03 0.51981538684E+03
 0.40063904810E+03 0.27575320701E+03 0.16736310266E+03 0.88599777581E+02 0.42439824646E+02
 0.22593289723E+02 0.16427229802E+02 0.13004787291E+02 0.10788662716E+02 0.94983815990E+01
 0.87853077926E+01 0.83653200544E+01 0.80983397007E+01 0.79974441987E+01 0.80983397007E+01
 0.83653200544E+01 0.87853077926E+01 0.94983815990E+01 0.10788662716E+02 0.13004787291E+02
 0.16427229802E+02 0.22593289723E+02 0.42439824646E+02 0.88599777581E+02 0.16736310266E+03
 0.27575320701E+03 0.40063904810E+03 0.51981538684E+03 0.60658735947E+03 0.63846984994E+03
 0.60658735947E+03 0.51981538684E+03 0.40063904810E+03 0.27575320701E+03 0.16736310266E+03
 0.88599777581E+02 0.42439824646E+02 0.22593289723E+02 0.16427229802E+02 0.13004787291E+02
 0.10788662716E+02 0.94983815990E+01 0.87853077926E+01 0.83653200544E+01 0.80983397007E+01
 0.79974441987E+01 0.80983397007E+01 0.83653200544E+01 0.87853077926E+01 0.94983815990E+01
 0.10788662716E+02 0.13004787291E+02 0.16427229802E+02 0.22593289723E+02 0.42439824646E+02
 0.88599777581E+02 0.16736310266E+03 0.27575320701E+03 0.40063904810E+03 0.51981538684E+03
 0.60658735947E+03 0.60658735947E+03 0.57618386281E+03 0.49343745052E+03 0.37981928266E+03
 0.26088034918E+03 0.15791907900E+03 0.83494232367E+02 0.40295503881E+02 0.22010404150E+02
 0.16269451465E+02 0.12941288663E+02 0.10797234503E+02 0.95509603712E+01 0.88613535434E+01
 0.84543904343E+01 0.81958757502E+01 0.80983397007E+01 0.81958757502E+01 0.84543904343E+01
 0.88613535434E+01 0.95509603712E+01 0.10797234503E+02 0.12941288663E+02 0.16269451465E+02
 0.22010404150E+02 0.40295503881E+02 0.83494232367E+02 0.15791907900E+03 0.26088034918E+03
 0.37981928266E+03 0.49343745052E+03 0.57618386281E+03 0.51981538684E+03 0.49343745052E+03
 0.42166611570E+03 0.32324475577E+03 0.22061261265E+03 0.13255106791E+03 0.69987631316E+02
 0.34782847363E+02 0.20573510577E+02 0.15821183289E+02 0.12764515818E+02 0.10821097920E+02
 0.96941188270E+01 0.90659602955E+01 0.86917762858E+01 0.84543904343E+01 0.83653200544E+01
 0.84543904343E+01 0.86917762858E+01 0.90659602955E+01 0.96941188271E+01 0.10821097920E+02
 0.12764515818E+02 0.15821183289E+02 0.20573510577E+02 0.34782847363E+02 0.69987631316E+02
 0.13255106791E+03 0.22061261265E+03 0.32324475577E+03 0.42166611570E+03 0.49343745052E+03
 0.40063904810E+03 0.37981928266E+03 0.32324475577E+03 0.24596384872E+03 0.16610643626E+03
 0.98837899654E+02 0.52643621647E+02 0.28135843740E+02 0.18944661665E+02 0.15159815838E+02
 0.12523726331E+02 0.10878085187E+02 0.99262866593E+01 0.93897271015E+01 0.90659602955E+01
 0.88613535434E+01 0.87853077926E+01 0.88613535434E+01 0.90659602955E+01 0.93897271015E+01
 0.99262866593E+01 0.10878085187E+02 0.12523726331E+02 0.15159815838E+02 0.18944661665E+02
 0.28135843740E+02 0.52643621647E+02 0.98837899654E+02 0.16610643626E+03 0.24596384872E+03
 0.32324475577E+03 0.37981928266E+03 0.27575320701E+03 0.26088034918E+03 0.22061261265E+03
 0.16610643626E+03 0.11081168537E+03 0.65791534657E+02 0.36662690434E+02 0.22625271900E+02
 0.17497470437E+02 0.14413770599E+02 0.12312887560E+02 0.11040520745E+02 0.10321898178E+02
 0.99262866593E+01 0.96941188270E+01 0.95509603712E+01 0.94983815990E+01 0.95509603712E+01
 0.96941188270E+01 0.99262866593E+01 0.10321898178E+02 0.11040520745E+02 0.12312887560E+02
 0.14413770599E+02 0.17497470437E+02 0.22625271900E+02 0.36662690434E+02 0.65791534657E+02
 0.11081168537E+03 0.16610643626E+03 0.22061261265E+03 0.26088034918E+03 0.16736310266E+03
 0.15791907900E+03 0.13255106791E+03 0.98837899654E+02 0.65791534657E+02 0.40449654909E+02
 0.25603371280E+02 0.19235985333E+02 0.16079027628E+02 0.13748140576E+02 0.12265040868E+02
 0.11440478842E+02 0.11040520745E+02 0.10878085187E+02 0.10821097920E+02 0.10797234503E+02
 0.10788662716E+02 0.10797234503E+02 0.10821097920E+02 0.10878085187E+02 0.11040520745E+02
 0.11440478842E+02 0.12265040868E+02 0.13748140576E+02 0.16079027628E+02 0.19235985333E+02
 0.25603371280E+02 0.40449654909E+02 0.65791534657E+02 0.98837899654E+02 0.13255106791E+03
 0.15791907900E+03 0.88599777581E+02 0.83494232367E+02 0.69987631316E+02 0.52643621647E+02
 0.36662690434E+02 0.25603371280E+02 0.19940802363E+02 0.17059674182E+02 0.14835166269E+02
 0.13343107156E+02 0.12544642362E+02 0.12265040868E+02 0.12312887560E+02 0.12523726331E+02
 0.12764515818E+02 0.12941288663E+02 0.13004787291E+02 0.12941288663E+02 0.12764515818E+02
 0.12523726331E+02 0.12312887560E+02 0.12265040868E+02 0.12544642362E+02 0.13343107156E+02
 0.14835166269E+02 0.17059674182E+02 0.19940802363E+02 0.25603371280E+02 0.36662690434E+02
 0.52643621647E+02 0.69987631316E+02 0.83494232367E+02 0.42439824646E+02 0.40295503881E+02
 0.34782847363E+02 0.28135843740E+02 0.22625271900E+02 0.19235985333E+02 0.17059674182E+02
 0.15243951061E+02 0.13987466253E+02 0.13374569195E+02 0.13343107156E+02 0.13748140576E+02
 0.14413770599E+02 0.15159815838E+02 0.15821183289E+02 0.16269451465E+02 0.16427229802E+02
 0.16269451465E+02 0.15821183289E+02 0.15159815838E+02 0.14413770599E+02 0.13748140576E+02
 0.13343107156E+02 0.13374569195E+02 0.13987466253E+02 0.15243951061E+02 0.17059674182E+02
 0.19235985333E+02 0.22625271900E+02 0.28135843740E+02 0.34782847363E+02 0.40295503881E+02
 0.22593289723E+02 0.22010404150E+02 0.20573510577E+02 0.18944661665E+02 0.17497470437E+02
 0.16079027628E+02 0.14835166269E+02 0.13987466253E+02 0.13687223927E+02 0.13987466253E+02
 0.14835166269E+02 0.16079027628E+02 0.17497470437E+02 0.18944661665E+02 0.20573510577E+02
 0.22010404150E+02 0.22593289723E+02 0.22010404150E+02 0.20573510577E+02 0.18944661665E+02
 0.17497470437E+02 0.16079027628E+02 0.14835166269E+02 0.13987466253E+02 0.13687223927E+02
 0.13987466253E+02 0.14835166269E+02 0.16079027628E+02 0.17497470437E+02 0.18944661665E+02
 0.20573510577E+02 0.22010404150E+02 0.16427229802E+02 0.16269451465E+02 0.15821183289E+02
 0.15159815838E+02 0.14413770599E+02 0.13748140576E+02 0.13343107156E+02 0.13374569195E+02
 0.13987466253E+02 0.15243951061E+02 0.17059674182E+02 0.19235985333E+02 0.22625271900E+02
 0.28135843740E+02 0.34782847363E+02 0.40295503881E+02 0.42439824646E+02 0.40295503881E+02
 0.34782847363E+02 0.28135843740E+02 0.22625271900E+02 0.19235985333E+02 0.17059674182E+02
 0.15243951061E+02 0.13987466253E+02 0.13374569195E+02 0.13343107156E+02 0.13748140576E+02
 0.14413770599E+02 0.15159815838E+02 0.15821183289E+02 0.16269451465E+02 0.13004787291E+02
 0.12941288663E+02 0.12764515818E+02 0.12523726331E+02 0.12312887560E+02 0.12265040868E+02
 0.12544642362E+02 0.13343107156E+02 0.14835166269E+02 0.17059674182E+02 0.19940802363E+02
 0.25603371280E+02 0.36662690434E+02 0.52643621647E+02 0.69987631316E+02 0.83494232367E+02
 0.88599777581E+02 0.83494232367E+02 0.69987631316E+02 0.52643621647E+02 0.36662690434E+02
 0.25603371280E+02 0.19940802363E+02 0.17059674182E+02 0.14835166269E+02 0.13343107156E+02
 0.12544642362E+02 0.12265040868E+02 0.12312887560E+02 0.12523726331E+02 0.12764515818E+02
 0.12941288663E+02 0.10788662716E+02 0.10797234503E+02 0.10821097920E+02 0.10878085187E+02
 0.11040520745E+02 0.11440478842E+02 0.12265040868E+02 0.13748140576E+02 0.16079027628E+02
 0.19235985333E+02 0.25603371280E+02 0.40449654909E+02 0.65791534657E+02 0.98837899654E+02
 0.13255106791E+03 0.15791907900E+03 0.16736310266E+03 0.15791907900E+03 0.13255106791E+03
 0.98837899654E+02 0.65791534657E+02 0.40449654909E+02 0.25603371280E+02 0.19235985333E+02
 0.16079027628E+02 0.13748140576E+02 0.12265040868E+02 0.11440478842E+02 0.11040520745E+02
 0.10878085187E+02 0.10821097920E+02 0.10797234503E+02 0.94983815990E+01 0.95509603712E+01
 0.96941188271E+01 0.99262866593E+01 0.10321898178E+02 0.11040520745E+02 0.12312887560E+02
 0.14413770599E+02 0.17497470437E+02 0.22625271900E+02 0.36662690434E+02 0.65791534657E+02
 0.11081168537E+03 0.16610643626E+03 0.22061261265E+03 0.26088034918E+03 0.27575320701E+03
 0.26088034918E+03 0.22061261265E+03 0.16610643626E+03 0.11081168537E+03 0.65791534657E+02
 0.36662690434E+02 0.22625271900E+02 0.17497470437E+02 0.14413770599E+02 0.12312887560E+02
 0.11040520745E+02 0.10321898178E+02 0.99262866593E+01 0.96941188270E+01 0.95509603712E+01
 0.87853077926E+01 0.88613535434E+01 0.90659602955E+01 0.93897271015E+01 0.99262866593E+01
 0.10878085187E+02 0.12523726331E+02 0.15159815838E+02 0.18944661665E+02 0.28135843740E+02
 0.52643621647E+02 0.98837899654E+02 0.16610643626E+03 0.24596384872E+03 0.32324475577E+03
 0.37981928266E+03 0.40063904810E+03 0.37981928266E+03 0.32324475577E+03 0.24596384872E+03
 0.16610643626E+03 0.98837899654E+02 0.52643621647E+02 0.28135843740E+02 0.18944661665E+02
 0.15159815838E+02 0.12523726331E+02 0.10878085187E+02 0.99262866593E+01 0.93897271015E+01
 0.90659602955E+01 0.88613535434E+01 0.83653200544E+01 0.84543904343E+01 0.86917762858E+01
 0.90659602955E+01 0.96941188271E+01 0.10821097920E+02 0.12764515818E+02 0.15821183289E+02
 0.20573510577E+02 0.34782847363E+02 0.69987631316E+02 0.13255106791E+03 0.22061261265E+03
 0.32324475577E+03 0.42166611570E+03 0.49343745052E+03 0.51981538684E+03 0.49343745052E+03
 0.42166611570E+03 0.32324475577E+03 0.22061261265E+03 0.13255106791E+03 0.69987631316E+02
 0.34782847363E+02 0.20573510577E+02 0.15821183289E+02 0.12764515818E+02 0.10821097920E+02
 0.96941188270E+01 0.90659602955E+01 0.86917762858E+01 0.84543904343E+01 0.80983397007E+01
 0.81958757502E+01 0.84543904343E+01 0.88613535434E+01 0.95509603712E+01 0.10797234503E+02
 0.12941288663E+02 0.16269451465E+02 0.22010404150E+02 0.40295503881E+02 0.83494232367E+02
 0.15791907900E+03 0.26088034918E+03 0.37981928266E+03 0.49343745052E+03 0.57618386281E+03
 0.60658735947E+03 0.57618386281E+03 0.49343745052E+03 0.37981928266E+03 0.26088034918E+03
 0.15791907900E+03 0.83494232367E+02 0.40295503881E+02 0.22010404150E+02 0.16269451465E+02
 0.12941288663E+02 0.10797234503E+02 0.95509603712E+01 0.88613535434E+01 0.84543904343E+01
 0.81958757502E+01 0.79974441987E+01 0.80983397007E+01 0.83653200544E+01 0.87853077926E+01
 0.94983815990E+01 0.10788662716E+02 0.13004787291E+02 0.16427229802E+02 0.22593289723E+02
 0.42439824646E+02 0.88599777581E+02 0.16736310266E+03 0.27575320701E+03 0.40063904810E+03
 0.51981538684E+03 0.60658735947E+03 0.63846984994E+03 0.60658735947E+03 0.51981538684E+03
 0.40063904810E+03 0.27575320701E+03 0.16736310266E+03 0.88599777581E+02 0.42439824646E+02
 0.22593289723E+02 0.16427229802E+02 0.13004787291E+02 0.10788662716E+02 0.94983815990E+01
 0.87853077926E+01 0.83653200544E+01 0.80983397007E+01 0.80983397007E+01 0.81958757502E+01
 0.84543904343E+01 0.88613535434E+01 0.95509603712E+01 0.10797234503E+02 0.12941288663E+02
 0.16269451465E+02 0.22010404150E+02 0.40295503881E+02 0.83494232367E+02 0.15791907900E+03
 0.26088034918E+03 0.37981928266E+03 0.49343745052E+03 0.57618386281E+03 0.60658735947E+03
 0.57618386281E+03 0.49343745052E+03 0.37981928266E+03 0.26088034918E+03 0.15791907900E+03
 0.83494232367E+02 0.40295503881E+02 0.22010404150E+02 0.16269451465E+02 0.12941288663E+02
 0.10797234503E+02 0.95509603712E+01 0.88613535434E+01 0.84543904343E+01 0.81958757502E+01
 0.83653200544E+01 0.84543904343E+01 0.86917762858E+01 0.90659602955E+01 0.96941188271E+01
 0.10821097920E+02 0.12764515818E+02 0.15821183289E+02 0.20573510577E+02 0.34782847363E+02
 0.69987631316E+02 0.13255106791E+03 0.22061261265E+03 0.32324475577E+03 0.42166611570E+03
 0.49343745052E+03 0.51981538684E+03 0.49343745052E+03 0.42166611570E+03 0.32324475577E+03
 0.22061261265E+03 0.13255106791E+03 0.69987631316E+02 0.34782847363E+02 0.20573510577E+02