   4   4   0   0
  0.9606015E+01  0.3374435E-09  0.3374435E-09  0.3374435E-09  0.5000000E-15
  1.000000000000000E-004
  CAR 
 unknown system                          
     34.41260225     -2.59967227  301     10.51793111      1.00000000
     -2.600  0.0000E+00  0.0000E+00
     -2.476  0.0000E+00  0.0000E+00
     -2.353  0.0000E+00  0.0000E+00
     -2.230 -0.7345E-30 -0.9062E-31
     -2.106 -0.1079E-25 -0.1331E-26
     -1.983 -0.7356E-22 -0.9076E-23
     -1.859 -0.2324E-18 -0.2868E-19
     -1.736 -0.3297E-15 -0.4071E-16
     -1.613 -0.2203E-12 -0.2722E-13
     -1.489 -0.6759E-10 -0.8366E-11
     -1.366 -0.9442E-08 -0.1173E-08
     -1.243 -0.5943E-06 -0.7449E-07
     -1.119 -0.1658E-04 -0.2120E-05
     -0.996 -0.1999E-03 -0.2679E-04
     -0.872 -0.9941E-03 -0.1494E-03
     -0.749 -0.1534E-02 -0.3387E-03
     -0.626  0.4772E-02  0.2501E-03
     -0.502  0.3328E-01  0.4356E-02
     -0.379  0.9206E-01  0.1571E-01
     -0.256  0.1550E+00  0.3484E-01
     -0.132  0.1655E+00  0.5526E-01
     -0.009  0.1223E+00  0.7035E-01
      0.115  0.1245E+00  0.8571E-01
      0.238  0.2570E+00  0.1174E+00
      0.361  0.3925E+00  0.1658E+00
      0.485  0.3315E+00  0.2067E+00
      0.608  0.1330E+00  0.2231E+00
      0.731  0.1036E+00  0.2359E+00
      0.855  0.2930E+00  0.2721E+00
      0.978  0.4515E+00  0.3278E+00
      1.102  0.4630E+00  0.3849E+00
      1.225  0.4128E+00  0.4358E+00
      1.348  0.2955E+00  0.4723E+00
      1.472  0.2567E+00  0.5040E+00
      1.595  0.4982E+00  0.5654E+00
      1.718  0.6433E+00  0.6448E+00
      1.842  0.3330E+00  0.6859E+00
      1.965  0.1546E+00  0.7049E+00
      2.089  0.4705E+00  0.7630E+00
      2.212  0.7333E+00  0.8535E+00
      2.335  0.6652E+00  0.9355E+00
      2.459  0.5291E+00  0.1001E+01
      2.582  0.6854E+00  0.1085E+01
      2.705  0.8870E+00  0.1195E+01
      2.829  0.5438E+00  0.1262E+01
      2.952  0.2208E+00  0.1289E+01
      3.076  0.4330E+00  0.1343E+01
      3.199  0.1031E+01  0.1470E+01
      3.322  0.1361E+01  0.1638E+01
      3.446  0.1087E+01  0.1772E+01
      3.569  0.9382E+00  0.1887E+01
      3.692  0.9724E+00  0.2007E+01
      3.816  0.9039E+00  0.2119E+01
      3.939  0.1403E+01  0.2292E+01
      4.063  0.2406E+01  0.2589E+01
      4.186  0.3287E+01  0.2994E+01
      4.309  0.3542E+01  0.3431E+01
      4.433  0.3410E+01  0.3852E+01
      4.556  0.3953E+01  0.4340E+01
      4.679  0.4592E+01  0.4906E+01
      4.803  0.4544E+01  0.5467E+01
      4.926  0.5333E+01  0.6125E+01
      5.050  0.6448E+01  0.6920E+01
      5.173  0.7082E+01  0.7794E+01
      5.296  0.7397E+01  0.8707E+01
      5.420  0.7164E+01  0.9591E+01
      5.543  0.6423E+01  0.1038E+02
      5.666  0.6296E+01  0.1116E+02
      5.790  0.6308E+01  0.1194E+02
      5.913  0.6262E+01  0.1271E+02
      6.037  0.6474E+01  0.1351E+02
      6.160  0.7676E+01  0.1446E+02
      6.283  0.9479E+01  0.1563E+02
      6.407  0.9224E+01  0.1676E+02
      6.530  0.8894E+01  0.1786E+02
      6.653  0.1067E+02  0.1918E+02
      6.777  0.1242E+02  0.2071E+02
      6.900  0.1280E+02  0.2229E+02
      7.024  0.1160E+02  0.2372E+02
      7.147  0.9315E+01  0.2487E+02
      7.270  0.7871E+01  0.2584E+02
      7.394  0.7859E+01  0.2681E+02
      7.517  0.8688E+01  0.2788E+02
      7.640  0.9572E+01  0.2906E+02
      7.764  0.1049E+02  0.3036E+02
      7.887  0.1062E+02  0.3167E+02
      8.011  0.9355E+01  0.3282E+02
      8.134  0.8947E+01  0.3393E+02
      8.257  0.9515E+01  0.3510E+02
      8.381  0.1059E+02  0.3641E+02
      8.504  0.1375E+02  0.3810E+02
      8.627  0.1502E+02  0.3996E+02
      8.751  0.1114E+02  0.4133E+02
      8.874  0.5876E+01  0.4206E+02
      8.998  0.2296E+01  0.4234E+02
      9.121  0.5242E+00  0.4240E+02
      9.244  0.1816E+00  0.4243E+02
      9.368  0.9259E+00  0.4254E+02
      9.491  0.2056E+01  0.4279E+02
      9.614  0.1986E+01  0.4304E+02
      9.738  0.1174E+01  0.4318E+02
      9.861  0.9314E+00  0.4330E+02
      9.985  0.8716E+00  0.4341E+02
     10.108  0.9413E+00  0.4352E+02
     10.231  0.1291E+01  0.4368E+02
     10.355  0.1244E+01  0.4384E+02
     10.478  0.9915E+00  0.4396E+02
     10.601  0.1120E+01  0.4410E+02
     10.725  0.9851E+00  0.4422E+02
     10.848  0.6330E+00  0.4430E+02
     10.971  0.6358E+00  0.4437E+02
     11.095  0.1042E+01  0.4450E+02
     11.218  0.1405E+01  0.4468E+02
     11.342  0.1228E+01  0.4483E+02
     11.465  0.1321E+01  0.4499E+02
     11.588  0.1548E+01  0.4518E+02
     11.712  0.9131E+00  0.4529E+02
     11.835  0.4221E+00  0.4535E+02
     11.958  0.4303E+00  0.4540E+02
     12.082  0.5702E+00  0.4547E+02
     12.205  0.7809E+00  0.4557E+02
     12.329  0.9134E+00  0.4568E+02
     12.452  0.9170E+00  0.4579E+02
     12.575  0.9695E+00  0.4591E+02
     12.699  0.1287E+01  0.4607E+02
     12.822  0.1510E+01  0.4626E+02
     12.945  0.8878E+00  0.4637E+02
     13.069  0.2832E+00  0.4640E+02
     13.192  0.7587E+00  0.4649E+02
     13.316  0.1207E+01  0.4664E+02
     13.439  0.6788E+00  0.4673E+02
     13.562  0.2858E+00  0.4676E+02
     13.686  0.3089E+00  0.4680E+02
     13.809  0.4266E+00  0.4685E+02
     13.932  0.6841E+00  0.4694E+02
     14.056  0.8824E+00  0.4705E+02
     14.179  0.6650E+00  0.4713E+02
     14.303  0.3617E+00  0.4717E+02
     14.426  0.7348E+00  0.4726E+02
     14.549  0.1139E+01  0.4740E+02
     14.673  0.7777E+00  0.4750E+02
     14.796  0.2565E+00  0.4753E+02
     14.919  0.1053E+00  0.4754E+02
     15.043  0.9342E-01  0.4756E+02
     15.166  0.3016E+00  0.4759E+02
     15.290  0.8608E+00  0.4770E+02
     15.413  0.9727E+00  0.4782E+02
     15.536  0.7406E+00  0.4791E+02
     15.660  0.7981E+00  0.4801E+02
     15.783  0.7292E+00  0.4810E+02
     15.906  0.6981E+00  0.4819E+02
     16.030  0.9377E+00  0.4830E+02
     16.153  0.1294E+01  0.4846E+02
     16.277  0.1391E+01  0.4863E+02
     16.400  0.1021E+01  0.4876E+02
     16.523  0.8902E+00  0.4887E+02
     16.647  0.1413E+01  0.4904E+02
     16.770  0.1793E+01  0.4926E+02
     16.893  0.1257E+01  0.4942E+02
     17.017  0.4093E+00  0.4947E+02
     17.140  0.4289E+00  0.4952E+02
     17.264  0.1213E+01  0.4967E+02
     17.387  0.1473E+01  0.4985E+02
     17.510  0.9010E+00  0.4996E+02
     17.634  0.6849E+00  0.5005E+02
     17.757  0.1043E+01  0.5018E+02
     17.880  0.1095E+01  0.5031E+02
     18.004  0.5357E+00  0.5038E+02
     18.127  0.2635E+00  0.5041E+02
     18.251  0.6526E+00  0.5049E+02
     18.374  0.9458E+00  0.5061E+02
     18.497  0.8399E+00  0.5071E+02
     18.621  0.1088E+01  0.5085E+02
     18.744  0.1558E+01  0.5104E+02
     18.867  0.9839E+00  0.5116E+02
     18.991  0.3884E+00  0.5121E+02
     19.114  0.6658E+00  0.5129E+02
     19.238  0.1316E+01  0.5145E+02
     19.361  0.1775E+01  0.5167E+02
     19.484  0.1332E+01  0.5184E+02
     19.608  0.3662E+00  0.5188E+02
     19.731  0.1578E+00  0.5190E+02
     19.854  0.7337E+00  0.5199E+02
     19.978  0.1045E+01  0.5212E+02
     20.101  0.8888E+00  0.5223E+02
     20.225  0.1298E+01  0.5239E+02
     20.348  0.2057E+01  0.5264E+02
     20.471  0.1835E+01  0.5287E+02
     20.595  0.1354E+01  0.5304E+02
     20.718  0.1302E+01  0.5320E+02
     20.841  0.1165E+01  0.5334E+02
     20.965  0.8195E+00  0.5344E+02
     21.088  0.1064E+01  0.5357E+02
     21.212  0.2106E+01  0.5383E+02
     21.335  0.2210E+01  0.5411E+02
     21.458  0.1416E+01  0.5428E+02
     21.582  0.1227E+01  0.5443E+02
     21.705  0.1113E+01  0.5457E+02
     21.828  0.7180E+00  0.5466E+02
     21.952  0.4757E+00  0.5472E+02
     22.075  0.6196E+00  0.5479E+02
     22.199  0.1427E+01  0.5497E+02
     22.322  0.1865E+01  0.5520E+02
     22.445  0.1704E+01  0.5541E+02
     22.569  0.1530E+01  0.5560E+02
     22.692  0.1115E+01  0.5574E+02
     22.815  0.8083E+00  0.5584E+02
     22.939  0.1105E+01  0.5597E+02
     23.062  0.1563E+01  0.5617E+02
     23.186  0.1678E+01  0.5637E+02
     23.309  0.1753E+01  0.5659E+02
     23.432  0.2190E+01  0.5686E+02
     23.556  0.2131E+01  0.5712E+02
     23.679  0.1109E+01  0.5726E+02
     23.802  0.4473E+00  0.5731E+02
     23.926  0.6322E+00  0.5739E+02
     24.049  0.8470E+00  0.5750E+02
     24.173  0.1328E+01  0.5766E+02
     24.296  0.1956E+01  0.5790E+02
     24.419  0.1842E+01  0.5813E+02
     24.543  0.1482E+01  0.5831E+02
     24.666  0.9448E+00  0.5843E+02
     24.789  0.5587E+00  0.5850E+02
     24.913  0.6167E+00  0.5857E+02
     25.036  0.7919E+00  0.5867E+02
     25.160  0.1185E+01  0.5882E+02
     25.283  0.1277E+01  0.5897E+02
     25.406  0.8112E+00  0.5907E+02
     25.530  0.4702E+00  0.5913E+02
     25.653  0.3217E+00  0.5917E+02
     25.776  0.1080E+00  0.5919E+02
     25.900  0.1211E+00  0.5920E+02
     26.023  0.4513E+00  0.5926E+02
     26.147  0.4449E+00  0.5931E+02
     26.270  0.1063E+00  0.5932E+02
     26.393 -0.2508E-01  0.5932E+02
     26.517 -0.1248E-01  0.5932E+02
     26.640 -0.1151E-01  0.5932E+02
     26.763 -0.2946E-01  0.5931E+02
     26.887  0.6699E-01  0.5932E+02
     27.010  0.4639E+00  0.5938E+02
     27.134  0.7265E+00  0.5947E+02
     27.257  0.3791E+00  0.5952E+02
     27.380  0.6226E-01  0.5952E+02
     27.504  0.1743E+00  0.5955E+02
     27.627  0.2395E+00  0.5958E+02
     27.750  0.7957E-01  0.5959E+02
     27.874 -0.2082E-01  0.5958E+02
     27.997 -0.2231E-01  0.5958E+02
     28.121  0.1157E+00  0.5959E+02
     28.244  0.3785E+00  0.5964E+02
     28.367  0.3564E+00  0.5968E+02
     28.491  0.9256E-01  0.5970E+02
     28.614 -0.2336E-01  0.5969E+02
     28.737 -0.3494E-01  0.5969E+02
     28.861  0.3677E-01  0.5969E+02
     28.984  0.3495E+00  0.5974E+02
     29.108  0.5198E+00  0.5980E+02
     29.231  0.2224E+00  0.5983E+02
     29.354 -0.7748E-02  0.5983E+02
     29.478 -0.1911E-01  0.5982E+02
     29.601 -0.5498E-02  0.5982E+02
     29.724 -0.1160E-01  0.5982E+02
     29.848  0.6476E-02  0.5982E+02
     29.971  0.1458E+00  0.5984E+02
     30.095  0.2644E+00  0.5987E+02
     30.218  0.1400E+00  0.5989E+02
     30.341  0.4434E-02  0.5989E+02
     30.465 -0.1134E-01  0.5989E+02
     30.588 -0.5130E-02  0.5989E+02
     30.711 -0.1236E-01  0.5989E+02
     30.835  0.1348E-01  0.5989E+02
     30.958  0.1631E+00  0.5991E+02
     31.081  0.2626E+00  0.5994E+02
     31.205  0.1228E+00  0.5996E+02
     31.328 -0.8967E-03  0.5996E+02
     31.452 -0.1016E-01  0.5996E+02
     31.575 -0.1806E-02  0.5996E+02
     31.698 -0.1146E-03  0.5996E+02
     31.822 -0.4484E-04  0.5996E+02
     31.945 -0.7830E-03  0.5996E+02
     32.068 -0.5458E-02  0.5996E+02
     32.192 -0.5390E-02  0.5995E+02
     32.315  0.6050E-01  0.5996E+02
     32.439  0.1679E+00  0.5998E+02
     32.562  0.1303E+00  0.6000E+02
     32.685  0.2057E-01  0.6000E+02
     32.809 -0.8718E-02  0.6000E+02
     32.932 -0.2763E-02  0.6000E+02
     33.055 -0.2540E-03  0.6000E+02
     33.179 -0.9379E-05  0.6000E+02
     33.302 -0.1504E-06  0.6000E+02
     33.426 -0.1080E-08  0.6000E+02
     33.549 -0.3523E-11  0.6000E+02
     33.672 -0.5293E-14  0.6000E+02
     33.796  0.0000E+00  0.6000E+02
     33.919  0.0000E+00  0.6000E+02
     34.042  0.0000E+00  0.6000E+02
     34.166  0.0000E+00  0.6000E+02
     34.289  0.0000E+00  0.6000E+02
     34.413  0.0000E+00  0.6000E+02
