 vasp.6.2.0 18Jan21 (build Mar 17 2021 09:06:54) complex                        
  
 executed on             LinuxIFC date 2021.08.03  10:15:39
 serial version


--------------------------------------------------------------------------------------------------------


 INCAR:
   ENCUT = 320.000000
   SIGMA = 0.200000
   EDIFF = 1.00e-06
   GGA = PE
   PREC = normal
   IBRION = 1
   ICHARG = 1
   ISIF = 4
   ISMEAR = 1
   KPAR = 1
   NBANDS = 30
   NSW = 0
   NCORE = 1
   LCHARG = .TRUE.

 POTCAR:    PAW_PBE Cu 22Jun2005                  
 POTCAR:    PAW_PBE Cu 22Jun2005                  
   SHA256 =  0e71e558f37a4e8407882b4609ceaae59938afaad9ced71dfe8490308a0ab630 Cu/POTCAR             
   COPYR  = (c) Copyright 22Jun2005 Georg Kresse                                                    
   COPYR  = This file is part of the software VASP. Any use, copying, and all other rights are regul
   COPYR  = If you do not have a valid VASP license, you may not use, copy or distribute this file. 
   VRHFIN =Cu: d10 p1                                                                               
   LEXCH  = PE                                                                                      
   EATOM  =  1390.9808 eV,  102.2342 Ry                                                             
                                                                                                    
   TITEL  = PAW_PBE Cu 22Jun2005                                                                    
   LULTRA =        F    use ultrasoft PP ?                                                          
   IUNSCR =        1    unscreen: 0-lin 1-nonlin 2-no                                               
   RPACOR =    2.000    partial core radius                                                         
   POMASS =   63.546; ZVAL   =   11.000    mass and valenz                                          
   RCORE  =    2.300    outmost cutoff radius                                                       
   RWIGS  =    2.200; RWIGS  =    1.164    wigner-seitz radius (au A)                               
   ENMAX  =  295.446; ENMIN  =  221.585 eV                                                          
   ICORE  =        3    local potential                                                             
   LCOR   =        T    correct aug charges                                                         
   LPAW   =        T    paw PP                                                                      
   EAUG   =  586.980                                                                                
   DEXC   =    0.000                                                                                
   RMAX   =    2.344    core radius for proj-oper                                                   
   RAUG   =    1.300    factor for augmentation sphere                                              
   RDEP   =    2.302    radius for radial grids                                                     
   RDEPT  =    1.771    core radius for aug-charge                                                  
                                                                                                    
   Atomic configuration                                                                             
    9 entries                                                                                       
     n  l   j            E        occ.                                                              
     1  0  0.50     -8850.2468   2.0000                                                             
     2  0  0.50     -1062.3498   2.0000                                                             
     2  1  1.50      -916.8226   6.0000                                                             
     3  0  0.50      -114.6929   2.0000                                                             
     3  1  1.50       -72.1325   6.0000                                                             
     3  2  2.50        -5.0394  10.0000                                                             
     4  0  0.50        -4.6097   1.0000                                                             
     4  1  0.50        -4.0817   0.0000                                                             
     4  3  2.50        -1.3606   0.0000                                                             
   Description                                                                                      
     l       E           TYP  RCUT    TYP  RCUT                                                     
     2     -5.0393973     23  2.200                                                                 
     2     10.8846608     23  2.200                                                                 
     0     -4.6097109     23  2.200                                                                 
     0      8.2520465     23  2.200                                                                 
     1     -2.7211652     23  2.200                                                                 
     1     21.7055443     23  2.200                                                                 
     3      2.7211652     23  2.300                                                                 
  local pseudopotential read in
  partial core-charges read in
  partial kinetic energy density read in
  atomic valenz-charges read in
  non local Contribution for L=           2  read in
    real space projection operators read in
  non local Contribution for L=           2  read in
    real space projection operators read in
  non local Contribution for L=           0  read in
    real space projection operators read in
  non local Contribution for L=           0  read in
    real space projection operators read in
  non local Contribution for L=           1  read in
    real space projection operators read in
  non local Contribution for L=           1  read in
    real space projection operators read in
    PAW grid and wavefunctions read in
 
   number of l-projection  operators is LMAX  =           6
   number of lm-projection operators is LMMAX =          18
 
  PAW_PBE Cu 22Jun2005                  :
 energy of atom  1       EATOM=-1390.9808
 kinetic energy error for atom=    0.0368 (will be added to EATOM!!)
 
 
 POSCAR: Cu
  positions in cartesian coordinates
  No initial velocities read in
 exchange correlation table for  LEXCH =        8
   RHO(1)=    0.500       N(1)  =     2000
   RHO(2)=  100.500       N(2)  =     4000
 


--------------------------------------------------------------------------------------------------------


 ion  position               nearest neighbor table
   1  0.000  0.000  0.000-   2 2.39   3 2.39   4 2.39   3 2.39   4 2.39   2 2.39   4 2.39   4 2.39
                             2 2.39   3 2.39   3 2.39   2 2.39
   2  0.500  0.500  0.000-   1 2.39   3 2.39   4 2.39   3 2.39   4 2.39   1 2.39   3 2.39   3 2.39
                             1 2.39   4 2.39   4 2.39   1 2.39
   3  0.500  0.000  0.500-   1 2.39   2 2.39   4 2.39   1 2.39   2 2.39   2 2.39   4 2.39   2 2.39
                             1 2.39   4 2.39   1 2.39   4 2.39
   4  0.000  0.500  0.500-   1 2.39   2 2.39   3 2.39   1 2.39   2 2.39   1 2.39   3 2.39   1 2.39
                             2 2.39   3 2.39   2 2.39   3 2.39
 
  LATTYP: Found a simple cubic cell.
 ALAT       =     3.3744350820
  
  Lattice vectors:
  
 A1 = (   3.3744350820,   0.0000000000,   0.0000000000)
 A2 = (   0.0000000000,   3.3744350820,   0.0000000000)
 A3 = (   0.0000000000,   0.0000000000,   3.3744350820)


Analysis of symmetry for initial positions (statically):
=====================================================================
 Subroutine PRICEL returns following result:
 
  LATTYP: Found a face centered cubic cell.
 ALAT       =     3.3744350820
  
  Lattice vectors:
  
 A1 = (   1.6872175410,  -1.6872175410,   0.0000000000)
 A2 = (   1.6872175410,   0.0000000000,   1.6872175410)
 A3 = (   0.0000000000,  -1.6872175410,   1.6872175410)
 
   4 primitive cells build up your supercell.
 

 Routine SETGRP: Setting up the symmetry group for a 
 simple cubic supercell.


 Subroutine GETGRP returns: Found 48 space group operations
 (whereof 48 operations were pure point group operations)
 out of a pool of 48 trial point group operations.


The static configuration has the point symmetry O_h .


Analysis of symmetry for dynamics (positions and initial velocities):
=====================================================================
 Subroutine PRICEL returns following result:
 
  LATTYP: Found a face centered cubic cell.
 ALAT       =     3.3744350820
  
  Lattice vectors:
  
 A1 = (   1.6872175410,  -1.6872175410,   0.0000000000)
 A2 = (   1.6872175410,   0.0000000000,   1.6872175410)
 A3 = (   0.0000000000,  -1.6872175410,   1.6872175410)
 
   4 primitive cells build up your supercell.
 

 Routine SETGRP: Setting up the symmetry group for a 
 simple cubic supercell.


 Subroutine GETGRP returns: Found 48 space group operations
 (whereof 48 operations were pure point group operations)
 out of a pool of 48 trial point group operations.


The dynamic configuration has the point symmetry O_h .


 Subroutine INISYM returns: Found 48 space group operations
 (whereof 48 operations are pure point group operations),
 and found     4 'primitive' translations


----------------------------------------------------------------------------------------

                                     Primitive cell                                     

  volume of cell :       9.6060

  direct lattice vectors                    reciprocal lattice vectors
     1.687217541 -1.687217541  0.000000000     0.296345900 -0.296345900 -0.296345900
     1.687217541  0.000000000  1.687217541     0.296345900  0.296345900  0.296345900
     0.000000000 -1.687217541  1.687217541    -0.296345900 -0.296345900  0.296345900

  length of vectors
     2.386085929  2.386085929  2.386085929     0.513286155  0.513286155  0.513286155

  position of ions in fractional coordinates (direct lattice)
     0.000000000  0.000000000  0.000000000

  ion indices of the primitive-cell ions
   primitive index   ion index
                 1           1

----------------------------------------------------------------------------------------

 
 
 KPOINTS: KPOINTS created by Atomic Simulation Env

Automatic generation of k-mesh.
 Grid dimensions read from file:
 generate k-points for:    9    9    9

 Generating k-lattice:

  Cartesian coordinates                     Fractional coordinates (reciprocal lattice)
     0.032927322  0.000000000  0.000000000     0.111111111  0.000000000  0.000000000
     0.000000000  0.032927322  0.000000000     0.000000000  0.111111111  0.000000000
     0.000000000  0.000000000  0.032927322     0.000000000  0.000000000  0.111111111

  Length of vectors
     0.032927322  0.032927322  0.032927322

  Shift w.r.t. Gamma in fractional coordinates (k-lattice)
     0.000000000  0.000000000  0.000000000

 
 Subroutine IBZKPT returns following result:
 ===========================================
 
 Found     35 irreducible k-points:
 
 Following reciprocal coordinates:
            Coordinates               Weight
  0.000000  0.000000  0.000000      1.000000
  0.111111  0.000000  0.000000      6.000000
  0.222222  0.000000  0.000000      6.000000
  0.333333  0.000000  0.000000      6.000000
  0.444444  0.000000  0.000000      6.000000
  0.111111  0.111111  0.000000     12.000000
  0.222222  0.111111  0.000000     24.000000
  0.333333  0.111111  0.000000     24.000000
  0.444444  0.111111  0.000000     24.000000
  0.222222  0.222222  0.000000     12.000000
  0.333333  0.222222  0.000000     24.000000
  0.444444  0.222222  0.000000     24.000000
  0.333333  0.333333  0.000000     12.000000
  0.444444  0.333333  0.000000     24.000000
  0.444444  0.444444  0.000000     12.000000
  0.111111  0.111111  0.111111      8.000000
  0.222222  0.111111  0.111111     24.000000
  0.333333  0.111111  0.111111     24.000000
  0.444444  0.111111  0.111111     24.000000
  0.222222  0.222222  0.111111     24.000000
  0.333333  0.222222  0.111111     48.000000
  0.444444  0.222222  0.111111     48.000000
  0.333333  0.333333  0.111111     24.000000
  0.444444  0.333333  0.111111     48.000000
  0.444444  0.444444  0.111111     24.000000
  0.222222  0.222222  0.222222      8.000000
  0.333333  0.222222  0.222222     24.000000
  0.444444  0.222222  0.222222     24.000000
  0.333333  0.333333  0.222222     24.000000
  0.444444  0.333333  0.222222     48.000000
  0.444444  0.444444  0.222222     24.000000
  0.333333  0.333333  0.333333      8.000000
  0.444444  0.333333  0.333333     24.000000
  0.444444  0.444444  0.333333     24.000000
  0.444444  0.444444  0.444444      8.000000
 
 Following cartesian coordinates:
            Coordinates               Weight
  0.000000  0.000000  0.000000      1.000000
  0.032927  0.000000  0.000000      6.000000
  0.065855  0.000000  0.000000      6.000000
  0.098782  0.000000  0.000000      6.000000
  0.131709  0.000000  0.000000      6.000000
  0.032927  0.032927  0.000000     12.000000
  0.065855  0.032927  0.000000     24.000000
  0.098782  0.032927  0.000000     24.000000
  0.131709  0.032927  0.000000     24.000000
  0.065855  0.065855  0.000000     12.000000
  0.098782  0.065855  0.000000     24.000000
  0.131709  0.065855  0.000000     24.000000
  0.098782  0.098782  0.000000     12.000000
  0.131709  0.098782  0.000000     24.000000
  0.131709  0.131709  0.000000     12.000000
  0.032927  0.032927  0.032927      8.000000
  0.065855  0.032927  0.032927     24.000000
  0.098782  0.032927  0.032927     24.000000
  0.131709  0.032927  0.032927     24.000000
  0.065855  0.065855  0.032927     24.000000
  0.098782  0.065855  0.032927     48.000000
  0.131709  0.065855  0.032927     48.000000
  0.098782  0.098782  0.032927     24.000000
  0.131709  0.098782  0.032927     48.000000
  0.131709  0.131709  0.032927     24.000000
  0.065855  0.065855  0.065855      8.000000
  0.098782  0.065855  0.065855     24.000000
  0.131709  0.065855  0.065855     24.000000
  0.098782  0.098782  0.065855     24.000000
  0.131709  0.098782  0.065855     48.000000
  0.131709  0.131709  0.065855     24.000000
  0.098782  0.098782  0.098782      8.000000
  0.131709  0.098782  0.098782     24.000000
  0.131709  0.131709  0.098782     24.000000
  0.131709  0.131709  0.131709      8.000000
 


--------------------------------------------------------------------------------------------------------




 Dimension of arrays:
   k-points           NKPTS =     35   k-points in BZ     NKDIM =     35   number of bands    NBANDS=     30
   number of dos      NEDOS =    301   number of ions     NIONS =      4
   non local maximal  LDIM  =      6   non local SUM 2l+1 LMDIM =     18
   total plane-waves  NPLWV =   4096
   max r-space proj   IRMAX =      1   max aug-charges    IRDMAX=   3287
   dimension x,y,z NGX =    16 NGY =   16 NGZ =   16
   dimension x,y,z NGXF=    32 NGYF=   32 NGZF=   32
   support grid    NGXF=    32 NGYF=   32 NGZF=   32
   ions per type =               4
   NGX,Y,Z   is equivalent  to a cutoff of   7.88,  7.88,  7.88 a.u.
   NGXF,Y,Z  is equivalent  to a cutoff of  15.77, 15.77, 15.77 a.u.

 SYSTEM =  unknown system                          
 POSCAR =  Cu                                      

 Startparameter for this run:
   NWRITE =      2    write-flag & timer
   PREC   = normal    normal or accurate (medium, high low for compatibility)
   ISTART =      1    job   : 0-new  1-cont  2-samecut
   ICHARG =      1    charge: 1-file 2-atom 10-const
   ISPIN  =      1    spin polarized calculation?
   LNONCOLLINEAR =      F non collinear calculations
   LSORBIT =      F    spin-orbit coupling
   INIWAV =      1    electr: 0-lowe 1-rand  2-diag
   LASPH  =      F    aspherical Exc in radial PAW
   METAGGA=      F    non-selfconsistent MetaGGA calc.

 Electronic Relaxation 1
   ENCUT  =  320.0 eV  23.52 Ry    4.85 a.u.   4.92  4.92  4.92*2*pi/ulx,y,z
   ENINI  =  320.0     initial cutoff
   ENAUG  =  587.0 eV  augmentation charge cutoff
   NELM   =     60;   NELMIN=  2; NELMDL=  0     # of ELM steps 
   EDIFF  = 0.1E-05   stopping-criterion for ELM
   LREAL  =      F    real-space projection
   NLSPLINE    = F    spline interpolate recip. space projectors
   LCOMPAT=      F    compatible to vasp.4.4
   GGA_COMPAT  = T    GGA compatible to vasp.4.4-vasp.4.6
   LMAXPAW     = -100 max onsite density
   LMAXMIX     =    2 max onsite mixed and CHGCAR
   VOSKOWN=      0    Vosko Wilk Nusair interpolation
   ROPT   =    0.00000
 Ionic relaxation
   EDIFFG = 0.1E-04   stopping-criterion for IOM
   NSW    =      0    number of steps for IOM
   NBLOCK =      1;   KBLOCK =      1    inner block; outer block 
   IBRION =     -1    ionic relax: 0-MD 1-quasi-New 2-CG
   NFREE  =      0    steps in history (QN), initial steepest desc. (CG)
   ISIF   =      4    stress and relaxation
   IWAVPR =      0    prediction:  0-non 1-charg 2-wave 3-comb
   ISYM   =      2    0-nonsym 1-usesym 2-fastsym
   LCORR  =      T    Harris-Foulkes like correction to forces

   POTIM  = 0.5000    time-step for ionic-motion
   TEIN   =    0.0    initial temperature
   TEBEG  =    0.0;   TEEND  =   0.0 temperature during run
   SMASS  =  -3.00    Nose mass-parameter (am)
   estimated Nose-frequenzy (Omega)   =  0.10E-29 period in steps = 0.13E+47 mass=  -0.260E-27a.u.
   SCALEE = 1.0000    scale energy and forces
   NPACO  =    256;   APACO  = 16.0  distance and # of slots for P.C.
   PSTRESS=    0.0 pullay stress

  Mass of Ions in am
   POMASS =  63.55
  Ionic Valenz
   ZVAL   =  11.00
  Atomic Wigner-Seitz radii
   RWIGS  =  -1.00
  virtual crystal weights 
   VCA    =   1.00
   NELECT =      44.0000    total number of electrons
   NUPDOWN=      -1.0000    fix difference up-down

 DOS related values:
   EMIN   =  10.00;   EMAX   =-10.00  energy-range for DOS
   EFERMI =   0.00
   ISMEAR =     1;   SIGMA  =   0.20  broadening in eV -4-tet -1-fermi 0-gaus

 Electronic relaxation 2 (details)
   IALGO  =     38    algorithm
   LDIAG  =      T    sub-space diagonalisation (order eigenvalues)
   LSUBROT=      F    optimize rotation matrix (better conditioning)
   TURBO    =      0    0=normal 1=particle mesh
   IRESTART =      0    0=no restart 2=restart with 2 vectors
   NREBOOT  =      0    no. of reboots
   NMIN     =      0    reboot dimension
   EREF     =   0.00    reference energy to select bands
   IMIX   =      4    mixing-type and parameters
     AMIX     =   0.40;   BMIX     =  1.00
     AMIX_MAG =   1.60;   BMIX_MAG =  1.00
     AMIN     =   0.10
     WC   =   100.;   INIMIX=   1;  MIXPRE=   1;  MAXMIX= -45

 Intra band minimization:
   WEIMIN = 0.0000     energy-eigenvalue tresh-hold
   EBREAK =  0.83E-08  absolut break condition
   DEPER  =   0.30     relativ break condition  

   TIME   =   0.40     timestep for ELM

  volume/ion in A,a.u.               =       9.61        64.82
  Fermi-wavevector in a.u.,A,eV,Ry     =   1.712739  3.236608 39.912372  2.933477
  Thomas-Fermi vector in A             =   2.790613
 
 Write flags
   LWAVE        =      T    write WAVECAR
   LDOWNSAMPLE  =      F    k-point downsampling of WAVECAR
   LCHARG       =      T    write CHGCAR
   LVTOT        =      F    write LOCPOT, total local potential
   LVHAR        =      F    write LOCPOT, Hartree potential only
   LELF         =      F    write electronic localiz. function (ELF)
   LORBIT       =      0    0 simple, 1 ext, 2 COOP (PROOUT), +10 PAW based schemes


 Dipole corrections
   LMONO  =      F    monopole corrections only (constant potential shift)
   LDIPOL =      F    correct potential (dipole corrections)
   IDIPOL =      0    1-x, 2-y, 3-z, 4-all directions 
   EPSILON=  1.0000000 bulk dielectric constant

 Exchange correlation treatment:
   GGA     =    PE    GGA type
   LEXCH   =     8    internal setting for exchange type
   VOSKOWN=      0    Vosko Wilk Nusair interpolation
   LHFCALC =     F    Hartree Fock is set to
   LHFONE  =     F    Hartree Fock one center treatment
   AEXX    =    0.0000 exact exchange contribution

 Linear response parameters
   LEPSILON=     F    determine dielectric tensor
   LRPA    =     F    only Hartree local field effects (RPA)
   LNABLA  =     F    use nabla operator in PAW spheres
   LVEL    =     F    velocity operator in full k-point grid
   LINTERFAST=   F  fast interpolation
   KINTER  =     0    interpolate to denser k-point grid
   CSHIFT  =0.1000    complex shift for real part using Kramers Kronig
   OMEGAMAX=  -1.0    maximum frequency
   DEG_THRESHOLD= 0.2000000E-02 threshold for treating states as degnerate
   RTIME   =   -0.100 relaxation time in fs
  (WPLASMAI=    0.000 imaginary part of plasma frequency in eV, 0.658/RTIME)
   DFIELD  = 0.0000000 0.0000000 0.0000000 field for delta impulse in time
 
 Orbital magnetization related:
   ORBITALMAG=     F  switch on orbital magnetization
   LCHIMAG   =     F  perturbation theory with respect to B field
   DQ        =  0.001000  dq finite difference perturbation B field
   LLRAUG    =     F  two centre corrections for induced B field



--------------------------------------------------------------------------------------------------------


 Static calculation
 charge density and potential will be updated during run
 non-spin polarized calculation
 Variant of blocked Davidson
 Davidson routine will perform the subspace rotation
 perform sub-space diagonalisation
    after iterative eigenvector-optimisation
 modified Broyden-mixing scheme, WC =      100.0
 initial mixing is a Kerker type mixing with AMIX =  0.4000 and BMIX =      1.0000
 Hartree-type preconditioning will be used
 using additional bands            8
 reciprocal scheme for non local part
 use partial core corrections
 calculate Harris-corrections to forces 
   (improved forces if not selfconsistent)
 use gradient corrections 
 use of overlap-Matrix (Vanderbilt PP)
 Methfessel and Paxton  Order N= 1 SIGMA  =   0.20


--------------------------------------------------------------------------------------------------------


  energy-cutoff  :      320.00
  volume of cell :       38.42
      direct lattice vectors                 reciprocal lattice vectors
     3.374435082  0.000000000  0.000000000     0.296345900  0.000000000  0.000000000
     0.000000000  3.374435082  0.000000000     0.000000000  0.296345900  0.000000000
     0.000000000  0.000000000  3.374435082     0.000000000  0.000000000  0.296345900

  length of vectors
     3.374435082  3.374435082  3.374435082     0.296345900  0.296345900  0.296345900


 
 old parameters found on file WAVECAR:
  energy-cutoff  :      320.00
  volume of cell :       38.42
      direct lattice vectors                 reciprocal lattice vectors
     3.374435082  0.000000000  0.000000000     0.296345900  0.000000000  0.000000000
     0.000000000  3.374435082  0.000000000     0.000000000  0.296345900  0.000000000
     0.000000000  0.000000000  3.374435082     0.000000000  0.000000000  0.296345900

  length of vectors

 
 k-points in units of 2pi/SCALE and weight: KPOINTS created by Atomic Simulation Env
   0.00000000  0.00000000  0.00000000       0.001
   0.03292732  0.00000000  0.00000000       0.008
   0.06585464  0.00000000  0.00000000       0.008
   0.09878197  0.00000000  0.00000000       0.008
   0.13170929  0.00000000  0.00000000       0.008
   0.03292732  0.03292732  0.00000000       0.016
   0.06585464  0.03292732  0.00000000       0.033
   0.09878197  0.03292732  0.00000000       0.033
   0.13170929  0.03292732  0.00000000       0.033
   0.06585464  0.06585464  0.00000000       0.016
   0.09878197  0.06585464  0.00000000       0.033
   0.13170929  0.06585464  0.00000000       0.033
   0.09878197  0.09878197  0.00000000       0.016
   0.13170929  0.09878197  0.00000000       0.033
   0.13170929  0.13170929  0.00000000       0.016
   0.03292732  0.03292732  0.03292732       0.011
   0.06585464  0.03292732  0.03292732       0.033
   0.09878197  0.03292732  0.03292732       0.033
   0.13170929  0.03292732  0.03292732       0.033
   0.06585464  0.06585464  0.03292732       0.033
   0.09878197  0.06585464  0.03292732       0.066
   0.13170929  0.06585464  0.03292732       0.066
   0.09878197  0.09878197  0.03292732       0.033
   0.13170929  0.09878197  0.03292732       0.066
   0.13170929  0.13170929  0.03292732       0.033
   0.06585464  0.06585464  0.06585464       0.011
   0.09878197  0.06585464  0.06585464       0.033
   0.13170929  0.06585464  0.06585464       0.033
   0.09878197  0.09878197  0.06585464       0.033
   0.13170929  0.09878197  0.06585464       0.066
   0.13170929  0.13170929  0.06585464       0.033
   0.09878197  0.09878197  0.09878197       0.011
   0.13170929  0.09878197  0.09878197       0.033
   0.13170929  0.13170929  0.09878197       0.033
   0.13170929  0.13170929  0.13170929       0.011
 
 k-points in reciprocal lattice and weights: KPOINTS created by Atomic Simulation Env
   0.00000000  0.00000000  0.00000000       0.001
   0.11111111  0.00000000  0.00000000       0.008
   0.22222222  0.00000000  0.00000000       0.008
   0.33333333  0.00000000  0.00000000       0.008
   0.44444444  0.00000000  0.00000000       0.008
   0.11111111  0.11111111  0.00000000       0.016
   0.22222222  0.11111111  0.00000000       0.033
   0.33333333  0.11111111  0.00000000       0.033
   0.44444444  0.11111111  0.00000000       0.033
   0.22222222  0.22222222  0.00000000       0.016
   0.33333333  0.22222222  0.00000000       0.033
   0.44444444  0.22222222  0.00000000       0.033
   0.33333333  0.33333333  0.00000000       0.016
   0.44444444  0.33333333  0.00000000       0.033
   0.44444444  0.44444444  0.00000000       0.016
   0.11111111  0.11111111  0.11111111       0.011
   0.22222222  0.11111111  0.11111111       0.033
   0.33333333  0.11111111  0.11111111       0.033
   0.44444444  0.11111111  0.11111111       0.033
   0.22222222  0.22222222  0.11111111       0.033
   0.33333333  0.22222222  0.11111111       0.066
   0.44444444  0.22222222  0.11111111       0.066
   0.33333333  0.33333333  0.11111111       0.033
   0.44444444  0.33333333  0.11111111       0.066
   0.44444444  0.44444444  0.11111111       0.033
   0.22222222  0.22222222  0.22222222       0.011
   0.33333333  0.22222222  0.22222222       0.033
   0.44444444  0.22222222  0.22222222       0.033
   0.33333333  0.33333333  0.22222222       0.033
   0.44444444  0.33333333  0.22222222       0.066
   0.44444444  0.44444444  0.22222222       0.033
   0.33333333  0.33333333  0.33333333       0.011
   0.44444444  0.33333333  0.33333333       0.033
   0.44444444  0.44444444  0.33333333       0.033
   0.44444444  0.44444444  0.44444444       0.011
 
 position of ions in fractional coordinates (direct lattice) 
   0.00000000  0.00000000  0.00000000
   0.50000000  0.50000000  0.00000000
   0.50000000  0.00000000  0.50000000
   0.00000000  0.50000000  0.50000000
 
 position of ions in cartesian coordinates  (Angst):
   0.00000000  0.00000000  0.00000000
   1.68721754  1.68721754  0.00000000
   1.68721754  0.00000000  1.68721754
   0.00000000  1.68721754  1.68721754
 


--------------------------------------------------------------------------------------------------------


 k-point   1 :   0.0000 0.0000 0.0000  plane waves:     485
 k-point   2 :   0.1111 0.0000 0.0000  plane waves:     478
 k-point   3 :   0.2222 0.0000 0.0000  plane waves:     486
 k-point   4 :   0.3333 0.0000 0.0000  plane waves:     506
 k-point   5 :   0.4444 0.0000 0.0000  plane waves:     490
 k-point   6 :   0.1111 0.1111 0.0000  plane waves:     483
 k-point   7 :   0.2222 0.1111 0.0000  plane waves:     496
 k-point   8 :   0.3333 0.1111 0.0000  plane waves:     497
 k-point   9 :   0.4444 0.1111 0.0000  plane waves:     492
 k-point  10 :   0.2222 0.2222 0.0000  plane waves:     495
 k-point  11 :   0.3333 0.2222 0.0000  plane waves:     499
 k-point  12 :   0.4444 0.2222 0.0000  plane waves:     503
 k-point  13 :   0.3333 0.3333 0.0000  plane waves:     503
 k-point  14 :   0.4444 0.3333 0.0000  plane waves:     506
 k-point  15 :   0.4444 0.4444 0.0000  plane waves:     513
 k-point  16 :   0.1111 0.1111 0.1111  plane waves:     485
 k-point  17 :   0.2222 0.1111 0.1111  plane waves:     495
 k-point  18 :   0.3333 0.1111 0.1111  plane waves:     501
 k-point  19 :   0.4444 0.1111 0.1111  plane waves:     500
 k-point  20 :   0.2222 0.2222 0.1111  plane waves:     499
 k-point  21 :   0.3333 0.2222 0.1111  plane waves:     501
 k-point  22 :   0.4444 0.2222 0.1111  plane waves:     497
 k-point  23 :   0.3333 0.3333 0.1111  plane waves:     502
 k-point  24 :   0.4444 0.3333 0.1111  plane waves:     504
 k-point  25 :   0.4444 0.4444 0.1111  plane waves:     507
 k-point  26 :   0.2222 0.2222 0.2222  plane waves:     498
 k-point  27 :   0.3333 0.2222 0.2222  plane waves:     497
 k-point  28 :   0.4444 0.2222 0.2222  plane waves:     498
 k-point  29 :   0.3333 0.3333 0.2222  plane waves:     502
 k-point  30 :   0.4444 0.3333 0.2222  plane waves:     504
 k-point  31 :   0.4444 0.4444 0.2222  plane waves:     505
 k-point  32 :   0.3333 0.3333 0.3333  plane waves:     495
 k-point  33 :   0.4444 0.3333 0.3333  plane waves:     497
 k-point  34 :   0.4444 0.4444 0.3333  plane waves:     504
 k-point  35 :   0.4444 0.4444 0.4444  plane waves:     492

 maximum number of plane-waves:       513
 maximum index in each direction: 
   IXMAX=    4   IYMAX=    4   IZMAX=    4
   IXMIN=   -5   IYMIN=   -5   IZMIN=   -5


 total amount of memory used by VASP MPI-rank0    44314. kBytes
=======================================================================

   base      :      30000. kBytes
   nonl-proj :       2618. kBytes
   grid      :       1806. kBytes
   one-center:         62. kBytes
   wavefun   :       9828. kBytes
 
     INWAV:  cpu time    0.0124: real time    0.0124
 Broyden mixing: mesh for mixing (old mesh)
   NGX =  9   NGY =  9   NGZ =  9
  (NGX  = 32   NGY  = 32   NGZ  = 32)
  gives a total of    729 points

 initial charge density was supplied:
 number of electron      43.9999199 magnetization 
 keeping initial charge density in first step


--------------------------------------------------------------------------------------------------------


 Maximum index for augmentation-charges         2945 (set IRDMAX)


--------------------------------------------------------------------------------------------------------


 First call to EWALD:  gamma=   0.525
 Maximum number of real-space cells 3x 3x 3
 Maximum number of reciprocal cells 3x 3x 3

    FEWALD:  cpu time    0.0009: real time    0.0009


--------------------------------------- Iteration      1(   1)  ---------------------------------------


    POTLOK:  cpu time    0.0075: real time    0.0075
    SETDIJ:  cpu time    0.0040: real time    0.0040
     EDDAV:  cpu time    0.4300: real time    0.4481
       DOS:  cpu time    0.0025: real time    0.0025
    CHARGE:  cpu time    0.0307: real time    0.0307
    MIXING:  cpu time    0.0003: real time    0.0003
    --------------------------------------------
      LOOP:  cpu time    0.4750: real time    0.4930

 eigenvalue-minimisations  :  2354
 total energy-change (2. order) :-0.1364614E+02  (-0.1441816E-04)
 number of electron      43.9999199 magnetization 
 augmentation part       27.8432091 magnetization 

 Broyden mixing:
  rms(total) = 0.85923E-03    rms(broyden)= 0.76496E-03
  rms(prec ) = 0.16760E-02
  weight for this iteration     100.00
  WARNING: grid for Broyden might be to small

 Free energy of the ion-electron system (eV)
  ---------------------------------------------------
  alpha Z        PSCENC =       304.52922231
  Ewald energy   TEWEN  =     -4734.74551764
  -Hartree energ DENC   =     -1185.24106660
  -exchange      EXHF   =         0.00000000
  -V(xc)+E(xc)   XCENC  =       180.75204528
  PAW double counting   =      5646.15125254    -6084.48194367
  entropy T*S    EENTRO =        -0.00102767
  eigenvalues    EBANDS =       295.61478904
  atomic energy  EATOM  =      5563.77610493
  Solvation  Ediel_sol  =         0.00000000
  ---------------------------------------------------
  free energy    TOTEN  =       -13.64614147 eV

  energy without entropy =      -13.64511381  energy(sigma->0) =      -13.64579892


--------------------------------------------------------------------------------------------------------




--------------------------------------- Iteration      1(   2)  ---------------------------------------


    POTLOK:  cpu time    0.0071: real time    0.0071
    SETDIJ:  cpu time    0.0039: real time    0.0039
     EDDAV:  cpu time    0.4053: real time    0.4053
       DOS:  cpu time    0.0025: real time    0.0025
    CHARGE:  cpu time    0.0304: real time    0.0304
    MIXING:  cpu time    0.0003: real time    0.0003
    --------------------------------------------
      LOOP:  cpu time    0.4495: real time    0.4495

 eigenvalue-minimisations  :  2298
 total energy-change (2. order) : 0.2234203E-02  (-0.1498022E-04)
 number of electron      43.9999199 magnetization 
 augmentation part       27.8453291 magnetization 

 Broyden mixing:
  rms(total) = 0.82629E-03    rms(broyden)= 0.75859E-03
  rms(prec ) = 0.17370E-02
  weight for this iteration     100.00

 eigenvalues of (default mixing * dielectric matrix)
  average eigenvalue GAMMA=   0.5030
  0.5030

 Free energy of the ion-electron system (eV)
  ---------------------------------------------------
  alpha Z        PSCENC =       304.52922231
  Ewald energy   TEWEN  =     -4734.74551764
  -Hartree energ DENC   =     -1185.20598884
  -exchange      EXHF   =         0.00000000
  -V(xc)+E(xc)   XCENC  =       180.75013198
  PAW double counting   =      5646.13767219    -6084.46266638
  entropy T*S    EENTRO =        -0.00102769
  eigenvalues    EBANDS =       295.57816186
  atomic energy  EATOM  =      5563.77610493
  Solvation  Ediel_sol  =         0.00000000
  ---------------------------------------------------
  free energy    TOTEN  =       -13.64390727 eV

  energy without entropy =      -13.64287958  energy(sigma->0) =      -13.64356471


--------------------------------------------------------------------------------------------------------




--------------------------------------- Iteration      1(   3)  ---------------------------------------


    POTLOK:  cpu time    0.0069: real time    0.0069
    SETDIJ:  cpu time    0.0038: real time    0.0038
     EDDAV:  cpu time    0.3373: real time    0.3373
       DOS:  cpu time    0.0025: real time    0.0024
    CHARGE:  cpu time    0.0307: real time    0.0307
    MIXING:  cpu time    0.0003: real time    0.0003
    --------------------------------------------
      LOOP:  cpu time    0.3813: real time    0.3813

 eigenvalue-minimisations  :  1832
 total energy-change (2. order) : 0.1705827E-05  (-0.3468955E-06)
 number of electron      43.9999199 magnetization 
 augmentation part       27.8446826 magnetization 

 Broyden mixing:
  rms(total) = 0.30466E-03    rms(broyden)= 0.30019E-03
  rms(prec ) = 0.66959E-03
  weight for this iteration     100.00

 eigenvalues of (default mixing * dielectric matrix)
  average eigenvalue GAMMA=   0.6760
  0.6760  0.6760

 Free energy of the ion-electron system (eV)
  ---------------------------------------------------
  alpha Z        PSCENC =       304.52922231
  Ewald energy   TEWEN  =     -4734.74551764
  -Hartree energ DENC   =     -1185.22810813
  -exchange      EXHF   =         0.00000000
  -V(xc)+E(xc)   XCENC  =       180.75138585
  PAW double counting   =      5646.14965904    -6084.48223612
  entropy T*S    EENTRO =        -0.00102615
  eigenvalues    EBANDS =       295.60661035
  atomic energy  EATOM  =      5563.77610493
  Solvation  Ediel_sol  =         0.00000000
  ---------------------------------------------------
  free energy    TOTEN  =       -13.64390557 eV

  energy without entropy =      -13.64287941  energy(sigma->0) =      -13.64356352


--------------------------------------------------------------------------------------------------------




--------------------------------------- Iteration      1(   4)  ---------------------------------------


    POTLOK:  cpu time    0.0069: real time    0.0069
    SETDIJ:  cpu time    0.0038: real time    0.0038
     EDDAV:  cpu time    0.2525: real time    0.2525
       DOS:  cpu time    0.0025: real time    0.0025
    --------------------------------------------
      LOOP:  cpu time    0.2657: real time    0.2658

 eigenvalue-minimisations  :  1128
 total energy-change (2. order) : 0.1251583E-06  (-0.4254343E-07)
 number of electron      43.9999199 magnetization 
 augmentation part       27.8446826 magnetization 

 Free energy of the ion-electron system (eV)
  ---------------------------------------------------
  alpha Z        PSCENC =       304.52922231
  Ewald energy   TEWEN  =     -4734.74551764
  -Hartree energ DENC   =     -1185.23443744
  -exchange      EXHF   =         0.00000000
  -V(xc)+E(xc)   XCENC  =       180.75172189
  PAW double counting   =      5646.15605110    -6084.49007943
  entropy T*S    EENTRO =        -0.00102574
  eigenvalues    EBANDS =       295.61405458
  atomic energy  EATOM  =      5563.77610493
  Solvation  Ediel_sol  =         0.00000000
  ---------------------------------------------------
  free energy    TOTEN  =       -13.64390544 eV

  energy without entropy =      -13.64287970  energy(sigma->0) =      -13.64356353


--------------------------------------------------------------------------------------------------------




 average (electrostatic) potential at core
  the test charge radii are     0.9430
  (the norm of the test charge is              1.0000)
       1 -61.3744       2 -61.3744       3 -61.3744       4 -61.3744
 
 
 
 E-fermi :  10.5179     XC(G=0): -13.9736     alpha+bet :-16.5046

 Fermi energy:        10.5179311080

 k-point     1 :       0.0000    0.0000    0.0000
  band No.  band energies     occupation 
      1      -0.5997      2.00000
      2       4.1770      2.00000
      3       4.1770      2.00000
      4       4.1770      2.00000
      5       4.7847      2.00000
      6       4.7847      2.00000
      7       4.7847      2.00000
      8       6.7007      2.00000
      9       6.7007      2.00000
     10       6.7007      2.00000
     11       7.8395      2.00000
     12       7.8395      2.00000
     13       8.5950      2.00000
     14       8.5950      2.00000
     15       8.5950      2.00000
     16       8.8098      2.00000
     17       8.8098      2.00000
     18       8.8098      2.00000
     19       8.8098      2.00000
     20       8.8098      2.00000
     21       8.8098      2.00000
     22      11.7975     -0.00000
     23      11.7975     -0.00000
     24      11.7975     -0.00000
     25      19.1321      0.00000
     26      19.1321      0.00000
     27      19.1321      0.00000
     28      25.2290      0.00000
     29      25.2290      0.00000
     30      25.2290      0.00000

 k-point     2 :       0.1111    0.0000    0.0000
  band No.  band energies     occupation 
      1      -0.4253      2.00000
      2       4.1853      2.00000
      3       4.2663      2.00000
      4       4.2663      2.00000
      5       4.8380      2.00000
      6       4.8424      2.00000
      7       4.8424      2.00000
      8       6.6385      2.00000
      9       6.7493      2.00000
     10       6.7493      2.00000
     11       7.7827      2.00000
     12       7.8617      2.00000
     13       8.4283      2.00000
     14       8.4283      2.00000
     15       8.5212      2.00000
     16       8.5212      2.00000
     17       8.5716      2.00000
     18       8.7239      2.00000
     19       8.7239      2.00000
     20       8.8100      2.00000
     21       8.8100      2.00000
     22      10.9370     -0.01161
     23      12.3260     -0.00000
     24      12.3260     -0.00000
     25      19.1730      0.00000
     26      19.1730      0.00000
     27      20.2964      0.00000
     28      24.2341      0.00000
     29      24.2341      0.00000
     30      24.6495      0.00000

 k-point     3 :       0.2222    0.0000    0.0000
  band No.  band energies     occupation 
      1       0.0890      2.00000
      2       4.1513      2.00000
      3       4.5114      2.00000
      4       4.5114      2.00000
      5       4.9932      2.00000
      6       5.0167      2.00000
      7       5.0167      2.00000
      8       6.4597      2.00000
      9       6.8915      2.00000
     10       6.8915      2.00000
     11       7.6246      2.00000
     12       7.6850      2.00000
     13       7.6850      2.00000
     14       7.9254      2.00000
     15       8.3140      2.00000
     16       8.3140      2.00000
     17       8.4877      2.00000
     18       8.4877      2.00000
     19       8.5041      2.00000
     20       8.8103      2.00000
     21       8.8103      2.00000
     22       9.3013      2.00000
     23      13.5082     -0.00000
     24      13.5082     -0.00000
     25      19.3022      0.00000
     26      19.3022      0.00000
     27      22.3570      0.00000
     28      22.3570      0.00000
     29      22.8815      0.00000
     30      23.4358      0.00000

 k-point     4 :       0.3333    0.0000    0.0000
  band No.  band energies     occupation 
      1       0.9117      2.00000
      2       3.8610      2.00000
      3       4.8359      2.00000
      4       4.8359      2.00000
      5       5.2347      2.00000
      6       5.3109      2.00000
      7       5.3109      2.00000
      8       6.1914      2.00000
      9       6.9323      2.00000
     10       6.9323      2.00000
     11       7.1216      2.00000
     12       7.1216      2.00000
     13       7.4064      2.00000
     14       7.9188      2.00000
     15       8.0239      2.00000
     16       8.0304      2.00000
     17       8.0304      2.00000
     18       8.1534      2.00000
     19       8.1534      2.00000
     20       8.4015      2.00000
     21       8.8107      2.00000
     22       8.8107      2.00000
     23      14.9856     -0.00000
     24      14.9856     -0.00000
     25      19.5295      0.00000
     26      19.5295      0.00000
     27      20.3736      0.00000
     28      20.3736      0.00000
     29      22.2463      0.00000
     30      22.2463      0.00000

 k-point     5 :       0.4444    0.0000    0.0000
  band No.  band energies     occupation 
      1       1.9671      2.00000
      2       3.0704      2.00000
      3       5.0895      2.00000
      4       5.0895      2.00000
      5       5.5382      2.00000
      6       5.7292      2.00000
      7       5.7292      2.00000
      8       5.8708      2.00000
      9       6.2713      2.00000
     10       6.2713      2.00000
     11       7.2211      2.00000
     12       7.2710      2.00000
     13       7.4265      2.00000
     14       7.4265      2.00000
     15       7.7826      2.00000
     16       7.7826      2.00000
     17       7.8026      2.00000
     18       7.8026      2.00000
     19       8.1458      2.00000
     20       8.2769      2.00000
     21       8.8109      2.00000
     22       8.8109      2.00000
     23      16.6481      0.00000
     24      16.6481      0.00000
     25      18.4540      0.00000
     26      18.4540      0.00000
     27      19.7989      0.00000
     28      19.7989      0.00000
     29      21.4427      0.00000
     30      21.4427      0.00000

 k-point     6 :       0.1111    0.1111    0.0000
  band No.  band energies     occupation 
      1      -0.2525      2.00000
      2       4.2778      2.00000
      3       4.2778      2.00000
      4       4.3523      2.00000
      5       4.8939      2.00000
      6       4.8939      2.00000
      7       4.8965      2.00000
      8       6.6036      2.00000
      9       6.7717      2.00000
     10       6.7883      2.00000
     11       7.7679      2.00000
     12       7.8509      2.00000
     13       8.1819      2.00000
     14       8.2751      2.00000
     15       8.2751      2.00000
     16       8.4531      2.00000
     17       8.5342      2.00000
     18       8.5342      2.00000
     19       8.7237      2.00000
     20       8.7237      2.00000
     21       8.7550      2.00000
     22      11.4668     -0.00000
     23      11.4668     -0.00000
     24      12.7749     -0.00000
     25      19.2034      0.00000
     26      20.3668      0.00000
     27      20.3668      0.00000
     28      22.4531      0.00000
     29      24.4740      0.00000
     30      24.4740      0.00000

 k-point     7 :       0.2222    0.1111    0.0000
  band No.  band energies     occupation 
      1       0.2567      2.00000
      2       4.2532      2.00000
      3       4.5325      2.00000
      4       4.5890      2.00000
      5       5.0434      2.00000
      6       5.0585      2.00000
      7       5.0624      2.00000
      8       6.4463      2.00000
      9       6.8997      2.00000
     10       6.8997      2.00000
     11       7.5337      2.00000
     12       7.5686      2.00000
     13       7.6386      2.00000
     14       7.9065      2.00000
     15       7.9173      2.00000
     16       8.2608      2.00000
     17       8.3245      2.00000
     18       8.4706      2.00000
     19       8.4865      2.00000
     20       8.7230      2.00000
     21       8.7255      2.00000
     22       9.9348      2.00030
     23      12.5573     -0.00000
     24      13.8585     -0.00000
     25      19.2197      0.00000
     26      20.5822      0.00000
     27      20.5865      0.00000
     28      22.5787      0.00000
     29      22.9639      0.00000
     30      23.6634      0.00000

 k-point     8 :       0.3333    0.1111    0.0000
  band No.  band energies     occupation 
      1       1.0705      2.00000
      2       3.9768      2.00000
      3       4.8743      2.00000
      4       4.9088      2.00000
      5       5.2762      2.00000
      6       5.3234      2.00000
      7       5.3465      2.00000
      8       6.1932      2.00000
      9       6.8054      2.00000
     10       6.8859      2.00000
     11       7.0375      2.00000
     12       7.1252      2.00000
     13       7.3673      2.00000
     14       7.4887      2.00000
     15       7.9965      2.00000
     16       8.0405      2.00000
     17       8.0433      2.00000
     18       8.1522      2.00000
     19       8.2873      2.00000
     20       8.7193      2.00000
     21       8.7218      2.00000
     22       8.8325      2.00000
     23      13.8457     -0.00000
     24      15.2754     -0.00000
     25      18.3090      0.00000
     26      19.9445      0.00000
     27      20.5948      0.00000
     28      20.9047      0.00000
     29      22.5149      0.00000
     30      24.2288      0.00000

 k-point     9 :       0.4444    0.1111    0.0000
  band No.  band energies     occupation 
      1       2.1128      2.00000
      2       3.2006      2.00000
      3       5.1516      2.00000
      4       5.1662      2.00000
      5       5.5682      2.00000
      6       5.6856      2.00000
      7       5.7483      2.00000
      8       5.8864      2.00000
      9       6.1792      2.00000
     10       6.2650      2.00000
     11       7.0217      2.00000
     12       7.0260      2.00000
     13       7.4273      2.00000
     14       7.5823      2.00000
     15       7.7820      2.00000
     16       7.7892      2.00000
     17       7.8083      2.00000
     18       7.9199      2.00000
     19       8.2001      2.00000
     20       8.4037      2.00000
     21       8.7189      2.00000
     22       8.7202      2.00000
     23      15.2455     -0.00000
     24      16.7427      0.00000
     25      16.9018      0.00000
     26      18.6861      0.00000
     27      20.3087      0.00000
     28      20.8544      0.00000
     29      22.2395      0.00000
     30      23.0436      0.00000

 k-point    10 :       0.2222    0.2222    0.0000
  band No.  band energies     occupation 
      1       0.7500      2.00000
      2       4.5372      2.00000
      3       4.5372      2.00000
      4       4.8023      2.00000
      5       5.1834      2.00000
      6       5.1951      2.00000
      7       5.1951      2.00000
      8       6.3636      2.00000
      9       6.9258      2.00000
     10       6.9732      2.00000
     11       7.1695      2.00000
     12       7.1695      2.00000
     13       7.2236      2.00000
     14       7.5948      2.00000
     15       7.9851      2.00000
     16       8.1070      2.00000
     17       8.2847      2.00000
     18       8.2847      2.00000
     19       8.4840      2.00000
     20       8.4840      2.00000
     21       8.5935      2.00000
     22      10.9277     -0.01361
     23      10.9277     -0.01361
     24      14.7809     -0.00000
     25      17.9763      0.00000
     26      19.8756      0.00000
     27      23.1180      0.00000
     28      23.1180      0.00000
     29      23.2154      0.00000
     30      23.2154      0.00000

 k-point    11 :       0.3333    0.2222    0.0000
  band No.  band energies     occupation 
      1       1.5355      2.00000
      2       4.3014      2.00000
      3       4.9301      2.00000
      4       5.1008      2.00000
      5       5.3688      2.00000
      6       5.3997      2.00000
      7       5.4480      2.00000
      8       6.1779      2.00000
      9       6.5158      2.00000
     10       6.7389      2.00000
     11       6.7901      2.00000
     12       6.9300      2.00000
     13       7.1598      2.00000
     14       7.5084      2.00000
     15       7.8900      2.00000
     16       8.0196      2.00000
     17       8.1234      2.00000
     18       8.1502      2.00000
     19       8.1807      2.00000
     20       8.4813      2.00000
     21       8.5193      2.00000
     22       9.6291      2.00000
     23      12.0219     -0.00000
     24      16.0747      0.00000
     25      16.1744      0.00000
     26      20.1539      0.00000
     27      21.2302      0.00000
     28      22.5447      0.00000
     29      24.1985      0.00000
     30      24.2323      0.00000

 k-point    12 :       0.4444    0.2222    0.0000
  band No.  band energies     occupation 
      1       2.5349      2.00000
      2       3.5698      2.00000
      3       5.2863      2.00000
      4       5.3803      2.00000
      5       5.5680      2.00000
      6       5.6539      2.00000
      7       5.8000      2.00000
      8       5.9263      2.00000
      9       5.9714      2.00000
     10       6.2404      2.00000
     11       6.6804      2.00000
     12       6.8116      2.00000
     13       7.4413      2.00000
     14       7.5911      2.00000
     15       7.7283      2.00000
     16       7.7810      2.00000
     17       7.7848      2.00000
     18       7.8483      2.00000
     19       8.4619      2.00000
     20       8.4813      2.00000
     21       8.4898      2.00000
     22       8.8762      2.00000
     23      13.2241     -0.00000
     24      14.5876     -0.00000
     25      17.6182      0.00000
     26      19.3494      0.00000
     27      20.7074      0.00000
     28      21.5214      0.00000
     29      24.9631      0.00000
     30      25.4484      0.00000

 k-point    13 :       0.3333    0.3333    0.0000
  band No.  band energies     occupation 
      1       2.2674      2.00000
      2       4.7575      2.00000
      3       4.7575      2.00000
      4       5.3117      2.00000
      5       5.4851      2.00000
      6       5.6015      2.00000
      7       5.6015      2.00000
      8       6.1058      2.00000
      9       6.3128      2.00000
     10       6.3128      2.00000
     11       6.4918      2.00000
     12       6.8366      2.00000
     13       7.2761      2.00000
     14       7.4194      2.00000
     15       7.7240      2.00000
     16       7.8808      2.00000
     17       7.8808      2.00000
     18       8.1528      2.00000
     19       8.1528      2.00000
     20       8.3362      2.00000
     21       8.4829      2.00000
     22      10.5114      1.05497
     23      10.5114      1.05497
     24      14.2932     -0.00000
     25      17.2519      0.00000
     26      20.5956      0.00000
     27      22.2138      0.00000
     28      22.2138      0.00000
     29      23.4702      0.00000
     30      23.4702      0.00000

 k-point    14 :       0.4444    0.3333    0.0000
  band No.  band energies     occupation 
      1       3.1808      2.00000
      2       4.1062      2.00000
      3       5.1888      2.00000
      4       5.3836      2.00000
      5       5.6876      2.00000
      6       5.7844      2.00000
      7       5.8706      2.00000
      8       5.9472      2.00000
      9       5.9652      2.00000
     10       6.1829      2.00000
     11       6.4150      2.00000
     12       6.6586      2.00000
     13       7.4418      2.00000
     14       7.4986      2.00000
     15       7.5946      2.00000
     16       7.6422      2.00000
     17       7.6555      2.00000
     18       7.8057      2.00000
     19       8.1712      2.00000
     20       8.2239      2.00000
     21       8.9025      2.00000
     22       9.5127      2.00000
     23      11.5231     -0.00000
     24      12.7536     -0.00000
     25      18.7043      0.00000
     26      20.3706      0.00000
     27      21.2782      0.00000
     28      22.2345      0.00000
     29      23.4752      0.00000
     30      24.5776      0.00000

 k-point    15 :       0.4444    0.4444    0.0000
  band No.  band energies     occupation 
      1       3.9464      2.00000
      2       4.6718      2.00000
      3       4.6718      2.00000
      4       5.1090      2.00000
      5       5.9370      2.00000
      6       5.9370      2.00000
      7       5.9732      2.00000
      8       5.9929      2.00000
      9       6.0793      2.00000
     10       6.2184      2.00000
     11       6.2184      2.00000
     12       6.4918      2.00000
     13       7.3476      2.00000
     14       7.4475      2.00000
     15       7.4565      2.00000
     16       7.4565      2.00000
     17       7.6369      2.00000
     18       7.8697      2.00000
     19       7.8697      2.00000
     20       8.0055      2.00000
     21       9.4802      2.00000
     22      10.2966      2.06591
     23      10.2966      2.06591
     24      11.3350     -0.00000
     25      20.0757      0.00000
     26      21.6769      0.00000
     27      21.6769      0.00000
     28      22.0965      0.00000
     29      23.1938      0.00000
     30      23.1939      0.00000

 k-point    16 :       0.1111    0.1111    0.1111
  band No.  band energies     occupation 
      1      -0.0817      2.00000
      2       4.3660      2.00000
      3       4.3660      2.00000
      4       4.3660      2.00000
      5       4.9464      2.00000
      6       4.9464      2.00000
      7       4.9464      2.00000
      8       6.5732      2.00000
      9       6.8053      2.00000
     10       6.8053      2.00000
     11       7.8013      2.00000
     12       7.8013      2.00000
     13       8.0512      2.00000
     14       8.0512      2.00000
     15       8.0512      2.00000
     16       8.3735      2.00000
     17       8.3735      2.00000
     18       8.3735      2.00000
     19       8.7359      2.00000
     20       8.7359      2.00000
     21       8.7359      2.00000
     22      11.8873     -0.00000
     23      11.8873     -0.00000
     24      11.8873     -0.00000
     25      20.4214      0.00000
     26      20.4214      0.00000
     27      20.4214      0.00000
     28      22.6910      0.00000
     29      22.6910      0.00000
     30      22.6910      0.00000

 k-point    17 :       0.2222    0.1111    0.1111
  band No.  band energies     occupation 
      1       0.4217      2.00000
      2       4.3476      2.00000
      3       4.6089      2.00000
      4       4.6089      2.00000
      5       5.0920      2.00000
      6       5.1033      2.00000
      7       5.1033      2.00000
      8       6.4357      2.00000
      9       6.9001      2.00000
     10       6.9071      2.00000
     11       7.4353      2.00000
     12       7.4353      2.00000
     13       7.6718      2.00000
     14       7.6749      2.00000
     15       7.8965      2.00000
     16       8.1666      2.00000
     17       8.2033      2.00000
     18       8.2033      2.00000
     19       8.6674      2.00000
     20       8.7036      2.00000
     21       8.7036      2.00000
     22      10.3173      2.05094
     23      12.8562     -0.00000
     24      12.8562     -0.00000
     25      20.2594      0.00000
     26      20.2594      0.00000
     27      21.0961      0.00000
     28      21.0961      0.00000
     29      22.8478      0.00000
     30      23.5624      0.00000

 k-point    18 :       0.3333    0.1111    0.1111
  band No.  band energies     occupation 
      1       1.2251      2.00000
      2       4.0809      2.00000
      3       4.9412      2.00000
      4       4.9412      2.00000
      5       5.3190      2.00000
      6       5.3539      2.00000
      7       5.3539      2.00000
      8       6.1993      2.00000
      9       6.7806      2.00000
     10       6.7806      2.00000
     11       7.0069      2.00000
     12       7.0766      2.00000
     13       7.1686      2.00000
     14       7.5862      2.00000
     15       7.8879      2.00000
     16       7.9700      2.00000
     17       7.9700      2.00000
     18       8.0394      2.00000
     19       8.5462      2.00000
     20       8.6744      2.00000
     21       8.6744      2.00000
     22       9.0562      2.00000
     23      14.0597     -0.00000
     24      14.0597     -0.00000
     25      18.6984      0.00000
     26      18.6984      0.00000
     27      21.2813      0.00000
     28      21.2813      0.00000
     29      24.1993      0.00000
     30      24.4272      0.00000

 k-point    19 :       0.4444    0.1111    0.1111
  band No.  band energies     occupation 
      1       2.2517      2.00000
      2       3.3200      2.00000
      3       5.2279      2.00000
      4       5.2279      2.00000
      5       5.6021      2.00000
      6       5.6536      2.00000
      7       5.6536      2.00000
      8       5.9083      2.00000
      9       6.2353      2.00000
     10       6.2353      2.00000
     11       6.9037      2.00000
     12       6.9494      2.00000
     13       7.3088      2.00000
     14       7.5884      2.00000
     15       7.7671      2.00000
     16       7.7671      2.00000
     17       7.7836      2.00000
     18       8.2104      2.00000
     19       8.2667      2.00000
     20       8.3869      2.00000
     21       8.6618      2.00000
     22       8.6618      2.00000
     23      15.3182     -0.00000
     24      15.3182     -0.00000
     25      17.1762      0.00000
     26      17.1762      0.00000
     27      21.8788      0.00000
     28      21.8788      0.00000
     29      23.2861      0.00000
     30      23.2861      0.00000

 k-point    20 :       0.2222    0.2222    0.1111
  band No.  band energies     occupation 
      1       0.9068      2.00000
      2       4.6070      2.00000
      3       4.6070      2.00000
      4       4.8163      2.00000
      5       5.2256      2.00000
      6       5.2368      2.00000
      7       5.2368      2.00000
      8       6.3658      2.00000
      9       6.9230      2.00000
     10       6.9491      2.00000
     11       7.1001      2.00000
     12       7.1001      2.00000
     13       7.1252      2.00000
     14       7.6769      2.00000
     15       7.9484      2.00000
     16       7.9894      2.00000
     17       8.0199      2.00000
     18       8.0199      2.00000
     19       8.6372      2.00000
     20       8.6372      2.00000
     21       8.6394      2.00000
     22      11.1516     -0.00007
     23      11.1516     -0.00007
     24      13.6136     -0.00000
     25      18.3938      0.00000
     26      21.1430      0.00000
     27      21.1764      0.00000
     28      21.1764      0.00000
     29      23.5181      0.00000
     30      23.5181      0.00000

 k-point    21 :       0.3333    0.2222    0.1111
  band No.  band energies     occupation 
      1       1.6766      2.00000
      2       4.3644      2.00000
      3       4.9613      2.00000
      4       5.1002      2.00000
      5       5.4011      2.00000
      6       5.4493      2.00000
      7       5.4620      2.00000
      8       6.2020      2.00000
      9       6.5440      2.00000
     10       6.6943      2.00000
     11       6.7541      2.00000
     12       6.9227      2.00000
     13       7.0613      2.00000
     14       7.6592      2.00000
     15       7.7506      2.00000
     16       7.7892      2.00000
     17       7.8502      2.00000
     18       8.1469      2.00000
     19       8.4988      2.00000
     20       8.5608      2.00000
     21       8.5628      2.00000
     22       9.7325      2.00000
     23      12.1618     -0.00000
     24      14.5201     -0.00000
     25      16.7239      0.00000
     26      19.3611      0.00000
     27      21.6382      0.00000
     28      22.1552      0.00000
     29      23.9324      0.00000
     30      25.1255      0.00000

 k-point    22 :       0.4444    0.2222    0.1111
  band No.  band energies     occupation 
      1       2.6507      2.00000
      2       3.6526      2.00000
      3       5.3052      2.00000
      4       5.4122      2.00000
      5       5.4863      2.00000
      6       5.6200      2.00000
      7       5.7071      2.00000
      8       5.9695      2.00000
      9       6.1967      2.00000
     10       6.3184      2.00000
     11       6.6645      2.00000
     12       6.7992      2.00000
     13       7.2332      2.00000
     14       7.4704      2.00000
     15       7.6424      2.00000
     16       7.6732      2.00000
     17       7.8681      2.00000
     18       8.2328      2.00000
     19       8.4187      2.00000
     20       8.5159      2.00000
     21       8.5168      2.00000
     22       8.8510      2.00000
     23      13.2835     -0.00000
     24      14.4250     -0.00000
     25      16.5187      0.00000
     26      17.7680      0.00000
     27      22.4099      0.00000
     28      23.3847      0.00000
     29      23.4172      0.00000
     30      24.8400      0.00000

 k-point    23 :       0.3333    0.3333    0.1111
  band No.  band energies     occupation 
      1       2.3822      2.00000
      2       4.7364      2.00000
      3       4.7364      2.00000
      4       5.2147      2.00000
      5       5.5580      2.00000
      6       5.6644      2.00000
      7       5.6644      2.00000
      8       6.1615      2.00000
      9       6.3778      2.00000
     10       6.3778      2.00000
     11       6.5403      2.00000
     12       6.8403      2.00000
     13       7.0842      2.00000
     14       7.5902      2.00000
     15       7.6251      2.00000
     16       7.6251      2.00000
     17       7.6541      2.00000
     18       8.3810      2.00000
     19       8.3810      2.00000
     20       8.4314      2.00000
     21       8.4382      2.00000
     22      10.5638      0.62274
     23      10.5638      0.62274
     24      14.0474     -0.00000
     25      16.2909      0.00000
     26      20.2986      0.00000
     27      20.2986      0.00000
     28      22.2316      0.00000
     29      24.6062      0.00000
     30      25.5960      0.00000

 k-point    24 :       0.4444    0.3333    0.1111
  band No.  band energies     occupation 
      1       3.2509      2.00000
      2       4.1156      2.00000
      3       5.0564      2.00000
      4       5.2139      2.00000
      5       5.7514      2.00000
      6       5.8457      2.00000
      7       5.8855      2.00000
      8       6.0547      2.00000
      9       6.2048      2.00000
     10       6.3551      2.00000
     11       6.4523      2.00000
     12       6.6727      2.00000
     13       7.1745      2.00000
     14       7.3709      2.00000
     15       7.4587      2.00000
     16       7.4886      2.00000
     17       7.8065      2.00000
     18       8.1061      2.00000
     19       8.3104      2.00000
     20       8.3308      2.00000
     21       8.8507      2.00000
     22       9.4842      2.00000
     23      11.5366     -0.00000
     24      12.7119     -0.00000
     25      17.3018      0.00000
     26      18.6773      0.00000
     27      21.4988      0.00000
     28      22.9374      0.00000
     29      23.1015      0.00000
     30      24.2506      0.00000

 k-point    25 :       0.4444    0.4444    0.1111
  band No.  band energies     occupation 
      1       3.9412      2.00000
      2       4.5767      2.00000
      3       4.5767      2.00000
      4       4.9390      2.00000
      5       6.0426      2.00000
      6       6.1001      2.00000
      7       6.1001      2.00000
      8       6.1247      2.00000
      9       6.2970      2.00000
     10       6.2970      2.00000
     11       6.3131      2.00000
     12       6.5246      2.00000
     13       7.1517      2.00000
     14       7.2747      2.00000
     15       7.2747      2.00000
     16       7.2961      2.00000
     17       7.8538      2.00000
     18       8.0599      2.00000
     19       8.0599      2.00000
     20       8.1504      2.00000
     21       9.4245      2.00000
     22      10.2603      2.06978
     23      10.2603      2.06978
     24      11.2994     -0.00000
     25      18.4526      0.00000
     26      19.8552      0.00000
     27      19.8552      0.00000
     28      21.2764      0.00000
     29      24.0663      0.00000
     30      25.3103      0.00000

 k-point    26 :       0.2222    0.2222    0.2222
  band No.  band energies     occupation 
      1       1.3650      2.00000
      2       4.7839      2.00000
      3       4.7839      2.00000
      4       4.7839      2.00000
      5       5.3689      2.00000
      6       5.3689      2.00000
      7       5.3689      2.00000
      8       6.3490      2.00000
      9       6.8801      2.00000
     10       6.8801      2.00000
     11       6.8801      2.00000
     12       6.9228      2.00000
     13       6.9228      2.00000
     14       7.7434      2.00000
     15       7.7434      2.00000
     16       7.7434      2.00000
     17       7.8720      2.00000
     18       7.8720      2.00000
     19       8.6820      2.00000
     20       8.6820      2.00000
     21       8.6820      2.00000
     22      11.7349     -0.00000
     23      11.7349     -0.00000
     24      11.7349     -0.00000
     25      19.0838      0.00000
     26      19.0838      0.00000
     27      19.0838      0.00000
     28      23.8706      0.00000
     29      23.8706      0.00000
     30      23.8706      0.00000

 k-point    27 :       0.3333    0.2222    0.2222
  band No.  band energies     occupation 
      1       2.0839      2.00000
      2       4.5145      2.00000
      3       4.9894      2.00000
      4       4.9894      2.00000
      5       5.5664      2.00000
      6       5.5664      2.00000
      7       5.6106      2.00000
      8       6.2674      2.00000
      9       6.6022      2.00000
     10       6.6022      2.00000
     11       6.6485      2.00000
     12       6.8941      2.00000
     13       6.9512      2.00000
     14       7.4746      2.00000
     15       7.5654      2.00000
     16       7.5654      2.00000
     17       7.8916      2.00000
     18       8.1085      2.00000
     19       8.6165      2.00000
     20       8.6165      2.00000
     21       8.6475      2.00000
     22      10.1062      2.01318
     23      12.5021     -0.00000
     24      12.5021     -0.00000
     25      17.3323      0.00000
     26      17.3323      0.00000
     27      20.0315      0.00000
     28      24.3497      0.00000
     29      24.4602      0.00000
     30      24.4602      0.00000

 k-point    28 :       0.4444    0.2222    0.2222
  band No.  band energies     occupation 
      1       2.9746      2.00000
      2       3.8674      2.00000
      3       5.1447      2.00000
      4       5.1447      2.00000
      5       5.6895      2.00000
      6       5.6895      2.00000
      7       5.8813      2.00000
      8       6.1085      2.00000
      9       6.4604      2.00000
     10       6.4604      2.00000
     11       6.6161      2.00000
     12       6.7589      2.00000
     13       7.0552      2.00000
     14       7.2348      2.00000
     15       7.4423      2.00000
     16       7.4423      2.00000
     17       8.2139      2.00000
     18       8.3388      2.00000
     19       8.5277      2.00000
     20       8.5454      2.00000
     21       8.5454      2.00000
     22       8.9332      2.00000
     23      13.2019     -0.00000
     24      13.2019     -0.00000
     25      16.1454      0.00000
     26      16.1454      0.00000
     27      21.2367      0.00000
     28      22.6786      0.00000
     29      25.2304      0.00000
     30      25.2304      0.00000

 k-point    29 :       0.3333    0.3333    0.2222
  band No.  band energies     occupation 
      1       2.7041      2.00000
      2       4.6708      2.00000
      3       4.6708      2.00000
      4       4.9518      2.00000
      5       5.7786      2.00000
      6       5.8589      2.00000
      7       5.8589      2.00000
      8       6.3412      2.00000
      9       6.5425      2.00000
     10       6.5425      2.00000
     11       6.6490      2.00000
     12       6.8402      2.00000
     13       6.9031      2.00000
     14       7.3149      2.00000
     15       7.3149      2.00000
     16       7.3365      2.00000
     17       7.9579      2.00000
     18       8.3239      2.00000
     19       8.5726      2.00000
     20       8.5928      2.00000
     21       8.5928      2.00000
     22      10.7280     -0.05915
     23      10.7280     -0.05915
     24      12.7336     -0.00000
     25      15.9885      0.00000
     26      18.2208      0.00000
     27      18.2208      0.00000
     28      22.4398      0.00000
     29      25.1155      0.00000
     30      27.5230      0.00000

 k-point    30 :       0.4444    0.3333    0.2222
  band No.  band energies     occupation 
      1       3.4354      2.00000
      2       4.1338      2.00000
      3       4.7910      2.00000
      4       4.8807      2.00000
      5       5.9588      2.00000
      6       6.0082      2.00000
      7       6.1747      2.00000
      8       6.3469      2.00000
      9       6.5635      2.00000
     10       6.5852      2.00000
     11       6.6676      2.00000
     12       6.7000      2.00000
     13       6.9498      2.00000
     14       7.0964      2.00000
     15       7.2084      2.00000
     16       7.2148      2.00000
     17       8.1512      2.00000
     18       8.4416      2.00000
     19       8.4950      2.00000
     20       8.4981      2.00000
     21       8.7019      2.00000
     22       9.4264      2.00000
     23      11.5065     -0.00000
     24      12.3242     -0.00000
     25      15.8861     -0.00000
     26      16.7905      0.00000
     27      19.3768      0.00000
     28      20.7835      0.00000
     29      26.0193      0.00000
     30      27.0932      0.00000

 k-point    31 :       0.4444    0.4444    0.2222
  band No.  band energies     occupation 
      1       3.9317      2.00000
      2       4.3885      2.00000
      3       4.3885      2.00000
      4       4.6294      2.00000
      5       6.2177      2.00000
      6       6.3450      2.00000
      7       6.3450      2.00000
      8       6.5691      2.00000
      9       6.6162      2.00000
     10       6.6556      2.00000
     11       6.6556      2.00000
     12       6.7691      2.00000
     13       6.9117      2.00000
     14       7.0194      2.00000
     15       7.0194      2.00000
     16       7.0450      2.00000
     17       8.1524      2.00000
     18       8.3364      2.00000
     19       8.3364      2.00000
     20       8.3796      2.00000
     21       9.2502      2.00000
     22      10.1332      2.02029
     23      10.1332      2.02029
     24      11.1103     -0.00023
     25      16.6299      0.00000
     26      17.8331      0.00000
     27      17.8331      0.00000
     28      19.1686      0.00000
     29      26.9961      0.00000
     30      28.2105      0.00000

 k-point    32 :       0.3333    0.3333    0.3333
  band No.  band energies     occupation 
      1       3.1671      2.00000
      2       4.5893      2.00000
      3       4.5893      2.00000
      4       4.5893      2.00000
      5       6.1007      2.00000
      6       6.1007      2.00000
      7       6.1007      2.00000
      8       6.6399      2.00000
      9       6.7696      2.00000
     10       6.7696      2.00000
     11       6.7696      2.00000
     12       6.8073      2.00000
     13       6.8073      2.00000
     14       7.0915      2.00000
     15       7.0915      2.00000
     16       7.0915      2.00000
     17       8.2413      2.00000
     18       8.2413      2.00000
     19       8.6422      2.00000
     20       8.6422      2.00000
     21       8.6422      2.00000
     22      10.9838     -0.00480
     23      10.9838     -0.00480
     24      10.9838     -0.00480
     25      16.6041      0.00000
     26      16.6041      0.00000
     27      16.6041      0.00000
     28      20.5461      0.00000
     29      28.2785      0.00000
     30      28.2785      0.00000

 k-point    33 :       0.4444    0.3333    0.3333
  band No.  band energies     occupation 
      1       3.6775      2.00000
      2       4.1607      2.00000
      3       4.5367      2.00000
      4       4.5367      2.00000
      5       6.2416      2.00000
      6       6.2416      2.00000
      7       6.4406      2.00000
      8       6.6907      2.00000
      9       6.8082      2.00000
     10       6.8708      2.00000
     11       6.8769      2.00000
     12       6.9066      2.00000
     13       6.9637      2.00000
     14       6.9637      2.00000
     15       7.0052      2.00000
     16       7.0052      2.00000
     17       8.4674      2.00000
     18       8.5220      2.00000
     19       8.5848      2.00000
     20       8.5848      2.00000
     21       8.6071      2.00000
     22       9.4895      2.00000
     23      11.2091     -0.00001
     24      11.2091     -0.00001
     25      15.6715     -0.00000
     26      15.6715     -0.00000
     27      17.6209      0.00000
     28      18.9397      0.00000
     29      29.0246      0.00000
     30      29.0246      0.00000

 k-point    34 :       0.4444    0.4444    0.3333
  band No.  band energies     occupation 
      1       3.9392      2.00000
      2       4.2217      2.00000
      3       4.2217      2.00000
      4       4.3431      2.00000
      5       6.4287      2.00000
      6       6.5001      2.00000
      7       6.5001      2.00000
      8       6.6620      2.00000
      9       6.7433      2.00000
     10       6.8107      2.00000
     11       6.8107      2.00000
     12       6.8326      2.00000
     13       7.2929      2.00000
     14       7.2929      2.00000
     15       7.3193      2.00000
     16       7.3523      2.00000
     17       8.4039      2.00000
     18       8.5461      2.00000
     19       8.5461      2.00000
     20       8.5508      2.00000
     21       8.9425      2.00000
     22       9.8750      2.00005
     23       9.8750      2.00005
     24      10.5443      0.77899
     25      15.5836     -0.00000
     26      16.3168      0.00000
     27      16.3168      0.00000
     28      17.4407      0.00000
     29      30.0309      0.00000
     30      31.0064      0.00000

 k-point    35 :       0.4444    0.4444    0.4444
  band No.  band energies     occupation 
      1       3.9969      2.00000
      2       4.1286      2.00000
      3       4.1286      2.00000
      4       4.1286      2.00000
      5       6.5927      2.00000
      6       6.5927      2.00000
      7       6.5927      2.00000
      8       6.6709      2.00000
      9       6.6709      2.00000
     10       6.7023      2.00000
     11       6.7023      2.00000
     12       6.7023      2.00000
     13       7.9084      2.00000
     14       7.9084      2.00000
     15       7.9084      2.00000
     16       8.2965      2.00000
     17       8.5673      2.00000
     18       8.5673      2.00000
     19       8.6185      2.00000
     20       8.6185      2.00000
     21       8.6185      2.00000
     22       9.5434      2.00000
     23       9.5434      2.00000
     24       9.5434      2.00000
     25      15.5003     -0.00000
     26      15.5003     -0.00000
     27      15.5003     -0.00000
     28      16.1836      0.00000
     29      32.4126      0.00000
     30      32.4126      0.00000


--------------------------------------------------------------------------------------------------------


 soft charge-density along one line, spin component           1
         0         1         2         3         4         5         6         7         8         9
x    16.1552    0.0000    0.0000   -0.0000    0.2492    0.0000    0.0000    0.0000   -0.2693   -0.0000
x    -0.0000   -0.0000    0.0456   -0.0000   -0.0000    0.0000    0.0000    0.0000
y    16.1552    0.0000    0.0000   -0.0000    0.2492    0.0000    0.0000    0.0000   -0.2693   -0.0000
y    -0.0000   -0.0000    0.0456   -0.0000   -0.0000    0.0000    0.0000    0.0000
z    16.1552    0.0000    0.0000   -0.0000    0.2492    0.0000    0.0000    0.0000   -0.2693   -0.0000
z    -0.0000   -0.0000    0.0456   -0.0000   -0.0000    0.0000    0.0000    0.0000
 total charge-density along one line
x    43.9999    0.0000   -0.0000    0.0000   16.9693   -0.0000   -0.0000   -0.0000    2.4322    0.0000
x    -0.0000    0.0000   -0.0625    0.0000    0.0000    0.0000    0.0279    0.0000    0.0000   -0.0000
x    -0.0075    0.0000    0.0000    0.0000    0.0022    0.0000    0.0000   -0.0000   -0.0006   -0.0000
x    -0.0000    0.0000    0.0003    0.0000
y    43.9999    0.0000   -0.0000   -0.0000   16.9693    0.0000    0.0000   -0.0000    2.4322   -0.0000
y     0.0000    0.0000   -0.0625   -0.0000    0.0000   -0.0000    0.0279    0.0000   -0.0000   -0.0000
y    -0.0075    0.0000   -0.0000    0.0000    0.0022   -0.0000   -0.0000    0.0000   -0.0006    0.0000
y    -0.0000    0.0000    0.0003    0.0000
z    43.9999    0.0000    0.0000   -0.0000   16.9693    0.0000   -0.0000   -0.0000    2.4322   -0.0000
z    -0.0000    0.0000   -0.0625   -0.0000   -0.0000    0.0000    0.0279   -0.0000    0.0000    0.0000
z    -0.0075    0.0000    0.0000   -0.0000    0.0022   -0.0000   -0.0000   -0.0000   -0.0006    0.0000
z    -0.0000   -0.0000    0.0003    0.0000
 
 pseudopotential strength for first ion, spin component:           1
 -1.215   0.000  -0.000  -0.000  -0.000  -5.984  -0.000   0.000
  0.000  -1.215  -0.000   0.000  -0.000  -0.000  -5.984   0.000
 -0.000  -0.000  -1.194   0.000  -0.000   0.000   0.000  -5.999
 -0.000   0.000   0.000  -1.215   0.000   0.000  -0.000  -0.000
 -0.000  -0.000  -0.000   0.000  -1.194   0.000   0.000   0.000
 -5.984  -0.000   0.000   0.000   0.000  11.172   0.000  -0.000
 -0.000  -5.984   0.000  -0.000   0.000   0.000  11.172  -0.000
  0.000   0.000  -5.999  -0.000   0.000  -0.000  -0.000  11.182
  0.000  -0.000  -0.000  -5.984  -0.000  -0.000   0.000   0.000
  0.000   0.000   0.000  -0.000  -5.999  -0.000   0.000  -0.000
 -0.000   0.000  -0.000  -0.000  -0.000  -0.000   0.000  -0.000
 -0.000   0.000  -0.000  -0.000  -0.000  -0.000   0.000  -0.000
  0.000   0.000   0.000  -0.000   0.000  -0.000  -0.000   0.000
 -0.000  -0.000   0.000   0.000   0.000  -0.000   0.000   0.000
 -0.000  -0.000  -0.000   0.000   0.000  -0.000  -0.000   0.000
  0.000   0.000   0.000   0.000   0.000  -0.000  -0.000   0.000
  0.000  -0.000   0.000   0.000  -0.000  -0.000   0.000   0.000
 -0.000   0.000  -0.000   0.000   0.000  -0.000  -0.000   0.000
 total augmentation occupancy for first ion, spin component:           1
  1.925  -0.000  -0.000  -0.000   0.000   0.008   0.000  -0.000   0.000   0.000  -0.000   0.000  -0.000   0.000  -0.000  -0.000
  0.000   1.925   0.000  -0.000   0.000   0.000   0.008   0.000  -0.000  -0.000  -0.000   0.000   0.000   0.000  -0.000   0.000
  0.000   0.000   1.940   0.000   0.000   0.000  -0.000  -0.017  -0.000  -0.000  -0.000   0.000  -0.000  -0.000  -0.000  -0.000
  0.000  -0.000   0.000   1.925  -0.000  -0.000  -0.000   0.000   0.008   0.000   0.000   0.000   0.000  -0.000  -0.000  -0.000
 -0.000   0.000   0.000  -0.000   1.940   0.000  -0.000   0.000   0.000  -0.017  -0.000   0.000   0.000   0.000  -0.000   0.000
  0.008  -0.000  -0.000  -0.000   0.000   0.031   0.000   0.000  -0.000  -0.000   0.000   0.000   0.000  -0.000   0.000  -0.000
  0.000   0.008  -0.000  -0.000  -0.000   0.000   0.031   0.000   0.000   0.000   0.000   0.000  -0.000   0.000  -0.000   0.000
 -0.000  -0.000  -0.017  -0.000   0.000   0.000   0.000   0.029  -0.000   0.000  -0.000   0.000  -0.000   0.000  -0.000  -0.000
  0.000  -0.000   0.000   0.008  -0.000  -0.000   0.000  -0.000   0.031  -0.000  -0.000  -0.000  -0.000   0.000   0.000   0.000
  0.000   0.000   0.000   0.000  -0.017  -0.000   0.000  -0.000  -0.000   0.029  -0.000   0.000   0.000  -0.000   0.000  -0.000
  0.000  -0.000  -0.000   0.000   0.000  -0.000  -0.000   0.000  -0.000   0.000   2.266  -0.259   0.000   0.000   0.000   0.000
  0.000   0.000   0.000  -0.000  -0.000   0.000   0.000   0.000  -0.000  -0.000  -0.259   0.038   0.000   0.000   0.000   0.000
 -0.000   0.000  -0.000   0.000   0.000   0.000  -0.000  -0.000  -0.000   0.000   0.000   0.000   0.354  -0.000  -0.000  -0.026
  0.000   0.000  -0.000  -0.000   0.000  -0.000   0.000   0.000   0.000  -0.000   0.000   0.000  -0.000   0.354  -0.000   0.000
 -0.000  -0.000   0.000  -0.000   0.000   0.000  -0.000   0.000   0.000   0.000   0.000   0.000   0.000   0.000   0.354  -0.000
  0.000   0.000   0.000  -0.000  -0.000  -0.000   0.000  -0.000   0.000  -0.000   0.000  -0.000  -0.026  -0.000   0.000   0.002
 -0.000   0.000  -0.000   0.000   0.000   0.000   0.000  -0.000   0.000   0.000   0.000   0.000   0.000  -0.026   0.000   0.000
  0.000   0.000   0.000   0.000   0.000   0.000  -0.000  -0.000   0.000  -0.000   0.000  -0.000  -0.000  -0.000  -0.026   0.000


------------------------ aborting loop because EDIFF is reached ----------------------------------------


    CHARGE:  cpu time    0.0303: real time    0.0303
    FORLOC:  cpu time    0.0006: real time    0.0006
    FORNL :  cpu time    0.1221: real time    0.1221
    STRESS:  cpu time    0.1545: real time    0.1545
    FORCOR:  cpu time    0.0073: real time    0.0073
    FORHAR:  cpu time    0.0018: real time    0.0018
    MIXING:  cpu time    0.0003: real time    0.0003

  FORCE on cell =-STRESS in cart. coord.  units (eV):
  Direction    XX          YY          ZZ          XY          YZ          ZX
  --------------------------------------------------------------------------------------
  Alpha Z   304.52922   304.52922   304.52922
  Ewald   -1578.24920 -1578.24920 -1578.24920    -0.00000    -0.00000    -0.00000
  Hartree   395.08455   395.08455   395.08455    -0.00000    -0.00000    -0.00000
  E(xc)    -259.43952  -259.43952  -259.43952    -0.00000    -0.00000    -0.00000
  Local     471.66203   471.66203   471.66203     0.00000     0.00000     0.00000
  n-local   -60.73329   -70.29657   -72.24360     0.56570     2.70018     1.04647
  augment   379.22162   379.22162   379.22162    -0.00000     0.00000     0.00000
  Kinetic   375.90535   366.81092   360.41022    -3.77193    -0.44038    -1.60037
  Fock        0.00000     0.00000     0.00000     0.00000     0.00000     0.00000
  -------------------------------------------------------------------------------------
  Total      12.75971    12.75971    12.75971    -0.00000     0.00000     0.00000
  in kB     532.04485   532.04485   532.04485    -0.00000     0.00000     0.00000
  external pressure =      532.04 kB  Pullay stress =        0.00 kB


 VOLUME and BASIS-vectors are now :
 -----------------------------------------------------------------------------
  energy-cutoff  :      320.00
  volume of cell :       38.42
      direct lattice vectors                 reciprocal lattice vectors
     3.374435082  0.000000000  0.000000000     0.296345900  0.000000000  0.000000000
     0.000000000  3.374435082  0.000000000     0.000000000  0.296345900  0.000000000
     0.000000000  0.000000000  3.374435082     0.000000000  0.000000000  0.296345900

  length of vectors
     3.374435082  3.374435082  3.374435082     0.296345900  0.296345900  0.296345900


 FORCES acting on ions
    electron-ion (+dipol)            ewald-force                    non-local-force                 convergence-correction
 -----------------------------------------------------------------------------------------------
   -.580E-13 0.193E-13 0.153E-13   -.266E-13 -.238E-13 -.643E-16   0.528E-24 -.705E-24 -.125E-23   -.948E-13 0.170E-13 0.207E-13
   0.177E-12 0.257E-12 0.151E-13   0.125E-13 -.134E-14 0.221E-15   0.230E-23 -.314E-23 0.370E-23   -.826E-13 0.124E-14 0.191E-13
   0.157E-12 0.238E-13 0.253E-12   0.336E-14 0.793E-15 -.675E-15   0.515E-23 0.278E-23 0.145E-24   -.524E-13 0.208E-13 -.296E-13
   -.687E-13 0.261E-12 0.252E-12   0.166E-13 0.233E-13 -.390E-15   -.595E-24 0.444E-24 0.158E-23   -.643E-13 0.240E-13 -.270E-13
 -----------------------------------------------------------------------------------------------
   0.207E-12 0.561E-12 0.535E-12   0.591E-14 -.109E-14 -.910E-15   0.739E-23 -.630E-24 0.417E-23   -.294E-12 0.631E-13 -.168E-13
 
 
 POSITION                                       TOTAL-FORCE (eV/Angst)
 -----------------------------------------------------------------------------------
      0.00000      0.00000      0.00000         0.000000      0.000000      0.000000
      1.68722      1.68722      0.00000        -0.000000      0.000000      0.000000
      1.68722      0.00000      1.68722        -0.000000     -0.000000     -0.000000
      0.00000      1.68722      1.68722         0.000000     -0.000000      0.000000
 -----------------------------------------------------------------------------------
    total drift:                               -0.000000      0.000000      0.000000


--------------------------------------------------------------------------------------------------------



  FREE ENERGIE OF THE ION-ELECTRON SYSTEM (eV)
  ---------------------------------------------------
  free  energy   TOTEN  =       -13.64390544 eV

  energy  without entropy=      -13.64287970  energy(sigma->0) =      -13.64356353
 


--------------------------------------------------------------------------------------------------------


    POTLOK:  cpu time    0.0110: real time    0.0110


--------------------------------------------------------------------------------------------------------


 writing wavefunctions
     LOOP+:  cpu time    1.9356: real time    1.9537
    4ORBIT:  cpu time    0.0000: real time    0.0000

 total amount of memory used by VASP MPI-rank0    44314. kBytes
=======================================================================

   base      :      30000. kBytes
   nonl-proj :       2618. kBytes
   grid      :       1806. kBytes
   one-center:         62. kBytes
   wavefun   :       9828. kBytes
 
  
  
 General timing and accounting informations for this job:
 ========================================================
  
                  Total CPU time used (sec):        2.113
                            User time (sec):        2.073
                          System time (sec):        0.040
                         Elapsed time (sec):        2.120
  
                   Maximum memory used (kb):       49876.
                   Average memory used (kb):          N/A
  
                          Minor page faults:         6162
                          Major page faults:            0
                 Voluntary context switches:           28
