<?xml version="1.0" encoding="ISO-8859-1"?>
<modeling>
 <generator>
  <i name="program" type="string">vasp </i>
  <i name="version" type="string">6.2.0  </i>
  <i name="subversion" type="string">18Jan21 (build Mar 17 2021 09:06:54) complex                          serial </i>
  <i name="platform" type="string">LinuxIFC </i>
  <i name="date" type="string">2021 08 03 </i>
  <i name="time" type="string">10:15:39 </i>
 </generator>
 <incar>
  <i type="string" name="PREC">normal</i>
  <i type="int" name="ICHARG">     1</i>
  <i type="int" name="IBRION">     1</i>
  <i name="EDIFF">      0.00000100</i>
  <i type="int" name="NSW">     0</i>
  <i type="int" name="ISIF">     4</i>
  <i name="ENCUT">    320.00000000</i>
  <i type="int" name="NBANDS">    30</i>
  <i type="int" name="ISMEAR">     1</i>
  <i name="SIGMA">      0.20000000</i>
  <i type="logical" name="LCHARG"> T  </i>
  <i type="int" name="KPAR">     1</i>
  <i type="int" name="NCORE">     1</i>
  <i type="string" name="GGA">PE</i>
 </incar>
 <primitive_cell>
  <structure name="primitive_cell" >
   <crystal>
    <varray name="basis" >
     <v>       1.68721754      -1.68721754       0.00000000 </v>
     <v>       1.68721754       0.00000000       1.68721754 </v>
     <v>       0.00000000      -1.68721754       1.68721754 </v>
    </varray>
    <i name="volume">      9.60601457 </i>
    <varray name="rec_basis" >
     <v>       0.29634590      -0.29634590      -0.29634590 </v>
     <v>       0.29634590       0.29634590       0.29634590 </v>
     <v>      -0.29634590      -0.29634590       0.29634590 </v>
    </varray>
   </crystal>
   <varray name="positions" >
    <v>       0.00000000       0.00000000       0.00000000 </v>
   </varray>
  </structure>
  <varray name="primitive_index" >
   <v type="int" >        1 </v>
  </varray>
 </primitive_cell>
 <kpoints>
  <generation param="Monkhorst-Pack">
   <v type="int" name="divisions">       9        9        9 </v>
   <v name="usershift">      0.00000000       0.00000000       0.00000000 </v>
   <v name="genvec1">      0.11111111       0.00000000       0.00000000 </v>
   <v name="genvec2">      0.00000000       0.11111111       0.00000000 </v>
   <v name="genvec3">      0.00000000       0.00000000       0.11111111 </v>
   <v name="shift">      0.00000000       0.00000000       0.00000000 </v>
  </generation>
  <varray name="kpointlist" >
   <v>       0.00000000       0.00000000       0.00000000 </v>
   <v>       0.11111111       0.00000000       0.00000000 </v>
   <v>       0.22222222       0.00000000       0.00000000 </v>
   <v>       0.33333333       0.00000000       0.00000000 </v>
   <v>       0.44444444       0.00000000       0.00000000 </v>
   <v>       0.11111111       0.11111111       0.00000000 </v>
   <v>       0.22222222       0.11111111       0.00000000 </v>
   <v>       0.33333333       0.11111111       0.00000000 </v>
   <v>       0.44444444       0.11111111       0.00000000 </v>
   <v>       0.22222222       0.22222222       0.00000000 </v>
   <v>       0.33333333       0.22222222       0.00000000 </v>
   <v>       0.44444444       0.22222222       0.00000000 </v>
   <v>       0.33333333       0.33333333       0.00000000 </v>
   <v>       0.44444444       0.33333333       0.00000000 </v>
   <v>       0.44444444       0.44444444       0.00000000 </v>
   <v>       0.11111111       0.11111111       0.11111111 </v>
   <v>       0.22222222       0.11111111       0.11111111 </v>
   <v>       0.33333333       0.11111111       0.11111111 </v>
   <v>       0.44444444       0.11111111       0.11111111 </v>
   <v>       0.22222222       0.22222222       0.11111111 </v>
   <v>       0.33333333       0.22222222       0.11111111 </v>
   <v>       0.44444444       0.22222222       0.11111111 </v>
   <v>       0.33333333       0.33333333       0.11111111 </v>
   <v>       0.44444444       0.33333333       0.11111111 </v>
   <v>       0.44444444       0.44444444       0.11111111 </v>
   <v>       0.22222222       0.22222222       0.22222222 </v>
   <v>       0.33333333       0.22222222       0.22222222 </v>
   <v>       0.44444444       0.22222222       0.22222222 </v>
   <v>       0.33333333       0.33333333       0.22222222 </v>
   <v>       0.44444444       0.33333333       0.22222222 </v>
   <v>       0.44444444       0.44444444       0.22222222 </v>
   <v>       0.33333333       0.33333333       0.33333333 </v>
   <v>       0.44444444       0.33333333       0.33333333 </v>
   <v>       0.44444444       0.44444444       0.33333333 </v>
   <v>       0.44444444       0.44444444       0.44444444 </v>
  </varray>
  <varray name="weights" >
   <v>       0.00137174 </v>
   <v>       0.00823045 </v>
   <v>       0.00823045 </v>
   <v>       0.00823045 </v>
   <v>       0.00823045 </v>
   <v>       0.01646091 </v>
   <v>       0.03292181 </v>
   <v>       0.03292181 </v>
   <v>       0.03292181 </v>
   <v>       0.01646091 </v>
   <v>       0.03292181 </v>
   <v>       0.03292181 </v>
   <v>       0.01646091 </v>
   <v>       0.03292181 </v>
   <v>       0.01646091 </v>
   <v>       0.01097394 </v>
   <v>       0.03292181 </v>
   <v>       0.03292181 </v>
   <v>       0.03292181 </v>
   <v>       0.03292181 </v>
   <v>       0.06584362 </v>
   <v>       0.06584362 </v>
   <v>       0.03292181 </v>
   <v>       0.06584362 </v>
   <v>       0.03292181 </v>
   <v>       0.01097394 </v>
   <v>       0.03292181 </v>
   <v>       0.03292181 </v>
   <v>       0.03292181 </v>
   <v>       0.06584362 </v>
   <v>       0.03292181 </v>
   <v>       0.01097394 </v>
   <v>       0.03292181 </v>
   <v>       0.03292181 </v>
   <v>       0.01097394 </v>
  </varray>
 </kpoints>
 <parameters>
  <separator name="general" >
   <i type="string" name="SYSTEM">unknown system</i>
   <i type="logical" name="LCOMPAT"> F  </i>
  </separator>
  <separator name="electronic" >
   <i type="string" name="PREC">normal</i>
   <i name="ENMAX">    320.00000000</i>
   <i name="ENAUG">    586.98000000</i>
   <i name="EDIFF">      0.00000100</i>
   <i type="int" name="IALGO">    38</i>
   <i type="int" name="IWAVPR">     0</i>
   <i type="int" name="NBANDS">    30</i>
   <i type="int" name="NBANDSLOW">    -1</i>
   <i type="int" name="NBANDSHIGH">    -1</i>
   <i name="NELECT">     44.00000000</i>
   <i type="int" name="TURBO">     0</i>
   <i type="int" name="IRESTART">     0</i>
   <i type="int" name="NREBOOT">     0</i>
   <i type="int" name="NMIN">     0</i>
   <i name="EREF">      0.00000000</i>
   <separator name="electronic smearing" >
    <i type="int" name="ISMEAR">     1</i>
    <i name="SIGMA">      0.20000000</i>
    <i name="KSPACING">      0.50000000</i>
    <i type="logical" name="KGAMMA"> T  </i>
    <i type="logical" name="KBLOWUP"> T  </i>
   </separator>
   <separator name="electronic projectors" >
    <i type="logical" name="LREAL"> F  </i>
    <v name="ROPT">      0.00000000</v>
    <i type="int" name="LMAXPAW">  -100</i>
    <i type="int" name="LMAXMIX">     2</i>
    <i type="logical" name="NLSPLINE"> F  </i>
   </separator>
   <separator name="electronic startup" >
    <i type="int" name="ISTART">     1</i>
    <i type="int" name="ICHARG">     1</i>
    <i type="int" name="INIWAV">     1</i>
   </separator>
   <separator name="electronic spin" >
    <i type="int" name="ISPIN">     1</i>
    <i type="logical" name="LNONCOLLINEAR"> F  </i>
    <v name="MAGMOM">      1.00000000      1.00000000      1.00000000      1.00000000</v>
    <i name="NUPDOWN">     -1.00000000</i>
    <i type="logical" name="LSORBIT"> F  </i>
    <v name="SAXIS">      0.00000000      0.00000000      1.00000000</v>
    <i type="logical" name="LSPIRAL"> F  </i>
    <v name="QSPIRAL">      0.00000000      0.00000000      0.00000000</v>
    <i type="logical" name="LZEROZ"> F  </i>
   </separator>
   <separator name="electronic exchange-correlation" >
    <i type="logical" name="LASPH"> F  </i>
    <i type="logical" name="LMETAGGA"> F  </i>
   </separator>
   <separator name="electronic convergence" >
    <i type="int" name="NELM">    60</i>
    <i type="int" name="NELMDL">     0</i>
    <i type="int" name="NELMIN">     2</i>
    <i name="ENINI">    320.00000000</i>
    <separator name="electronic convergence detail" >
     <i type="logical" name="LDIAG"> T  </i>
     <i type="logical" name="LSUBROT"> F  </i>
     <i name="WEIMIN">      0.00000000</i>
     <i name="EBREAK">      0.00000001</i>
     <i name="DEPER">      0.30000000</i>
     <i type="int" name="NRMM">     4</i>
     <i name="TIME">      0.40000000</i>
    </separator>
   </separator>
   <separator name="electronic mixer" >
    <i name="AMIX">      0.40000000</i>
    <i name="BMIX">      1.00000000</i>
    <i name="AMIN">      0.10000000</i>
    <i name="AMIX_MAG">      1.60000000</i>
    <i name="BMIX_MAG">      1.00000000</i>
    <separator name="electronic mixer details" >
     <i type="int" name="IMIX">     4</i>
     <i type="logical" name="MIXFIRST"> F  </i>
     <i type="int" name="MAXMIX">   -45</i>
     <i name="WC">    100.00000000</i>
     <i type="int" name="INIMIX">     1</i>
     <i type="int" name="MIXPRE">     1</i>
     <i type="int" name="MREMOVE">     5</i>
    </separator>
   </separator>
   <separator name="electronic dipolcorrection" >
    <i type="logical" name="LDIPOL"> F  </i>
    <i type="logical" name="LMONO"> F  </i>
    <i type="int" name="IDIPOL">     0</i>
    <i name="EPSILON">      1.00000000</i>
    <v name="DIPOL">   -100.00000000   -100.00000000   -100.00000000</v>
    <i name="EFIELD">      0.00000000</i>
   </separator>
  </separator>
  <separator name="grids" >
   <i type="int" name="NGX">    16</i>
   <i type="int" name="NGY">    16</i>
   <i type="int" name="NGZ">    16</i>
   <i type="int" name="NGXF">    32</i>
   <i type="int" name="NGYF">    32</i>
   <i type="int" name="NGZF">    32</i>
   <i type="logical" name="ADDGRID"> F  </i>
  </separator>
  <separator name="ionic" >
   <i type="int" name="NSW">     0</i>
   <i type="int" name="IBRION">    -1</i>
   <i type="int" name="MDALGO">     0</i>
   <i type="int" name="ISIF">     4</i>
   <i name="PSTRESS">      0.00000000</i>
   <i name="EDIFFG">      0.00001000</i>
   <i type="int" name="NFREE">     0</i>
   <i name="POTIM">      0.50000000</i>
   <i name="SMASS">     -3.00000000</i>
   <i name="SCALEE">      1.00000000</i>
  </separator>
  <separator name="ionic md" >
   <i name="TEBEG">      0.00010000</i>
   <i name="TEEND">      0.00010000</i>
   <i type="int" name="NBLOCK">     1</i>
   <i type="int" name="KBLOCK">     1</i>
   <i type="int" name="NPACO">   256</i>
   <i name="APACO">     16.00000000</i>
  </separator>
  <separator name="symmetry" >
   <i type="int" name="ISYM">     2</i>
   <i name="SYMPREC">      0.00001000</i>
  </separator>
  <separator name="dos" >
   <i type="int" name="LORBIT">     0</i>
   <v name="RWIGS">     -1.00000000</v>
   <i type="int" name="NEDOS">   301</i>
   <i name="EMIN">     10.00000000</i>
   <i name="EMAX">    -10.00000000</i>
   <i name="EFERMI">      0.00000000</i>
  </separator>
  <separator name="writing" >
   <i type="int" name="NWRITE">     2</i>
   <i type="logical" name="LWAVE"> T  </i>
   <i type="logical" name="LDOWNSAMPLE"> F  </i>
   <i type="logical" name="LCHARG"> T  </i>
   <i type="logical" name="LPARD"> F  </i>
   <i type="logical" name="LVTOT"> F  </i>
   <i type="logical" name="LVHAR"> F  </i>
   <i type="logical" name="LELF"> F  </i>
   <i type="logical" name="LOPTICS"> F  </i>
   <v name="STM">      0.00000000      0.00000000      0.00000000      0.00000000      0.00000000      0.00000000      0.00000000</v>
  </separator>
  <separator name="performance" >
   <i type="int" name="NPAR">     1</i>
   <i type="int" name="NSIM">     4</i>
   <i type="int" name="NBLK">    -1</i>
   <i type="logical" name="LPLANE"> T  </i>
   <i type="logical" name="LSCALAPACK"> F  </i>
   <i type="logical" name="LSCAAWARE"> F  </i>
   <i type="logical" name="LSCALU"> F  </i>
   <i type="logical" name="LASYNC"> F  </i>
   <i type="logical" name="LORBITALREAL"> F  </i>
  </separator>
  <separator name="miscellaneous" >
   <i type="int" name="IDIOT">     3</i>
   <i type="int" name="PHON_NSTRUCT">    -1</i>
   <i type="logical" name="LMUSIC"> F  </i>
   <v name="POMASS">     63.54600000</v>
   <v name="DARWINR">      0.00000000</v>
   <v name="DARWINV">      1.00000000</v>
   <i type="logical" name="LCORR"> T  </i>
  </separator>
  <i type="logical" name="GGA_COMPAT"> T  </i>
  <i type="logical" name="LBERRY"> F  </i>
  <i type="int" name="ICORELEVEL">     0</i>
  <i type="logical" name="LDAU"> F  </i>
  <i type="int" name="I_CONSTRAINED_M">     0</i>
  <separator name="electronic exchange-correlation" >
   <i type="string" name="GGA">PE</i>
   <i type="int" name="VOSKOWN">     0</i>
   <i type="logical" name="LHFCALC"> F  </i>
   <i type="string" name="PRECFOCK"></i>
   <i type="logical" name="LSYMGRAD"> F  </i>
   <i type="logical" name="LHFONE"> F  </i>
   <i type="logical" name="LRHFCALC"> F  </i>
   <i type="logical" name="LTHOMAS"> F  </i>
   <i type="logical" name="LMODELHF"> F  </i>
   <i type="logical" name="LFOCKACE"> F  </i>
   <i name="ENCUT4O">     -1.00000000</i>
   <i type="int" name="EXXOEP">     0</i>
   <i type="int" name="FOURORBIT">     0</i>
   <i name="AEXX">      0.00000000</i>
   <i name="HFALPHA">      0.00000000</i>
   <i name="MCALPHA">      0.00000000</i>
   <i name="ALDAX">      1.00000000</i>
   <i name="AGGAX">      1.00000000</i>
   <i name="ALDAC">      1.00000000</i>
   <i name="AGGAC">      1.00000000</i>
   <i type="int" name="NKREDX">     1</i>
   <i type="int" name="NKREDY">     1</i>
   <i type="int" name="NKREDZ">     1</i>
   <i type="logical" name="SHIFTRED"> F  </i>
   <i type="logical" name="ODDONLY"> F  </i>
   <i type="logical" name="EVENONLY"> F  </i>
   <i type="int" name="LMAXFOCK">     0</i>
   <i type="int" name="NMAXFOCKAE">     0</i>
   <i type="logical" name="LFOCKAEDFT"> F  </i>
   <i name="HFSCREEN">      0.00000000</i>
   <i name="HFSCREENC">      0.00000000</i>
   <i type="int" name="NBANDSGWLOW">     0</i>
  </separator>
  <separator name="vdW DFT" >
   <i type="logical" name="LUSE_VDW"> F  </i>
   <i name="Zab_VDW">     -0.84910000</i>
   <i name="PARAM1">      0.12340000</i>
   <i name="PARAM2">      1.00000000</i>
   <i name="PARAM3">      0.00000000</i>
  </separator>
  <separator name="model GW" >
   <i type="int" name="MODEL_GW">     0</i>
   <i name="MODEL_EPS0">      5.76360874</i>
   <i name="MODEL_ALPHA">      1.00000000</i>
  </separator>
  <separator name="linear response parameters" >
   <i type="logical" name="LEPSILON"> F  </i>
   <i type="logical" name="LRPA"> F  </i>
   <i type="logical" name="LNABLA"> F  </i>
   <i type="logical" name="LVEL"> F  </i>
   <i type="int" name="KINTER">     0</i>
   <i name="CSHIFT">      0.10000000</i>
   <i name="OMEGAMAX">     -1.00000000</i>
   <i name="DEG_THRESHOLD">      0.00200000</i>
   <i name="RTIME">     -0.10000000</i>
   <i name="WPLASMAI">      0.00000000</i>
   <v name="DFIELD">      0.00000000      0.00000000      0.00000000</v>
   <v name="WPLASMA">      0.00000000      0.00000000      0.00000000      0.00000000      0.00000000      0.00000000      0.00000000      0.00000000      0.00000000</v>
  </separator>
  <separator name="orbital magnetization" >
   <i type="logical" name="NUCIND"> F  </i>
   <v name="MAGPOS">      0.00000000      0.00000000      0.00000000</v>
   <i type="logical" name="LNICSALL"> T  </i>
   <i type="logical" name="ORBITALMAG"> F  </i>
   <i type="logical" name="LMAGBLOCH"> F  </i>
   <i type="logical" name="LCHIMAG"> F  </i>
   <i type="logical" name="LGAUGE"> T  </i>
   <i type="int" name="MAGATOM">     0</i>
   <v name="MAGDIPOL">      0.00000000      0.00000000      0.00000000</v>
   <v name="AVECCONST">      0.00000000      0.00000000      0.00000000</v>
  </separator>
  <separator name="response functions" >
   <i type="logical" name="LFINITE_TEMPERATURE"> F  </i>
   <i type="logical" name="LADDER"> F  </i>
   <i type="logical" name="LRPAFORCE"> F  </i>
   <i type="logical" name="LFXC"> F  </i>
   <i type="logical" name="LHARTREE"> T  </i>
   <i type="int" name="IBSE">     0</i>
   <v type="int" name="KPOINT">    -1     0     0     0</v>
   <i type="logical" name="LTCTC"> F  </i>
   <i type="logical" name="LTCTE"> F  </i>
   <i type="logical" name="LTETE"> F  </i>
   <i type="logical" name="LTRIPLET"> F  </i>
   <i type="logical" name="LFXCEPS"> F  </i>
   <i type="logical" name="LFXHEG"> F  </i>
   <i type="int" name="NATURALO">     2</i>
   <i type="logical" name="LHOLEGF"> F  </i>
   <i type="logical" name="L2ORDER"> F  </i>
   <i type="logical" name="LDMP1"> F  </i>
   <i type="logical" name="LMP2LT"> F  </i>
   <i type="logical" name="LSMP2LT"> F  </i>
   <i type="logical" name="LGWLF"> F  </i>
   <i name="ENCUTGW">     -2.00000000</i>
   <i name="ENCUTGWSOFT">     -2.00000000</i>
   <i name="ENCUTLF">     -1.00000000</i>
   <i type="logical" name="LESF_SPLINES"> F  </i>
   <i type="int" name="LMAXMP2">    -1</i>
   <i name="SCISSOR">      0.00000000</i>
   <i type="int" name="NOMEGA">     0</i>
   <i type="int" name="NOMEGAR">     0</i>
   <i type="int" name="NBANDSGW">    -1</i>
   <i type="int" name="NBANDSO">    -1</i>
   <i type="int" name="NBANDSV">    -1</i>
   <i type="int" name="NELM">     1</i>
   <i type="int" name="NELMHF">     1</i>
   <i type="int" name="DIM">     3</i>
   <i type="int" name="IESPILON">     4</i>
   <i type="int" name="ANTIRES">     0</i>
   <i name="OMEGAMAX">    -30.00000000</i>
   <i name="OMEGAMIN">    -30.00000000</i>
   <i name="OMEGATL">   -200.00000000</i>
   <i type="int" name="OMEGAGRID">     0</i>
   <i name="CSHIFT">     -0.10000000</i>
   <i type="logical" name="LSELFENERGY"> F  </i>
   <i type="logical" name="LSPECTRAL"> F  </i>
   <i type="logical" name="LSPECTRALGW"> F  </i>
   <i type="logical" name="LSINGLES"> F  </i>
   <i type="logical" name="LFERMIGW"> F  </i>
   <i type="logical" name="ODDONLYGW"> F  </i>
   <i type="logical" name="EVENONLYGW"> F  </i>
   <i type="int" name="NKREDLFX">     1</i>
   <i type="int" name="NKREDLFY">     1</i>
   <i type="int" name="NKREDLFZ">     1</i>
   <i type="int" name="MAXMEM">  2800</i>
   <i type="int" name="TELESCOPE">     0</i>
   <i type="int" name="NTAUPAR">    -1</i>
   <i type="int" name="NOMEGAPAR">    -1</i>
   <i name="DAMP_NEWTON">      0.80000001</i>
   <i name="LAMBDA">      1.00000000</i>
  </separator>
  <separator name="External order field" >
   <i name="OFIELD_KAPPA">      0.00000000</i>
   <v name="OFIELD_K">      0.00000000      0.00000000      0.00000000</v>
   <i name="OFIELD_Q6_NEAR">      0.00000000</i>
   <i name="OFIELD_Q6_FAR">      0.00000000</i>
   <i name="OFIELD_A">      0.00000000</i>
  </separator>
 </parameters>
 <atominfo>
  <atoms>       4 </atoms>
  <types>       1 </types>
  <array name="atoms" >
   <dimension dim="1">ion</dimension>
   <field type="string">element</field>
   <field type="int">atomtype</field>
   <set>
    <rc><c>Cu</c><c>   1</c></rc>
    <rc><c>Cu</c><c>   1</c></rc>
    <rc><c>Cu</c><c>   1</c></rc>
    <rc><c>Cu</c><c>   1</c></rc>
   </set>
  </array>
  <array name="atomtypes" >
   <dimension dim="1">type</dimension>
   <field type="int">atomspertype</field>
   <field type="string">element</field>
   <field>mass</field>
   <field>valence</field>
   <field type="string">pseudopotential</field>
   <set>
    <rc><c>   4</c><c>Cu</c><c>     63.54600000</c><c>     11.00000000</c><c>  PAW_PBE Cu 22Jun2005                  </c></rc>
   </set>
  </array>
 </atominfo>
 <structure name="initialpos" >
  <crystal>
   <varray name="basis" >
    <v>       3.37443508       0.00000000       0.00000000 </v>
    <v>       0.00000000       3.37443508       0.00000000 </v>
    <v>       0.00000000       0.00000000       3.37443508 </v>
   </varray>
   <i name="volume">     38.42405830 </i>
   <varray name="rec_basis" >
    <v>       0.29634590       0.00000000       0.00000000 </v>
    <v>       0.00000000       0.29634590       0.00000000 </v>
    <v>       0.00000000       0.00000000       0.29634590 </v>
   </varray>
  </crystal>
  <varray name="positions" >
   <v>       0.00000000       0.00000000       0.00000000 </v>
   <v>       0.50000000       0.50000000       0.00000000 </v>
   <v>       0.50000000       0.00000000       0.50000000 </v>
   <v>       0.00000000       0.50000000       0.50000000 </v>
  </varray>
 </structure>
 <calculation>
  <scstep>
   <time name="dav">    0.43    0.45</time>
   <time name="total">    0.47    0.49</time>
   <energy>
    <i name="alphaZ">    304.52922231 </i>
    <i name="ewald">  -4734.74551764 </i>
    <i name="hartreedc">  -1185.24106660 </i>
    <i name="XCdc">    180.75204528 </i>
    <i name="pawpsdc">   5646.15125254 </i>
    <i name="pawaedc">  -6084.48194367 </i>
    <i name="eentropy">     -0.00102767 </i>
    <i name="bandstr">    295.61478904 </i>
    <i name="atom">   5563.77610493 </i>
    <i name="e_fr_energy">    -13.64614147 </i>
    <i name="e_wo_entrp">    -13.64511381 </i>
    <i name="e_0_energy">    -13.64579892 </i>
   </energy>
  </scstep>
  <scstep>
   <time name="dav">    0.41    0.41</time>
   <time name="total">    0.45    0.45</time>
   <energy>
    <i name="e_fr_energy">    -13.64390727 </i>
    <i name="e_wo_entrp">    -13.64287958 </i>
    <i name="e_0_energy">    -13.64356471 </i>
   </energy>
  </scstep>
  <scstep>
   <time name="dav">    0.34    0.34</time>
   <time name="total">    0.38    0.38</time>
   <energy>
    <i name="e_fr_energy">    -13.64390557 </i>
    <i name="e_wo_entrp">    -13.64287941 </i>
    <i name="e_0_energy">    -13.64356352 </i>
   </energy>
  </scstep>
  <scstep>
   <time name="dav">    0.25    0.25</time>
   <time name="total">    0.27    0.27</time>
   <energy>
    <i name="alphaZ">    304.52922231 </i>
    <i name="ewald">  -4734.74551764 </i>
    <i name="hartreedc">  -1185.23443744 </i>
    <i name="XCdc">    180.75172189 </i>
    <i name="pawpsdc">   5646.15605110 </i>
    <i name="pawaedc">  -6084.49007943 </i>
    <i name="eentropy">     -0.00102574 </i>
    <i name="bandstr">    295.61405458 </i>
    <i name="atom">   5563.77610493 </i>
    <i name="e_fr_energy">    -13.64390544 </i>
    <i name="e_wo_entrp">    -13.64287970 </i>
    <i name="e_0_energy">    -13.64356353 </i>
   </energy>
  </scstep>
  <structure>
   <crystal>
    <varray name="basis" >
     <v>       3.37443508       0.00000000       0.00000000 </v>
     <v>       0.00000000       3.37443508       0.00000000 </v>
     <v>       0.00000000       0.00000000       3.37443508 </v>
    </varray>
    <i name="volume">     38.42405830 </i>
    <varray name="rec_basis" >
     <v>       0.29634590       0.00000000       0.00000000 </v>
     <v>       0.00000000       0.29634590       0.00000000 </v>
     <v>       0.00000000       0.00000000       0.29634590 </v>
    </varray>
   </crystal>
   <varray name="positions" >
    <v>       0.00000000       0.00000000       0.00000000 </v>
    <v>       0.50000000       0.50000000       0.00000000 </v>
    <v>       0.50000000       0.00000000       0.50000000 </v>
    <v>       0.00000000       0.50000000       0.50000000 </v>
   </varray>
  </structure>
  <varray name="forces" >
   <v>       0.00000000       0.00000000       0.00000000 </v>
   <v>      -0.00000000       0.00000000       0.00000000 </v>
   <v>      -0.00000000      -0.00000000      -0.00000000 </v>
   <v>       0.00000000      -0.00000000       0.00000000 </v>
  </varray>
  <varray name="stress" >
   <v>     532.04484819      -0.00000000       0.00000000 </v>
   <v>      -0.00000000     532.04484819       0.00000000 </v>
   <v>      -0.00000000       0.00000000     532.04484819 </v>
  </varray>
  <energy>
   <i name="e_fr_energy">    -13.64390544 </i>
   <i name="e_wo_entrp">    -13.64287970 </i>
   <i name="e_0_energy">    -13.64356353 </i>
  </energy>
  <time name="totalsc">    1.94    1.95</time>
  <eigenvalues>
   <array>
    <dimension dim="1">band</dimension>
    <dimension dim="2">kpoint</dimension>
    <dimension dim="3">spin</dimension>
    <field>eigene</field>
    <field>occ</field>
    <set>
     <set comment="spin 1">
      <set comment="kpoint 1">
       <r>   -0.5997    1.0000 </r>
       <r>    4.1770    1.0000 </r>
       <r>    4.1770    1.0000 </r>
       <r>    4.1770    1.0000 </r>
       <r>    4.7847    1.0000 </r>
       <r>    4.7847    1.0000 </r>
       <r>    4.7847    1.0000 </r>
       <r>    6.7007    1.0000 </r>
       <r>    6.7007    1.0000 </r>
       <r>    6.7007    1.0000 </r>
       <r>    7.8395    1.0000 </r>
       <r>    7.8395    1.0000 </r>
       <r>    8.5950    1.0000 </r>
       <r>    8.5950    1.0000 </r>
       <r>    8.5950    1.0000 </r>
       <r>    8.8098    1.0000 </r>
       <r>    8.8098    1.0000 </r>
       <r>    8.8098    1.0000 </r>
       <r>    8.8098    1.0000 </r>
       <r>    8.8098    1.0000 </r>
       <r>    8.8098    1.0000 </r>
       <r>   11.7975   -0.0000 </r>
       <r>   11.7975   -0.0000 </r>
       <r>   11.7975   -0.0000 </r>
       <r>   19.1321    0.0000 </r>
       <r>   19.1321    0.0000 </r>
       <r>   19.1321    0.0000 </r>
       <r>   25.2290    0.0000 </r>
       <r>   25.2290    0.0000 </r>
       <r>   25.2290    0.0000 </r>
      </set>
      <set comment="kpoint 2">
       <r>   -0.4253    1.0000 </r>
       <r>    4.1853    1.0000 </r>
       <r>    4.2663    1.0000 </r>
       <r>    4.2663    1.0000 </r>
       <r>    4.8380    1.0000 </r>
       <r>    4.8424    1.0000 </r>
       <r>    4.8424    1.0000 </r>
       <r>    6.6385    1.0000 </r>
       <r>    6.7493    1.0000 </r>
       <r>    6.7493    1.0000 </r>
       <r>    7.7827    1.0000 </r>
       <r>    7.8617    1.0000 </r>
       <r>    8.4283    1.0000 </r>
       <r>    8.4283    1.0000 </r>
       <r>    8.5212    1.0000 </r>
       <r>    8.5212    1.0000 </r>
       <r>    8.5716    1.0000 </r>
       <r>    8.7239    1.0000 </r>
       <r>    8.7239    1.0000 </r>
       <r>    8.8100    1.0000 </r>
       <r>    8.8100    1.0000 </r>
       <r>   10.9370   -0.0058 </r>
       <r>   12.3260   -0.0000 </r>
       <r>   12.3260   -0.0000 </r>
       <r>   19.1730    0.0000 </r>
       <r>   19.1730    0.0000 </r>
       <r>   20.2964    0.0000 </r>
       <r>   24.2341    0.0000 </r>
       <r>   24.2341    0.0000 </r>
       <r>   24.6495    0.0000 </r>
      </set>
      <set comment="kpoint 3">
       <r>    0.0890    1.0000 </r>
       <r>    4.1513    1.0000 </r>
       <r>    4.5114    1.0000 </r>
       <r>    4.5114    1.0000 </r>
       <r>    4.9932    1.0000 </r>
       <r>    5.0167    1.0000 </r>
       <r>    5.0167    1.0000 </r>
       <r>    6.4597    1.0000 </r>
       <r>    6.8915    1.0000 </r>
       <r>    6.8915    1.0000 </r>
       <r>    7.6246    1.0000 </r>
       <r>    7.6850    1.0000 </r>
       <r>    7.6850    1.0000 </r>
       <r>    7.9254    1.0000 </r>
       <r>    8.3140    1.0000 </r>
       <r>    8.3140    1.0000 </r>
       <r>    8.4877    1.0000 </r>
       <r>    8.4877    1.0000 </r>
       <r>    8.5041    1.0000 </r>
       <r>    8.8103    1.0000 </r>
       <r>    8.8103    1.0000 </r>
       <r>    9.3013    1.0000 </r>
       <r>   13.5082   -0.0000 </r>
       <r>   13.5082   -0.0000 </r>
       <r>   19.3022    0.0000 </r>
       <r>   19.3022    0.0000 </r>
       <r>   22.3570    0.0000 </r>
       <r>   22.3570    0.0000 </r>
       <r>   22.8815    0.0000 </r>
       <r>   23.4358    0.0000 </r>
      </set>
      <set comment="kpoint 4">
       <r>    0.9117    1.0000 </r>
       <r>    3.8610    1.0000 </r>
       <r>    4.8359    1.0000 </r>
       <r>    4.8359    1.0000 </r>
       <r>    5.2347    1.0000 </r>
       <r>    5.3109    1.0000 </r>
       <r>    5.3109    1.0000 </r>
       <r>    6.1914    1.0000 </r>
       <r>    6.9323    1.0000 </r>
       <r>    6.9323    1.0000 </r>
       <r>    7.1216    1.0000 </r>
       <r>    7.1216    1.0000 </r>
       <r>    7.4064    1.0000 </r>
       <r>    7.9188    1.0000 </r>
       <r>    8.0239    1.0000 </r>
       <r>    8.0304    1.0000 </r>
       <r>    8.0304    1.0000 </r>
       <r>    8.1534    1.0000 </r>
       <r>    8.1534    1.0000 </r>
       <r>    8.4015    1.0000 </r>
       <r>    8.8107    1.0000 </r>
       <r>    8.8107    1.0000 </r>
       <r>   14.9856   -0.0000 </r>
       <r>   14.9856   -0.0000 </r>
       <r>   19.5295    0.0000 </r>
       <r>   19.5295    0.0000 </r>
       <r>   20.3736    0.0000 </r>
       <r>   20.3736    0.0000 </r>
       <r>   22.2463    0.0000 </r>
       <r>   22.2463    0.0000 </r>
      </set>
      <set comment="kpoint 5">
       <r>    1.9671    1.0000 </r>
       <r>    3.0704    1.0000 </r>
       <r>    5.0895    1.0000 </r>
       <r>    5.0895    1.0000 </r>
       <r>    5.5382    1.0000 </r>
       <r>    5.7292    1.0000 </r>
       <r>    5.7292    1.0000 </r>
       <r>    5.8708    1.0000 </r>
       <r>    6.2713    1.0000 </r>
       <r>    6.2713    1.0000 </r>
       <r>    7.2211    1.0000 </r>
       <r>    7.2710    1.0000 </r>
       <r>    7.4265    1.0000 </r>
       <r>    7.4265    1.0000 </r>
       <r>    7.7826    1.0000 </r>
       <r>    7.7826    1.0000 </r>
       <r>    7.8026    1.0000 </r>
       <r>    7.8026    1.0000 </r>
       <r>    8.1458    1.0000 </r>
       <r>    8.2769    1.0000 </r>
       <r>    8.8109    1.0000 </r>
       <r>    8.8109    1.0000 </r>
       <r>   16.6481    0.0000 </r>
       <r>   16.6481    0.0000 </r>
       <r>   18.4540    0.0000 </r>
       <r>   18.4540    0.0000 </r>
       <r>   19.7989    0.0000 </r>
       <r>   19.7989    0.0000 </r>
       <r>   21.4427    0.0000 </r>
       <r>   21.4427    0.0000 </r>
      </set>
      <set comment="kpoint 6">
       <r>   -0.2525    1.0000 </r>
       <r>    4.2778    1.0000 </r>
       <r>    4.2778    1.0000 </r>
       <r>    4.3523    1.0000 </r>
       <r>    4.8939    1.0000 </r>
       <r>    4.8939    1.0000 </r>
       <r>    4.8965    1.0000 </r>
       <r>    6.6036    1.0000 </r>
       <r>    6.7717    1.0000 </r>
       <r>    6.7883    1.0000 </r>
       <r>    7.7679    1.0000 </r>
       <r>    7.8509    1.0000 </r>
       <r>    8.1819    1.0000 </r>
       <r>    8.2751    1.0000 </r>
       <r>    8.2751    1.0000 </r>
       <r>    8.4531    1.0000 </r>
       <r>    8.5342    1.0000 </r>
       <r>    8.5342    1.0000 </r>
       <r>    8.7237    1.0000 </r>
       <r>    8.7237    1.0000 </r>
       <r>    8.7550    1.0000 </r>
       <r>   11.4668   -0.0000 </r>
       <r>   11.4668   -0.0000 </r>
       <r>   12.7749   -0.0000 </r>
       <r>   19.2034    0.0000 </r>
       <r>   20.3668    0.0000 </r>
       <r>   20.3668    0.0000 </r>
       <r>   22.4531    0.0000 </r>
       <r>   24.4740    0.0000 </r>
       <r>   24.4740    0.0000 </r>
      </set>
      <set comment="kpoint 7">
       <r>    0.2567    1.0000 </r>
       <r>    4.2532    1.0000 </r>
       <r>    4.5325    1.0000 </r>
       <r>    4.5890    1.0000 </r>
       <r>    5.0434    1.0000 </r>
       <r>    5.0585    1.0000 </r>
       <r>    5.0624    1.0000 </r>
       <r>    6.4463    1.0000 </r>
       <r>    6.8997    1.0000 </r>
       <r>    6.8997    1.0000 </r>
       <r>    7.5337    1.0000 </r>
       <r>    7.5686    1.0000 </r>
       <r>    7.6386    1.0000 </r>
       <r>    7.9065    1.0000 </r>
       <r>    7.9173    1.0000 </r>
       <r>    8.2608    1.0000 </r>
       <r>    8.3245    1.0000 </r>
       <r>    8.4706    1.0000 </r>
       <r>    8.4865    1.0000 </r>
       <r>    8.7230    1.0000 </r>
       <r>    8.7255    1.0000 </r>
       <r>    9.9348    1.0001 </r>
       <r>   12.5573   -0.0000 </r>
       <r>   13.8585   -0.0000 </r>
       <r>   19.2197    0.0000 </r>
       <r>   20.5822    0.0000 </r>
       <r>   20.5865    0.0000 </r>
       <r>   22.5787    0.0000 </r>
       <r>   22.9639    0.0000 </r>
       <r>   23.6634    0.0000 </r>
      </set>
      <set comment="kpoint 8">
       <r>    1.0705    1.0000 </r>
       <r>    3.9768    1.0000 </r>
       <r>    4.8743    1.0000 </r>
       <r>    4.9088    1.0000 </r>
       <r>    5.2762    1.0000 </r>
       <r>    5.3234    1.0000 </r>
       <r>    5.3465    1.0000 </r>
       <r>    6.1932    1.0000 </r>
       <r>    6.8054    1.0000 </r>
       <r>    6.8859    1.0000 </r>
       <r>    7.0375    1.0000 </r>
       <r>    7.1252    1.0000 </r>
       <r>    7.3673    1.0000 </r>
       <r>    7.4887    1.0000 </r>
       <r>    7.9965    1.0000 </r>
       <r>    8.0405    1.0000 </r>
       <r>    8.0433    1.0000 </r>
       <r>    8.1522    1.0000 </r>
       <r>    8.2873    1.0000 </r>
       <r>    8.7193    1.0000 </r>
       <r>    8.7218    1.0000 </r>
       <r>    8.8325    1.0000 </r>
       <r>   13.8457   -0.0000 </r>
       <r>   15.2754   -0.0000 </r>
       <r>   18.3090    0.0000 </r>
       <r>   19.9445    0.0000 </r>
       <r>   20.5948    0.0000 </r>
       <r>   20.9047    0.0000 </r>
       <r>   22.5149    0.0000 </r>
       <r>   24.2288    0.0000 </r>
      </set>
      <set comment="kpoint 9">
       <r>    2.1128    1.0000 </r>
       <r>    3.2006    1.0000 </r>
       <r>    5.1516    1.0000 </r>
       <r>    5.1662    1.0000 </r>
       <r>    5.5682    1.0000 </r>
       <r>    5.6856    1.0000 </r>
       <r>    5.7483    1.0000 </r>
       <r>    5.8864    1.0000 </r>
       <r>    6.1792    1.0000 </r>
       <r>    6.2650    1.0000 </r>
       <r>    7.0217    1.0000 </r>
       <r>    7.0260    1.0000 </r>
       <r>    7.4273    1.0000 </r>
       <r>    7.5823    1.0000 </r>
       <r>    7.7820    1.0000 </r>
       <r>    7.7892    1.0000 </r>
       <r>    7.8083    1.0000 </r>
       <r>    7.9199    1.0000 </r>
       <r>    8.2001    1.0000 </r>
       <r>    8.4037    1.0000 </r>
       <r>    8.7189    1.0000 </r>
       <r>    8.7202    1.0000 </r>
       <r>   15.2455   -0.0000 </r>
       <r>   16.7427    0.0000 </r>
       <r>   16.9018    0.0000 </r>
       <r>   18.6861    0.0000 </r>
       <r>   20.3087    0.0000 </r>
       <r>   20.8544    0.0000 </r>
       <r>   22.2395    0.0000 </r>
       <r>   23.0436    0.0000 </r>
      </set>
      <set comment="kpoint 10">
       <r>    0.7500    1.0000 </r>
       <r>    4.5372    1.0000 </r>
       <r>    4.5372    1.0000 </r>
       <r>    4.8023    1.0000 </r>
       <r>    5.1834    1.0000 </r>
       <r>    5.1951    1.0000 </r>
       <r>    5.1951    1.0000 </r>
       <r>    6.3636    1.0000 </r>
       <r>    6.9258    1.0000 </r>
       <r>    6.9732    1.0000 </r>
       <r>    7.1695    1.0000 </r>
       <r>    7.1695    1.0000 </r>
       <r>    7.2236    1.0000 </r>
       <r>    7.5948    1.0000 </r>
       <r>    7.9851    1.0000 </r>
       <r>    8.1070    1.0000 </r>
       <r>    8.2847    1.0000 </r>
       <r>    8.2847    1.0000 </r>
       <r>    8.4840    1.0000 </r>
       <r>    8.4840    1.0000 </r>
       <r>    8.5935    1.0000 </r>
       <r>   10.9277   -0.0068 </r>
       <r>   10.9277   -0.0068 </r>
       <r>   14.7809   -0.0000 </r>
       <r>   17.9763    0.0000 </r>
       <r>   19.8756    0.0000 </r>
       <r>   23.1180    0.0000 </r>
       <r>   23.1180    0.0000 </r>
       <r>   23.2154    0.0000 </r>
       <r>   23.2154    0.0000 </r>
      </set>
      <set comment="kpoint 11">
       <r>    1.5355    1.0000 </r>
       <r>    4.3014    1.0000 </r>
       <r>    4.9301    1.0000 </r>
       <r>    5.1008    1.0000 </r>
       <r>    5.3688    1.0000 </r>
       <r>    5.3997    1.0000 </r>
       <r>    5.4480    1.0000 </r>
       <r>    6.1779    1.0000 </r>
       <r>    6.5158    1.0000 </r>
       <r>    6.7389    1.0000 </r>
       <r>    6.7901    1.0000 </r>
       <r>    6.9300    1.0000 </r>
       <r>    7.1598    1.0000 </r>
       <r>    7.5084    1.0000 </r>
       <r>    7.8900    1.0000 </r>
       <r>    8.0196    1.0000 </r>
       <r>    8.1234    1.0000 </r>
       <r>    8.1502    1.0000 </r>
       <r>    8.1807    1.0000 </r>
       <r>    8.4813    1.0000 </r>
       <r>    8.5193    1.0000 </r>
       <r>    9.6291    1.0000 </r>
       <r>   12.0219   -0.0000 </r>
       <r>   16.0747    0.0000 </r>
       <r>   16.1744    0.0000 </r>
       <r>   20.1539    0.0000 </r>
       <r>   21.2302    0.0000 </r>
       <r>   22.5447    0.0000 </r>
       <r>   24.1985    0.0000 </r>
       <r>   24.2323    0.0000 </r>
      </set>
      <set comment="kpoint 12">
       <r>    2.5349    1.0000 </r>
       <r>    3.5698    1.0000 </r>
       <r>    5.2863    1.0000 </r>
       <r>    5.3803    1.0000 </r>
       <r>    5.5680    1.0000 </r>
       <r>    5.6539    1.0000 </r>
       <r>    5.8000    1.0000 </r>
       <r>    5.9263    1.0000 </r>
       <r>    5.9714    1.0000 </r>
       <r>    6.2404    1.0000 </r>
       <r>    6.6804    1.0000 </r>
       <r>    6.8116    1.0000 </r>
       <r>    7.4413    1.0000 </r>
       <r>    7.5911    1.0000 </r>
       <r>    7.7283    1.0000 </r>
       <r>    7.7810    1.0000 </r>
       <r>    7.7848    1.0000 </r>
       <r>    7.8483    1.0000 </r>
       <r>    8.4619    1.0000 </r>
       <r>    8.4813    1.0000 </r>
       <r>    8.4898    1.0000 </r>
       <r>    8.8762    1.0000 </r>
       <r>   13.2241   -0.0000 </r>
       <r>   14.5876   -0.0000 </r>
       <r>   17.6182    0.0000 </r>
       <r>   19.3494    0.0000 </r>
       <r>   20.7074    0.0000 </r>
       <r>   21.5214    0.0000 </r>
       <r>   24.9631    0.0000 </r>
       <r>   25.4484    0.0000 </r>
      </set>
      <set comment="kpoint 13">
       <r>    2.2674    1.0000 </r>
       <r>    4.7575    1.0000 </r>
       <r>    4.7575    1.0000 </r>
       <r>    5.3117    1.0000 </r>
       <r>    5.4851    1.0000 </r>
       <r>    5.6015    1.0000 </r>
       <r>    5.6015    1.0000 </r>
       <r>    6.1058    1.0000 </r>
       <r>    6.3128    1.0000 </r>
       <r>    6.3128    1.0000 </r>
       <r>    6.4918    1.0000 </r>
       <r>    6.8366    1.0000 </r>
       <r>    7.2761    1.0000 </r>
       <r>    7.4194    1.0000 </r>
       <r>    7.7240    1.0000 </r>
       <r>    7.8808    1.0000 </r>
       <r>    7.8808    1.0000 </r>
       <r>    8.1528    1.0000 </r>
       <r>    8.1528    1.0000 </r>
       <r>    8.3362    1.0000 </r>
       <r>    8.4829    1.0000 </r>
       <r>   10.5114    0.5275 </r>
       <r>   10.5114    0.5275 </r>
       <r>   14.2932   -0.0000 </r>
       <r>   17.2519    0.0000 </r>
       <r>   20.5956    0.0000 </r>
       <r>   22.2138    0.0000 </r>
       <r>   22.2138    0.0000 </r>
       <r>   23.4702    0.0000 </r>
       <r>   23.4702    0.0000 </r>
      </set>
      <set comment="kpoint 14">
       <r>    3.1808    1.0000 </r>
       <r>    4.1062    1.0000 </r>
       <r>    5.1888    1.0000 </r>
       <r>    5.3836    1.0000 </r>
       <r>    5.6876    1.0000 </r>
       <r>    5.7844    1.0000 </r>
       <r>    5.8706    1.0000 </r>
       <r>    5.9472    1.0000 </r>
       <r>    5.9652    1.0000 </r>
       <r>    6.1829    1.0000 </r>
       <r>    6.4150    1.0000 </r>
       <r>    6.6586    1.0000 </r>
       <r>    7.4418    1.0000 </r>
       <r>    7.4986    1.0000 </r>
       <r>    7.5946    1.0000 </r>
       <r>    7.6422    1.0000 </r>
       <r>    7.6555    1.0000 </r>
       <r>    7.8057    1.0000 </r>
       <r>    8.1712    1.0000 </r>
       <r>    8.2239    1.0000 </r>
       <r>    8.9025    1.0000 </r>
       <r>    9.5127    1.0000 </r>
       <r>   11.5231   -0.0000 </r>
       <r>   12.7536   -0.0000 </r>
       <r>   18.7043    0.0000 </r>
       <r>   20.3706    0.0000 </r>
       <r>   21.2782    0.0000 </r>
       <r>   22.2345    0.0000 </r>
       <r>   23.4752    0.0000 </r>
       <r>   24.5776    0.0000 </r>
      </set>
      <set comment="kpoint 15">
       <r>    3.9464    1.0000 </r>
       <r>    4.6718    1.0000 </r>
       <r>    4.6718    1.0000 </r>
       <r>    5.1090    1.0000 </r>
       <r>    5.9370    1.0000 </r>
       <r>    5.9370    1.0000 </r>
       <r>    5.9732    1.0000 </r>
       <r>    5.9929    1.0000 </r>
       <r>    6.0793    1.0000 </r>
       <r>    6.2184    1.0000 </r>
       <r>    6.2184    1.0000 </r>
       <r>    6.4918    1.0000 </r>
       <r>    7.3476    1.0000 </r>
       <r>    7.4475    1.0000 </r>
       <r>    7.4565    1.0000 </r>
       <r>    7.4565    1.0000 </r>
       <r>    7.6369    1.0000 </r>
       <r>    7.8697    1.0000 </r>
       <r>    7.8697    1.0000 </r>
       <r>    8.0055    1.0000 </r>
       <r>    9.4802    1.0000 </r>
       <r>   10.2966    1.0330 </r>
       <r>   10.2966    1.0330 </r>
       <r>   11.3350   -0.0000 </r>
       <r>   20.0757    0.0000 </r>
       <r>   21.6769    0.0000 </r>
       <r>   21.6769    0.0000 </r>
       <r>   22.0965    0.0000 </r>
       <r>   23.1938    0.0000 </r>
       <r>   23.1939    0.0000 </r>
      </set>
      <set comment="kpoint 16">
       <r>   -0.0817    1.0000 </r>
       <r>    4.3660    1.0000 </r>
       <r>    4.3660    1.0000 </r>
       <r>    4.3660    1.0000 </r>
       <r>    4.9464    1.0000 </r>
       <r>    4.9464    1.0000 </r>
       <r>    4.9464    1.0000 </r>
       <r>    6.5732    1.0000 </r>
       <r>    6.8053    1.0000 </r>
       <r>    6.8053    1.0000 </r>
       <r>    7.8013    1.0000 </r>
       <r>    7.8013    1.0000 </r>
       <r>    8.0512    1.0000 </r>
       <r>    8.0512    1.0000 </r>
       <r>    8.0512    1.0000 </r>
       <r>    8.3735    1.0000 </r>
       <r>    8.3735    1.0000 </r>
       <r>    8.3735    1.0000 </r>
       <r>    8.7359    1.0000 </r>
       <r>    8.7359    1.0000 </r>
       <r>    8.7359    1.0000 </r>
       <r>   11.8873   -0.0000 </r>
       <r>   11.8873   -0.0000 </r>
       <r>   11.8873   -0.0000 </r>
       <r>   20.4214    0.0000 </r>
       <r>   20.4214    0.0000 </r>
       <r>   20.4214    0.0000 </r>
       <r>   22.6910    0.0000 </r>
       <r>   22.6910    0.0000 </r>
       <r>   22.6910    0.0000 </r>
      </set>
      <set comment="kpoint 17">
       <r>    0.4217    1.0000 </r>
       <r>    4.3476    1.0000 </r>
       <r>    4.6089    1.0000 </r>
       <r>    4.6089    1.0000 </r>
       <r>    5.0920    1.0000 </r>
       <r>    5.1033    1.0000 </r>
       <r>    5.1033    1.0000 </r>
       <r>    6.4357    1.0000 </r>
       <r>    6.9001    1.0000 </r>
       <r>    6.9071    1.0000 </r>
       <r>    7.4353    1.0000 </r>
       <r>    7.4353    1.0000 </r>
       <r>    7.6718    1.0000 </r>
       <r>    7.6749    1.0000 </r>
       <r>    7.8965    1.0000 </r>
       <r>    8.1666    1.0000 </r>
       <r>    8.2033    1.0000 </r>
       <r>    8.2033    1.0000 </r>
       <r>    8.6674    1.0000 </r>
       <r>    8.7036    1.0000 </r>
       <r>    8.7036    1.0000 </r>
       <r>   10.3173    1.0255 </r>
       <r>   12.8562   -0.0000 </r>
       <r>   12.8562   -0.0000 </r>
       <r>   20.2594    0.0000 </r>
       <r>   20.2594    0.0000 </r>
       <r>   21.0961    0.0000 </r>
       <r>   21.0961    0.0000 </r>
       <r>   22.8478    0.0000 </r>
       <r>   23.5624    0.0000 </r>
      </set>
      <set comment="kpoint 18">
       <r>    1.2251    1.0000 </r>
       <r>    4.0809    1.0000 </r>
       <r>    4.9412    1.0000 </r>
       <r>    4.9412    1.0000 </r>
       <r>    5.3190    1.0000 </r>
       <r>    5.3539    1.0000 </r>
       <r>    5.3539    1.0000 </r>
       <r>    6.1993    1.0000 </r>
       <r>    6.7806    1.0000 </r>
       <r>    6.7806    1.0000 </r>
       <r>    7.0069    1.0000 </r>
       <r>    7.0766    1.0000 </r>
       <r>    7.1686    1.0000 </r>
       <r>    7.5862    1.0000 </r>
       <r>    7.8879    1.0000 </r>
       <r>    7.9700    1.0000 </r>
       <r>    7.9700    1.0000 </r>
       <r>    8.0394    1.0000 </r>
       <r>    8.5462    1.0000 </r>
       <r>    8.6744    1.0000 </r>
       <r>    8.6744    1.0000 </r>
       <r>    9.0562    1.0000 </r>
       <r>   14.0597   -0.0000 </r>
       <r>   14.0597   -0.0000 </r>
       <r>   18.6984    0.0000 </r>
       <r>   18.6984    0.0000 </r>
       <r>   21.2813    0.0000 </r>
       <r>   21.2813    0.0000 </r>
       <r>   24.1993    0.0000 </r>
       <r>   24.4272    0.0000 </r>
      </set>
      <set comment="kpoint 19">
       <r>    2.2517    1.0000 </r>
       <r>    3.3200    1.0000 </r>
       <r>    5.2279    1.0000 </r>
       <r>    5.2279    1.0000 </r>
       <r>    5.6021    1.0000 </r>
       <r>    5.6536    1.0000 </r>
       <r>    5.6536    1.0000 </r>
       <r>    5.9083    1.0000 </r>
       <r>    6.2353    1.0000 </r>
       <r>    6.2353    1.0000 </r>
       <r>    6.9037    1.0000 </r>
       <r>    6.9494    1.0000 </r>
       <r>    7.3088    1.0000 </r>
       <r>    7.5884    1.0000 </r>
       <r>    7.7671    1.0000 </r>
       <r>    7.7671    1.0000 </r>
       <r>    7.7836    1.0000 </r>
       <r>    8.2104    1.0000 </r>
       <r>    8.2667    1.0000 </r>
       <r>    8.3869    1.0000 </r>
       <r>    8.6618    1.0000 </r>
       <r>    8.6618    1.0000 </r>
       <r>   15.3182   -0.0000 </r>
       <r>   15.3182   -0.0000 </r>
       <r>   17.1762    0.0000 </r>
       <r>   17.1762    0.0000 </r>
       <r>   21.8788    0.0000 </r>
       <r>   21.8788    0.0000 </r>
       <r>   23.2861    0.0000 </r>
       <r>   23.2861    0.0000 </r>
      </set>
      <set comment="kpoint 20">
       <r>    0.9068    1.0000 </r>
       <r>    4.6070    1.0000 </r>
       <r>    4.6070    1.0000 </r>
       <r>    4.8163    1.0000 </r>
       <r>    5.2256    1.0000 </r>
       <r>    5.2368    1.0000 </r>
       <r>    5.2368    1.0000 </r>
       <r>    6.3658    1.0000 </r>
       <r>    6.9230    1.0000 </r>
       <r>    6.9491    1.0000 </r>
       <r>    7.1001    1.0000 </r>
       <r>    7.1001    1.0000 </r>
       <r>    7.1252    1.0000 </r>
       <r>    7.6769    1.0000 </r>
       <r>    7.9484    1.0000 </r>
       <r>    7.9894    1.0000 </r>
       <r>    8.0199    1.0000 </r>
       <r>    8.0199    1.0000 </r>
       <r>    8.6372    1.0000 </r>
       <r>    8.6372    1.0000 </r>
       <r>    8.6394    1.0000 </r>
       <r>   11.1516   -0.0000 </r>
       <r>   11.1516   -0.0000 </r>
       <r>   13.6136   -0.0000 </r>
       <r>   18.3938    0.0000 </r>
       <r>   21.1430    0.0000 </r>
       <r>   21.1764    0.0000 </r>
       <r>   21.1764    0.0000 </r>
       <r>   23.5181    0.0000 </r>
       <r>   23.5181    0.0000 </r>
      </set>
      <set comment="kpoint 21">
       <r>    1.6766    1.0000 </r>
       <r>    4.3644    1.0000 </r>
       <r>    4.9613    1.0000 </r>
       <r>    5.1002    1.0000 </r>
       <r>    5.4011    1.0000 </r>
       <r>    5.4493    1.0000 </r>
       <r>    5.4620    1.0000 </r>
       <r>    6.2020    1.0000 </r>
       <r>    6.5440    1.0000 </r>
       <r>    6.6943    1.0000 </r>
       <r>    6.7541    1.0000 </r>
       <r>    6.9227    1.0000 </r>
       <r>    7.0613    1.0000 </r>
       <r>    7.6592    1.0000 </r>
       <r>    7.7506    1.0000 </r>
       <r>    7.7892    1.0000 </r>
       <r>    7.8502    1.0000 </r>
       <r>    8.1469    1.0000 </r>
       <r>    8.4988    1.0000 </r>
       <r>    8.5608    1.0000 </r>
       <r>    8.5628    1.0000 </r>
       <r>    9.7325    1.0000 </r>
       <r>   12.1618   -0.0000 </r>
       <r>   14.5201   -0.0000 </r>
       <r>   16.7239    0.0000 </r>
       <r>   19.3611    0.0000 </r>
       <r>   21.6382    0.0000 </r>
       <r>   22.1552    0.0000 </r>
       <r>   23.9324    0.0000 </r>
       <r>   25.1255    0.0000 </r>
      </set>
      <set comment="kpoint 22">
       <r>    2.6507    1.0000 </r>
       <r>    3.6526    1.0000 </r>
       <r>    5.3052    1.0000 </r>
       <r>    5.4122    1.0000 </r>
       <r>    5.4863    1.0000 </r>
       <r>    5.6200    1.0000 </r>
       <r>    5.7071    1.0000 </r>
       <r>    5.9695    1.0000 </r>
       <r>    6.1967    1.0000 </r>
       <r>    6.3184    1.0000 </r>
       <r>    6.6645    1.0000 </r>
       <r>    6.7992    1.0000 </r>
       <r>    7.2332    1.0000 </r>
       <r>    7.4704    1.0000 </r>
       <r>    7.6424    1.0000 </r>
       <r>    7.6732    1.0000 </r>
       <r>    7.8681    1.0000 </r>
       <r>    8.2328    1.0000 </r>
       <r>    8.4187    1.0000 </r>
       <r>    8.5159    1.0000 </r>
       <r>    8.5168    1.0000 </r>
       <r>    8.8510    1.0000 </r>
       <r>   13.2835   -0.0000 </r>
       <r>   14.4250   -0.0000 </r>
       <r>   16.5187    0.0000 </r>
       <r>   17.7680    0.0000 </r>
       <r>   22.4099    0.0000 </r>
       <r>   23.3847    0.0000 </r>
       <r>   23.4172    0.0000 </r>
       <r>   24.8400    0.0000 </r>
      </set>
      <set comment="kpoint 23">
       <r>    2.3822    1.0000 </r>
       <r>    4.7364    1.0000 </r>
       <r>    4.7364    1.0000 </r>
       <r>    5.2147    1.0000 </r>
       <r>    5.5580    1.0000 </r>
       <r>    5.6644    1.0000 </r>
       <r>    5.6644    1.0000 </r>
       <r>    6.1615    1.0000 </r>
       <r>    6.3778    1.0000 </r>
       <r>    6.3778    1.0000 </r>
       <r>    6.5403    1.0000 </r>
       <r>    6.8403    1.0000 </r>
       <r>    7.0842    1.0000 </r>
       <r>    7.5902    1.0000 </r>
       <r>    7.6251    1.0000 </r>
       <r>    7.6251    1.0000 </r>
       <r>    7.6541    1.0000 </r>
       <r>    8.3810    1.0000 </r>
       <r>    8.3810    1.0000 </r>
       <r>    8.4314    1.0000 </r>
       <r>    8.4382    1.0000 </r>
       <r>   10.5638    0.3114 </r>
       <r>   10.5638    0.3114 </r>
       <r>   14.0474   -0.0000 </r>
       <r>   16.2909    0.0000 </r>
       <r>   20.2986    0.0000 </r>
       <r>   20.2986    0.0000 </r>
       <r>   22.2316    0.0000 </r>
       <r>   24.6062    0.0000 </r>
       <r>   25.5960    0.0000 </r>
      </set>
      <set comment="kpoint 24">
       <r>    3.2509    1.0000 </r>
       <r>    4.1156    1.0000 </r>
       <r>    5.0564    1.0000 </r>
       <r>    5.2139    1.0000 </r>
       <r>    5.7514    1.0000 </r>
       <r>    5.8457    1.0000 </r>
       <r>    5.8855    1.0000 </r>
       <r>    6.0547    1.0000 </r>
       <r>    6.2048    1.0000 </r>
       <r>    6.3551    1.0000 </r>
       <r>    6.4523    1.0000 </r>
       <r>    6.6727    1.0000 </r>
       <r>    7.1745    1.0000 </r>
       <r>    7.3709    1.0000 </r>
       <r>    7.4587    1.0000 </r>
       <r>    7.4886    1.0000 </r>
       <r>    7.8065    1.0000 </r>
       <r>    8.1061    1.0000 </r>
       <r>    8.3104    1.0000 </r>
       <r>    8.3308    1.0000 </r>
       <r>    8.8507    1.0000 </r>
       <r>    9.4842    1.0000 </r>
       <r>   11.5366   -0.0000 </r>
       <r>   12.7119   -0.0000 </r>
       <r>   17.3018    0.0000 </r>
       <r>   18.6773    0.0000 </r>
       <r>   21.4988    0.0000 </r>
       <r>   22.9374    0.0000 </r>
       <r>   23.1015    0.0000 </r>
       <r>   24.2506    0.0000 </r>
      </set>
      <set comment="kpoint 25">
       <r>    3.9412    1.0000 </r>
       <r>    4.5767    1.0000 </r>
       <r>    4.5767    1.0000 </r>
       <r>    4.9390    1.0000 </r>
       <r>    6.0426    1.0000 </r>
       <r>    6.1001    1.0000 </r>
       <r>    6.1001    1.0000 </r>
       <r>    6.1247    1.0000 </r>
       <r>    6.2970    1.0000 </r>
       <r>    6.2970    1.0000 </r>
       <r>    6.3131    1.0000 </r>
       <r>    6.5246    1.0000 </r>
       <r>    7.1517    1.0000 </r>
       <r>    7.2747    1.0000 </r>
       <r>    7.2747    1.0000 </r>
       <r>    7.2961    1.0000 </r>
       <r>    7.8538    1.0000 </r>
       <r>    8.0599    1.0000 </r>
       <r>    8.0599    1.0000 </r>
       <r>    8.1504    1.0000 </r>
       <r>    9.4245    1.0000 </r>
       <r>   10.2603    1.0349 </r>
       <r>   10.2603    1.0349 </r>
       <r>   11.2994   -0.0000 </r>
       <r>   18.4526    0.0000 </r>
       <r>   19.8552    0.0000 </r>
       <r>   19.8552    0.0000 </r>
       <r>   21.2764    0.0000 </r>
       <r>   24.0663    0.0000 </r>
       <r>   25.3103    0.0000 </r>
      </set>
      <set comment="kpoint 26">
       <r>    1.3650    1.0000 </r>
       <r>    4.7839    1.0000 </r>
       <r>    4.7839    1.0000 </r>
       <r>    4.7839    1.0000 </r>
       <r>    5.3689    1.0000 </r>
       <r>    5.3689    1.0000 </r>
       <r>    5.3689    1.0000 </r>
       <r>    6.3490    1.0000 </r>
       <r>    6.8801    1.0000 </r>
       <r>    6.8801    1.0000 </r>
       <r>    6.8801    1.0000 </r>
       <r>    6.9228    1.0000 </r>
       <r>    6.9228    1.0000 </r>
       <r>    7.7434    1.0000 </r>
       <r>    7.7434    1.0000 </r>
       <r>    7.7434    1.0000 </r>
       <r>    7.8720    1.0000 </r>
       <r>    7.8720    1.0000 </r>
       <r>    8.6820    1.0000 </r>
       <r>    8.6820    1.0000 </r>
       <r>    8.6820    1.0000 </r>
       <r>   11.7349   -0.0000 </r>
       <r>   11.7349   -0.0000 </r>
       <r>   11.7349   -0.0000 </r>
       <r>   19.0838    0.0000 </r>
       <r>   19.0838    0.0000 </r>
       <r>   19.0838    0.0000 </r>
       <r>   23.8706    0.0000 </r>
       <r>   23.8706    0.0000 </r>
       <r>   23.8706    0.0000 </r>
      </set>
      <set comment="kpoint 27">
       <r>    2.0839    1.0000 </r>
       <r>    4.5145    1.0000 </r>
       <r>    4.9894    1.0000 </r>
       <r>    4.9894    1.0000 </r>
       <r>    5.5664    1.0000 </r>
       <r>    5.5664    1.0000 </r>
       <r>    5.6106    1.0000 </r>
       <r>    6.2674    1.0000 </r>
       <r>    6.6022    1.0000 </r>
       <r>    6.6022    1.0000 </r>
       <r>    6.6485    1.0000 </r>
       <r>    6.8941    1.0000 </r>
       <r>    6.9512    1.0000 </r>
       <r>    7.4746    1.0000 </r>
       <r>    7.5654    1.0000 </r>
       <r>    7.5654    1.0000 </r>
       <r>    7.8916    1.0000 </r>
       <r>    8.1085    1.0000 </r>
       <r>    8.6165    1.0000 </r>
       <r>    8.6165    1.0000 </r>
       <r>    8.6475    1.0000 </r>
       <r>   10.1062    1.0066 </r>
       <r>   12.5021   -0.0000 </r>
       <r>   12.5021   -0.0000 </r>
       <r>   17.3323    0.0000 </r>
       <r>   17.3323    0.0000 </r>
       <r>   20.0315    0.0000 </r>
       <r>   24.3497    0.0000 </r>
       <r>   24.4602    0.0000 </r>
       <r>   24.4602    0.0000 </r>
      </set>
      <set comment="kpoint 28">
       <r>    2.9746    1.0000 </r>
       <r>    3.8674    1.0000 </r>
       <r>    5.1447    1.0000 </r>
       <r>    5.1447    1.0000 </r>
       <r>    5.6895    1.0000 </r>
       <r>    5.6895    1.0000 </r>
       <r>    5.8813    1.0000 </r>
       <r>    6.1085    1.0000 </r>
       <r>    6.4604    1.0000 </r>
       <r>    6.4604    1.0000 </r>
       <r>    6.6161    1.0000 </r>
       <r>    6.7589    1.0000 </r>
       <r>    7.0552    1.0000 </r>
       <r>    7.2348    1.0000 </r>
       <r>    7.4423    1.0000 </r>
       <r>    7.4423    1.0000 </r>
       <r>    8.2139    1.0000 </r>
       <r>    8.3388    1.0000 </r>
       <r>    8.5277    1.0000 </r>
       <r>    8.5454    1.0000 </r>
       <r>    8.5454    1.0000 </r>
       <r>    8.9332    1.0000 </r>
       <r>   13.2019   -0.0000 </r>
       <r>   13.2019   -0.0000 </r>
       <r>   16.1454    0.0000 </r>
       <r>   16.1454    0.0000 </r>
       <r>   21.2367    0.0000 </r>
       <r>   22.6786    0.0000 </r>
       <r>   25.2304    0.0000 </r>
       <r>   25.2304    0.0000 </r>
      </set>
      <set comment="kpoint 29">
       <r>    2.7041    1.0000 </r>
       <r>    4.6708    1.0000 </r>
       <r>    4.6708    1.0000 </r>
       <r>    4.9518    1.0000 </r>
       <r>    5.7786    1.0000 </r>
       <r>    5.8589    1.0000 </r>
       <r>    5.8589    1.0000 </r>
       <r>    6.3412    1.0000 </r>
       <r>    6.5425    1.0000 </r>
       <r>    6.5425    1.0000 </r>
       <r>    6.6490    1.0000 </r>
       <r>    6.8402    1.0000 </r>
       <r>    6.9031    1.0000 </r>
       <r>    7.3149    1.0000 </r>
       <r>    7.3149    1.0000 </r>
       <r>    7.3365    1.0000 </r>
       <r>    7.9579    1.0000 </r>
       <r>    8.3239    1.0000 </r>
       <r>    8.5726    1.0000 </r>
       <r>    8.5928    1.0000 </r>
       <r>    8.5928    1.0000 </r>
       <r>   10.7280   -0.0296 </r>
       <r>   10.7280   -0.0296 </r>
       <r>   12.7336   -0.0000 </r>
       <r>   15.9885    0.0000 </r>
       <r>   18.2208    0.0000 </r>
       <r>   18.2208    0.0000 </r>
       <r>   22.4398    0.0000 </r>
       <r>   25.1155    0.0000 </r>
       <r>   27.5230    0.0000 </r>
      </set>
      <set comment="kpoint 30">
       <r>    3.4354    1.0000 </r>
       <r>    4.1338    1.0000 </r>
       <r>    4.7910    1.0000 </r>
       <r>    4.8807    1.0000 </r>
       <r>    5.9588    1.0000 </r>
       <r>    6.0082    1.0000 </r>
       <r>    6.1747    1.0000 </r>
       <r>    6.3469    1.0000 </r>
       <r>    6.5635    1.0000 </r>
       <r>    6.5852    1.0000 </r>
       <r>    6.6676    1.0000 </r>
       <r>    6.7000    1.0000 </r>
       <r>    6.9498    1.0000 </r>
       <r>    7.0964    1.0000 </r>
       <r>    7.2084    1.0000 </r>
       <r>    7.2148    1.0000 </r>
       <r>    8.1512    1.0000 </r>
       <r>    8.4416    1.0000 </r>
       <r>    8.4950    1.0000 </r>
       <r>    8.4981    1.0000 </r>
       <r>    8.7019    1.0000 </r>
       <r>    9.4264    1.0000 </r>
       <r>   11.5065   -0.0000 </r>
       <r>   12.3242   -0.0000 </r>
       <r>   15.8861   -0.0000 </r>
       <r>   16.7905    0.0000 </r>
       <r>   19.3768    0.0000 </r>
       <r>   20.7835    0.0000 </r>
       <r>   26.0193    0.0000 </r>
       <r>   27.0932    0.0000 </r>
      </set>
      <set comment="kpoint 31">
       <r>    3.9317    1.0000 </r>
       <r>    4.3885    1.0000 </r>
       <r>    4.3885    1.0000 </r>
       <r>    4.6294    1.0000 </r>
       <r>    6.2177    1.0000 </r>
       <r>    6.3450    1.0000 </r>
       <r>    6.3450    1.0000 </r>
       <r>    6.5691    1.0000 </r>
       <r>    6.6162    1.0000 </r>
       <r>    6.6556    1.0000 </r>
       <r>    6.6556    1.0000 </r>
       <r>    6.7691    1.0000 </r>
       <r>    6.9117    1.0000 </r>
       <r>    7.0194    1.0000 </r>
       <r>    7.0194    1.0000 </r>
       <r>    7.0450    1.0000 </r>
       <r>    8.1524    1.0000 </r>
       <r>    8.3364    1.0000 </r>
       <r>    8.3364    1.0000 </r>
       <r>    8.3796    1.0000 </r>
       <r>    9.2502    1.0000 </r>
       <r>   10.1332    1.0101 </r>
       <r>   10.1332    1.0101 </r>
       <r>   11.1103   -0.0001 </r>
       <r>   16.6299    0.0000 </r>
       <r>   17.8331    0.0000 </r>
       <r>   17.8331    0.0000 </r>
       <r>   19.1686    0.0000 </r>
       <r>   26.9961    0.0000 </r>
       <r>   28.2105    0.0000 </r>
      </set>
      <set comment="kpoint 32">
       <r>    3.1671    1.0000 </r>
       <r>    4.5893    1.0000 </r>
       <r>    4.5893    1.0000 </r>
       <r>    4.5893    1.0000 </r>
       <r>    6.1007    1.0000 </r>
       <r>    6.1007    1.0000 </r>
       <r>    6.1007    1.0000 </r>
       <r>    6.6399    1.0000 </r>
       <r>    6.7696    1.0000 </r>
       <r>    6.7696    1.0000 </r>
       <r>    6.7696    1.0000 </r>
       <r>    6.8073    1.0000 </r>
       <r>    6.8073    1.0000 </r>
       <r>    7.0915    1.0000 </r>
       <r>    7.0915    1.0000 </r>
       <r>    7.0915    1.0000 </r>
       <r>    8.2413    1.0000 </r>
       <r>    8.2413    1.0000 </r>
       <r>    8.6422    1.0000 </r>
       <r>    8.6422    1.0000 </r>
       <r>    8.6422    1.0000 </r>
       <r>   10.9838   -0.0024 </r>
       <r>   10.9838   -0.0024 </r>
       <r>   10.9838   -0.0024 </r>
       <r>   16.6041    0.0000 </r>
       <r>   16.6041    0.0000 </r>
       <r>   16.6041    0.0000 </r>
       <r>   20.5461    0.0000 </r>
       <r>   28.2785    0.0000 </r>
       <r>   28.2785    0.0000 </r>
      </set>
      <set comment="kpoint 33">
       <r>    3.6775    1.0000 </r>
       <r>    4.1607    1.0000 </r>
       <r>    4.5367    1.0000 </r>
       <r>    4.5367    1.0000 </r>
       <r>    6.2416    1.0000 </r>
       <r>    6.2416    1.0000 </r>
       <r>    6.4406    1.0000 </r>
       <r>    6.6907    1.0000 </r>
       <r>    6.8082    1.0000 </r>
       <r>    6.8708    1.0000 </r>
       <r>    6.8769    1.0000 </r>
       <r>    6.9066    1.0000 </r>
       <r>    6.9637    1.0000 </r>
       <r>    6.9637    1.0000 </r>
       <r>    7.0052    1.0000 </r>
       <r>    7.0052    1.0000 </r>
       <r>    8.4674    1.0000 </r>
       <r>    8.5220    1.0000 </r>
       <r>    8.5848    1.0000 </r>
       <r>    8.5848    1.0000 </r>
       <r>    8.6071    1.0000 </r>
       <r>    9.4895    1.0000 </r>
       <r>   11.2091   -0.0000 </r>
       <r>   11.2091   -0.0000 </r>
       <r>   15.6715   -0.0000 </r>
       <r>   15.6715   -0.0000 </r>
       <r>   17.6209    0.0000 </r>
       <r>   18.9397    0.0000 </r>
       <r>   29.0246    0.0000 </r>
       <r>   29.0246    0.0000 </r>
      </set>
      <set comment="kpoint 34">
       <r>    3.9392    1.0000 </r>
       <r>    4.2217    1.0000 </r>
       <r>    4.2217    1.0000 </r>
       <r>    4.3431    1.0000 </r>
       <r>    6.4287    1.0000 </r>
       <r>    6.5001    1.0000 </r>
       <r>    6.5001    1.0000 </r>
       <r>    6.6620    1.0000 </r>
       <r>    6.7433    1.0000 </r>
       <r>    6.8107    1.0000 </r>
       <r>    6.8107    1.0000 </r>
       <r>    6.8326    1.0000 </r>
       <r>    7.2929    1.0000 </r>
       <r>    7.2929    1.0000 </r>
       <r>    7.3193    1.0000 </r>
       <r>    7.3523    1.0000 </r>
       <r>    8.4039    1.0000 </r>
       <r>    8.5461    1.0000 </r>
       <r>    8.5461    1.0000 </r>
       <r>    8.5508    1.0000 </r>
       <r>    8.9425    1.0000 </r>
       <r>    9.8750    1.0000 </r>
       <r>    9.8750    1.0000 </r>
       <r>   10.5443    0.3895 </r>
       <r>   15.5836   -0.0000 </r>
       <r>   16.3168    0.0000 </r>
       <r>   16.3168    0.0000 </r>
       <r>   17.4407    0.0000 </r>
       <r>   30.0309    0.0000 </r>
       <r>   31.0064    0.0000 </r>
      </set>
      <set comment="kpoint 35">
       <r>    3.9969    1.0000 </r>
       <r>    4.1286    1.0000 </r>
       <r>    4.1286    1.0000 </r>
       <r>    4.1286    1.0000 </r>
       <r>    6.5927    1.0000 </r>
       <r>    6.5927    1.0000 </r>
       <r>    6.5927    1.0000 </r>
       <r>    6.6709    1.0000 </r>
       <r>    6.6709    1.0000 </r>
       <r>    6.7023    1.0000 </r>
       <r>    6.7023    1.0000 </r>
       <r>    6.7023    1.0000 </r>
       <r>    7.9084    1.0000 </r>
       <r>    7.9084    1.0000 </r>
       <r>    7.9084    1.0000 </r>
       <r>    8.2965    1.0000 </r>
       <r>    8.5673    1.0000 </r>
       <r>    8.5673    1.0000 </r>
       <r>    8.6185    1.0000 </r>
       <r>    8.6185    1.0000 </r>
       <r>    8.6185    1.0000 </r>
       <r>    9.5434    1.0000 </r>
       <r>    9.5434    1.0000 </r>
       <r>    9.5434    1.0000 </r>
       <r>   15.5003   -0.0000 </r>
       <r>   15.5003   -0.0000 </r>
       <r>   15.5003   -0.0000 </r>
       <r>   16.1836    0.0000 </r>
       <r>   32.4126    0.0000 </r>
       <r>   32.4126    0.0000 </r>
      </set>
     </set>
    </set>
   </array>
  </eigenvalues>
  <separator name="orbital magnetization" >
   <v name="MAGDIPOLOUT">      0.00000000      0.00000000      0.00000000</v>
  </separator>
  <dos>
   <i name="efermi">     10.51793111 </i>
   <total>
    <array>
     <dimension dim="1">gridpoints</dimension>
     <dimension dim="2">spin</dimension>
     <field>energy</field>
     <field>total</field>
     <field>integrated</field>
     <set>
      <set comment="spin 1">
       <r>    -2.5997     0.0000     0.0000 </r>
       <r>    -2.4763     0.0000     0.0000 </r>
       <r>    -2.3529     0.0000     0.0000 </r>
       <r>    -2.2295    -0.0000    -0.0000 </r>
       <r>    -2.1062    -0.0000    -0.0000 </r>
       <r>    -1.9828    -0.0000    -0.0000 </r>
       <r>    -1.8594    -0.0000    -0.0000 </r>
       <r>    -1.7361    -0.0000    -0.0000 </r>
       <r>    -1.6127    -0.0000    -0.0000 </r>
       <r>    -1.4893    -0.0000    -0.0000 </r>
       <r>    -1.3659    -0.0000    -0.0000 </r>
       <r>    -1.2426    -0.0000    -0.0000 </r>
       <r>    -1.1192    -0.0000    -0.0000 </r>
       <r>    -0.9958    -0.0002    -0.0000 </r>
       <r>    -0.8724    -0.0010    -0.0001 </r>
       <r>    -0.7491    -0.0015    -0.0003 </r>
       <r>    -0.6257     0.0048     0.0003 </r>
       <r>    -0.5023     0.0333     0.0044 </r>
       <r>    -0.3789     0.0921     0.0157 </r>
       <r>    -0.2556     0.1550     0.0348 </r>
       <r>    -0.1322     0.1655     0.0553 </r>
       <r>    -0.0088     0.1223     0.0703 </r>
       <r>     0.1146     0.1245     0.0857 </r>
       <r>     0.2379     0.2570     0.1174 </r>
       <r>     0.3613     0.3925     0.1658 </r>
       <r>     0.4847     0.3315     0.2067 </r>
       <r>     0.6081     0.1330     0.2231 </r>
       <r>     0.7314     0.1036     0.2359 </r>
       <r>     0.8548     0.2930     0.2721 </r>
       <r>     0.9782     0.4515     0.3278 </r>
       <r>     1.1016     0.4630     0.3849 </r>
       <r>     1.2249     0.4128     0.4358 </r>
       <r>     1.3483     0.2955     0.4723 </r>
       <r>     1.4717     0.2567     0.5040 </r>
       <r>     1.5951     0.4982     0.5654 </r>
       <r>     1.7184     0.6433     0.6448 </r>
       <r>     1.8418     0.3330     0.6859 </r>
       <r>     1.9652     0.1546     0.7049 </r>
       <r>     2.0885     0.4705     0.7630 </r>
       <r>     2.2119     0.7333     0.8535 </r>
       <r>     2.3353     0.6652     0.9355 </r>
       <r>     2.4587     0.5291     1.0008 </r>
       <r>     2.5820     0.6854     1.0854 </r>
       <r>     2.7054     0.8870     1.1948 </r>
       <r>     2.8288     0.5438     1.2619 </r>
       <r>     2.9522     0.2208     1.2891 </r>
       <r>     3.0755     0.4330     1.3426 </r>
       <r>     3.1989     1.0307     1.4697 </r>
       <r>     3.3223     1.3606     1.6376 </r>
       <r>     3.4457     1.0871     1.7717 </r>
       <r>     3.5690     0.9382     1.8874 </r>
       <r>     3.6924     0.9724     2.0074 </r>
       <r>     3.8158     0.9039     2.1189 </r>
       <r>     3.9392     1.4033     2.2921 </r>
       <r>     4.0625     2.4061     2.5889 </r>
       <r>     4.1859     3.2867     2.9944 </r>
       <r>     4.3093     3.5421     3.4314 </r>
       <r>     4.4327     3.4096     3.8521 </r>
       <r>     4.5560     3.9533     4.3398 </r>
       <r>     4.6794     4.5918     4.9063 </r>
       <r>     4.8028     4.5435     5.4669 </r>
       <r>     4.9262     5.3331     6.1249 </r>
       <r>     5.0495     6.4485     6.9204 </r>
       <r>     5.1729     7.0821     7.7942 </r>
       <r>     5.2963     7.3974     8.7068 </r>
       <r>     5.4197     7.1640     9.5907 </r>
       <r>     5.5430     6.4234    10.3832 </r>
       <r>     5.6664     6.2962    11.1599 </r>
       <r>     5.7898     6.3083    11.9382 </r>
       <r>     5.9132     6.2623    12.7108 </r>
       <r>     6.0365     6.4737    13.5095 </r>
       <r>     6.1599     7.6762    14.4566 </r>
       <r>     6.2833     9.4790    15.6260 </r>
       <r>     6.4066     9.2237    16.7640 </r>
       <r>     6.5300     8.8937    17.8612 </r>
       <r>     6.6534    10.6743    19.1782 </r>
       <r>     6.7768    12.4233    20.7109 </r>
       <r>     6.9001    12.8050    22.2907 </r>
       <r>     7.0235    11.6022    23.7221 </r>
       <r>     7.1469     9.3154    24.8714 </r>
       <r>     7.2703     7.8710    25.8425 </r>
       <r>     7.3936     7.8593    26.8121 </r>
       <r>     7.5170     8.6885    27.8840 </r>
       <r>     7.6404     9.5720    29.0650 </r>
       <r>     7.7638    10.4859    30.3586 </r>
       <r>     7.8871    10.6204    31.6689 </r>
       <r>     8.0105     9.3548    32.8231 </r>
       <r>     8.1339     8.9469    33.9269 </r>
       <r>     8.2573     9.5147    35.1008 </r>
       <r>     8.3806    10.5908    36.4074 </r>
       <r>     8.5040    13.7475    38.1035 </r>
       <r>     8.6274    15.0160    39.9561 </r>
       <r>     8.7508    11.1420    41.3307 </r>
       <r>     8.8741     5.8757    42.0556 </r>
       <r>     8.9975     2.2961    42.3389 </r>
       <r>     9.1209     0.5242    42.4036 </r>
       <r>     9.2443     0.1816    42.4260 </r>
       <r>     9.3676     0.9259    42.5402 </r>
       <r>     9.4910     2.0562    42.7939 </r>
       <r>     9.6144     1.9864    43.0390 </r>
       <r>     9.7378     1.1735    43.1838 </r>
       <r>     9.8611     0.9314    43.2987 </r>
       <r>     9.9845     0.8716    43.4062 </r>
       <r>    10.1079     0.9413    43.5223 </r>
       <r>    10.2312     1.2910    43.6816 </r>
       <r>    10.3546     1.2443    43.8351 </r>
       <r>    10.4780     0.9915    43.9575 </r>
       <r>    10.6014     1.1196    44.0956 </r>
       <r>    10.7247     0.9851    44.2171 </r>
       <r>    10.8481     0.6330    44.2952 </r>
       <r>    10.9715     0.6358    44.3737 </r>
       <r>    11.0949     1.0418    44.5022 </r>
       <r>    11.2182     1.4051    44.6755 </r>
       <r>    11.3416     1.2284    44.8271 </r>
       <r>    11.4650     1.3213    44.9901 </r>
       <r>    11.5884     1.5475    45.1810 </r>
       <r>    11.7117     0.9131    45.2937 </r>
       <r>    11.8351     0.4221    45.3458 </r>
       <r>    11.9585     0.4303    45.3988 </r>
       <r>    12.0819     0.5702    45.4692 </r>
       <r>    12.2052     0.7809    45.5655 </r>
       <r>    12.3286     0.9134    45.6782 </r>
       <r>    12.4520     0.9170    45.7914 </r>
       <r>    12.5754     0.9695    45.9110 </r>
       <r>    12.6987     1.2872    46.0698 </r>
       <r>    12.8221     1.5098    46.2561 </r>
       <r>    12.9455     0.8878    46.3656 </r>
       <r>    13.0689     0.2832    46.4005 </r>
       <r>    13.1922     0.7587    46.4941 </r>
       <r>    13.3156     1.2069    46.6431 </r>
       <r>    13.4390     0.6788    46.7268 </r>
       <r>    13.5624     0.2858    46.7621 </r>
       <r>    13.6857     0.3089    46.8002 </r>
       <r>    13.8091     0.4266    46.8528 </r>
       <r>    13.9325     0.6841    46.9372 </r>
       <r>    14.0559     0.8824    47.0461 </r>
       <r>    14.1792     0.6650    47.1281 </r>
       <r>    14.3026     0.3617    47.1727 </r>
       <r>    14.4260     0.7348    47.2634 </r>
       <r>    14.5493     1.1393    47.4039 </r>
       <r>    14.6727     0.7777    47.4999 </r>
       <r>    14.7961     0.2565    47.5315 </r>
       <r>    14.9195     0.1053    47.5445 </r>
       <r>    15.0428     0.0934    47.5561 </r>
       <r>    15.1662     0.3016    47.5933 </r>
       <r>    15.2896     0.8608    47.6995 </r>
       <r>    15.4130     0.9727    47.8195 </r>
       <r>    15.5363     0.7406    47.9108 </r>
       <r>    15.6597     0.7981    48.0093 </r>
       <r>    15.7831     0.7292    48.0993 </r>
       <r>    15.9065     0.6981    48.1854 </r>
       <r>    16.0298     0.9377    48.3011 </r>
       <r>    16.1532     1.2935    48.4607 </r>
       <r>    16.2766     1.3912    48.6323 </r>
       <r>    16.4000     1.0214    48.7583 </r>
       <r>    16.5233     0.8902    48.8681 </r>
       <r>    16.6467     1.4133    49.0425 </r>
       <r>    16.7701     1.7930    49.2637 </r>
       <r>    16.8935     1.2569    49.4188 </r>
       <r>    17.0168     0.4093    49.4693 </r>
       <r>    17.1402     0.4289    49.5222 </r>
       <r>    17.2636     1.2128    49.6718 </r>
       <r>    17.3870     1.4729    49.8535 </r>
       <r>    17.5103     0.9010    49.9647 </r>
       <r>    17.6337     0.6849    50.0492 </r>
       <r>    17.7571     1.0431    50.1779 </r>
       <r>    17.8805     1.0950    50.3130 </r>
       <r>    18.0038     0.5357    50.3791 </r>
       <r>    18.1272     0.2635    50.4116 </r>
       <r>    18.2506     0.6526    50.4921 </r>
       <r>    18.3739     0.9458    50.6088 </r>
       <r>    18.4973     0.8399    50.7124 </r>
       <r>    18.6207     1.0882    50.8467 </r>
       <r>    18.7441     1.5576    51.0389 </r>
       <r>    18.8674     0.9839    51.1602 </r>
       <r>    18.9908     0.3884    51.2082 </r>
       <r>    19.1142     0.6658    51.2903 </r>
       <r>    19.2376     1.3161    51.4527 </r>
       <r>    19.3609     1.7746    51.6716 </r>
       <r>    19.4843     1.3324    51.8360 </r>
       <r>    19.6077     0.3662    51.8812 </r>
       <r>    19.7311     0.1578    51.9007 </r>
       <r>    19.8544     0.7337    51.9912 </r>
       <r>    19.9778     1.0450    52.1201 </r>
       <r>    20.1012     0.8888    52.2298 </r>
       <r>    20.2246     1.2977    52.3899 </r>
       <r>    20.3479     2.0574    52.6437 </r>
       <r>    20.4713     1.8353    52.8701 </r>
       <r>    20.5947     1.3537    53.0371 </r>
       <r>    20.7181     1.3024    53.1978 </r>
       <r>    20.8414     1.1646    53.3415 </r>
       <r>    20.9648     0.8195    53.4426 </r>
       <r>    21.0882     1.0645    53.5739 </r>
       <r>    21.2116     2.1061    53.8338 </r>
       <r>    21.3349     2.2105    54.1065 </r>
       <r>    21.4583     1.4161    54.2812 </r>
       <r>    21.5817     1.2272    54.4326 </r>
       <r>    21.7051     1.1133    54.5700 </r>
       <r>    21.8284     0.7180    54.6585 </r>
       <r>    21.9518     0.4757    54.7172 </r>
       <r>    22.0752     0.6196    54.7937 </r>
       <r>    22.1986     1.4273    54.9698 </r>
       <r>    22.3219     1.8650    55.1999 </r>
       <r>    22.4453     1.7041    55.4101 </r>
       <r>    22.5687     1.5303    55.5989 </r>
       <r>    22.6920     1.1147    55.7364 </r>
       <r>    22.8154     0.8083    55.8361 </r>
       <r>    22.9388     1.1053    55.9725 </r>
       <r>    23.0622     1.5634    56.1654 </r>
       <r>    23.1855     1.6784    56.3725 </r>
       <r>    23.3089     1.7529    56.5887 </r>
       <r>    23.4323     2.1897    56.8589 </r>
       <r>    23.5557     2.1306    57.1217 </r>
       <r>    23.6790     1.1087    57.2585 </r>
       <r>    23.8024     0.4473    57.3137 </r>
       <r>    23.9258     0.6322    57.3917 </r>
       <r>    24.0492     0.8470    57.4962 </r>
       <r>    24.1725     1.3280    57.6601 </r>
       <r>    24.2959     1.9560    57.9014 </r>
       <r>    24.4193     1.8419    58.1286 </r>
       <r>    24.5427     1.4825    58.3115 </r>
       <r>    24.6660     0.9448    58.4281 </r>
       <r>    24.7894     0.5587    58.4970 </r>
       <r>    24.9128     0.6167    58.5731 </r>
       <r>    25.0362     0.7919    58.6708 </r>
       <r>    25.1595     1.1850    58.8170 </r>
       <r>    25.2829     1.2770    58.9745 </r>
       <r>    25.4063     0.8112    59.0746 </r>
       <r>    25.5297     0.4702    59.1326 </r>
       <r>    25.6530     0.3217    59.1723 </r>
       <r>    25.7764     0.1080    59.1857 </r>
       <r>    25.8998     0.1211    59.2006 </r>
       <r>    26.0232     0.4513    59.2563 </r>
       <r>    26.1465     0.4449    59.3112 </r>
       <r>    26.2699     0.1063    59.3243 </r>
       <r>    26.3933    -0.0251    59.3212 </r>
       <r>    26.5167    -0.0125    59.3196 </r>
       <r>    26.6400    -0.0115    59.3182 </r>
       <r>    26.7634    -0.0295    59.3146 </r>
       <r>    26.8868     0.0670    59.3228 </r>
       <r>    27.0101     0.4639    59.3801 </r>
       <r>    27.1335     0.7265    59.4697 </r>
       <r>    27.2569     0.3791    59.5165 </r>
       <r>    27.3803     0.0623    59.5242 </r>
       <r>    27.5036     0.1743    59.5457 </r>
       <r>    27.6270     0.2395    59.5752 </r>
       <r>    27.7504     0.0796    59.5850 </r>
       <r>    27.8738    -0.0208    59.5825 </r>
       <r>    27.9971    -0.0223    59.5797 </r>
       <r>    28.1205     0.1157    59.5940 </r>
       <r>    28.2439     0.3785    59.6407 </r>
       <r>    28.3673     0.3564    59.6847 </r>
       <r>    28.4906     0.0926    59.6961 </r>
       <r>    28.6140    -0.0234    59.6932 </r>
       <r>    28.7374    -0.0349    59.6889 </r>
       <r>    28.8608     0.0368    59.6934 </r>
       <r>    28.9841     0.3495    59.7365 </r>
       <r>    29.1075     0.5198    59.8007 </r>
       <r>    29.2309     0.2224    59.8281 </r>
       <r>    29.3543    -0.0077    59.8272 </r>
       <r>    29.4776    -0.0191    59.8248 </r>
       <r>    29.6010    -0.0055    59.8241 </r>
       <r>    29.7244    -0.0116    59.8227 </r>
       <r>    29.8478     0.0065    59.8235 </r>
       <r>    29.9711     0.1458    59.8415 </r>
       <r>    30.0945     0.2644    59.8741 </r>
       <r>    30.2179     0.1400    59.8914 </r>
       <r>    30.3413     0.0044    59.8919 </r>
       <r>    30.4646    -0.0113    59.8905 </r>
       <r>    30.5880    -0.0051    59.8899 </r>
       <r>    30.7114    -0.0124    59.8884 </r>
       <r>    30.8347     0.0135    59.8900 </r>
       <r>    30.9581     0.1631    59.9102 </r>
       <r>    31.0815     0.2626    59.9426 </r>
       <r>    31.2049     0.1228    59.9577 </r>
       <r>    31.3282    -0.0009    59.9576 </r>
       <r>    31.4516    -0.0102    59.9563 </r>
       <r>    31.5750    -0.0018    59.9561 </r>
       <r>    31.6984    -0.0001    59.9561 </r>
       <r>    31.8217    -0.0000    59.9561 </r>
       <r>    31.9451    -0.0008    59.9560 </r>
       <r>    32.0685    -0.0055    59.9553 </r>
       <r>    32.1919    -0.0054    59.9547 </r>
       <r>    32.3152     0.0605    59.9621 </r>
       <r>    32.4386     0.1679    59.9828 </r>
       <r>    32.5620     0.1303    59.9989 </r>
       <r>    32.6854     0.0206    60.0014 </r>
       <r>    32.8087    -0.0087    60.0004 </r>
       <r>    32.9321    -0.0028    60.0000 </r>
       <r>    33.0555    -0.0003    60.0000 </r>
       <r>    33.1789    -0.0000    60.0000 </r>
       <r>    33.3022    -0.0000    60.0000 </r>
       <r>    33.4256    -0.0000    60.0000 </r>
       <r>    33.5490    -0.0000    60.0000 </r>
       <r>    33.6724    -0.0000    60.0000 </r>
       <r>    33.7957     0.0000    60.0000 </r>
       <r>    33.9191     0.0000    60.0000 </r>
       <r>    34.0425     0.0000    60.0000 </r>
       <r>    34.1659     0.0000    60.0000 </r>
       <r>    34.2892     0.0000    60.0000 </r>
       <r>    34.4126     0.0000    60.0000 </r>
      </set>
     </set>
    </array>
   </total>
  </dos>
 </calculation>
 <structure name="finalpos" >
  <crystal>
   <varray name="basis" >
    <v>       3.37443508       0.00000000       0.00000000 </v>
    <v>       0.00000000       3.37443508       0.00000000 </v>
    <v>       0.00000000       0.00000000       3.37443508 </v>
   </varray>
   <i name="volume">     38.42405830 </i>
   <varray name="rec_basis" >
    <v>       0.29634590       0.00000000       0.00000000 </v>
    <v>       0.00000000       0.29634590       0.00000000 </v>
    <v>       0.00000000       0.00000000       0.29634590 </v>
   </varray>
  </crystal>
  <varray name="positions" >
   <v>       0.00000000       0.00000000       0.00000000 </v>
   <v>       0.50000000       0.50000000       0.00000000 </v>
   <v>       0.50000000       0.00000000       0.50000000 </v>
   <v>       0.00000000       0.50000000       0.50000000 </v>
  </varray>
 </structure>
</modeling>
