unknown system                          
   1.00000000000000     
     2.283400    0.000000    0.000000
    -1.141700    1.977482    0.000000
     0.000000    0.000000    4.178720
   Fe
     2
Direct
  0.000000  0.000000  0.000000
  0.333333  0.666667  0.500000
 
   20   20   36
  158.47      150.47      128.89      99.693      69.650      44.016      25.628      14.970      10.500      9.2962    
  8.9689      9.2963      10.500      14.970      25.628      44.016      69.650      99.693      128.89      150.47    
  150.47      150.47      135.71      110.49      81.239      53.955      32.600      18.767      11.875      9.5990    
  8.9690      8.9688      9.5988      11.875      18.767      32.598      53.954      81.242      110.50      135.72    
  128.89      135.69      128.89      110.49      85.511      59.748      37.814      22.264      13.493      9.9845    
  8.9927      8.6809      8.9922      9.9845      13.493      22.263      37.811      59.747      85.514      110.49    
  99.690      110.43      110.43      99.693      81.239      59.748      39.747      24.360      14.811      10.418    
  9.0282      8.4697      8.4695      9.0280      10.419      14.812      24.360      39.744      59.744      81.235    
  69.642      81.157      85.402      81.164      69.650      53.954      37.814      24.360      15.319      10.714    
  9.0606      8.3432      8.0881      8.3431      9.0607      10.715      15.321      24.363      37.814      53.949    
  44.015      53.885      59.628      59.630      53.889      44.016      32.600      22.264      14.811      10.714    
  9.0756      8.2874      7.8679      7.8680      8.2872      9.0746      10.714      14.814      22.269      32.603    
  25.635      32.572      37.739      39.651      37.737      32.567      25.628      18.767      13.493      10.418    
  9.0606      8.2874      7.7975      7.6344      7.7979      8.2867      9.0580      10.416      13.493      18.772    
  14.970      18.773      22.254      24.332      24.329      22.248      18.769      14.970      11.875      9.9844    
  9.0282      8.3432      7.8679      7.6344      7.6349      7.8689      8.3429      9.0254      9.9795      11.871    
  10.493      11.891      13.524      14.846      15.352      14.844      13.524      11.895      10.500      9.5990    
  8.9927      8.4697      8.0880      7.8680      7.7979      7.8689      8.0903      8.4723      8.9927      9.5947    
  9.2960      9.6213      10.030      10.484      10.790      10.791      10.487      10.035      9.6254      9.2962    
  8.9690      8.6809      8.4695      8.3431      8.2873      8.2867      8.3429      8.4723      8.6862      8.9731    
  8.9751      9.0013      9.0490      9.1075      9.1588      9.1823      9.1614      9.1102      9.0486      8.9969    
  8.9689      8.9687      8.9923      9.0281      9.0606      9.0746      9.0580      9.0254      8.9927      8.9731    
  9.2960      9.0012      8.7446      8.5616      8.4588      8.4182      8.4188      8.4589      8.5588      8.7393    
  8.9972      9.2963      9.5988      9.9845      10.419      10.715      10.714      10.416      9.9796      9.5947    
  10.493      9.6213      9.0490      8.5616      8.2120      8.0153      7.9536      8.0145      8.2098      8.5590    
  9.0490      9.6257      10.500      11.875      13.493      14.812      15.321      14.814      13.493      11.871    
  14.970      11.891      10.030      9.1075      8.4588      8.0153      7.7999      7.7994      8.0143      8.4590    
  9.1103      10.035      11.895      14.970      18.767      22.263      24.360      24.363      22.269      18.772    
  25.635      18.773      13.524      10.483      9.1588      8.4182      7.9537      7.7994      7.9532      8.4190    
  9.1614      10.486      13.523      18.769      25.628      32.598      37.811      39.744      37.814      32.603    
  44.015      32.572      22.254      14.846      10.791      9.1823      8.4188      8.0145      8.0143      8.4190    
  9.1833      10.791      14.843      22.249      32.568      44.016      53.954      59.747      59.744      53.949    
  69.642      53.885      37.739      24.332      15.352      10.791      9.1614      8.4589      8.2098      8.4590    
  9.1615      10.791      15.350      24.330      37.739      53.890      69.650      81.242      85.514      81.235    
  99.690      81.157      59.628      39.651      24.329      14.844      10.487      9.1102      8.5588      8.5590    
  9.1103      10.486      14.843      24.330      39.653      59.632      81.161      99.693      110.50      110.49    
  128.89      110.43      85.402      59.630      37.737      22.248      13.524      10.035      9.0486      8.7393    
  9.0490      10.035      13.523      22.249      37.739      59.632      85.399      110.43      128.89      135.72    
  150.47      135.69      110.43      81.164      53.889      32.567      18.769      11.896      9.6254      8.9969    
  8.9971      9.6257      11.895      18.769      32.568      53.890      81.161      110.43      135.68      150.47    
  150.18      142.61      122.16      94.466      65.960      41.666      24.318      14.359      10.253      9.1371    
  8.8167      9.1372      10.253      14.359      24.318      41.666      65.960      94.466      122.16      142.61    
  142.61      142.61      128.62      104.70      76.947      51.067      30.870      17.881      11.496      9.4213    
  8.8109      8.8107      9.4211      11.496      17.881      30.869      51.066      76.950      104.71      128.63    
  122.16      128.61      122.16      104.70      80.998      56.552      35.783      21.141      12.973      9.7627    
  8.8308      8.5271      8.8303      9.7628      12.973      21.140      35.780      56.551      81.001      104.71    
  94.463      104.66      104.66      94.466      76.947      56.552      37.606      23.101      14.184      10.147    
  8.8641      8.3210      8.3208      8.8639      10.147      14.185      23.101      37.604      56.549      76.943    
  65.952      76.885      80.916      76.892      65.960      51.067      35.783      23.101      14.652      10.410    
  8.8944      8.1984      7.9522      8.1984      8.8944      10.411      14.654      23.103      35.783      51.062    
  41.665      51.021      56.470      56.472      51.025      41.666      30.870      21.141      14.184      10.410    
  8.9074      8.1448      7.7407      7.7409      8.1446      8.9065      10.410      14.186      21.146      30.874    
  24.324      30.865      35.750      37.559      35.748      30.860      24.318      17.881      12.973      10.147    
  8.8944      8.1448      7.6732      7.5169      7.6737      8.1441      8.8919      10.144      12.973      17.885    
  14.359      17.906      21.170      23.123      23.120      21.164      17.902      14.359      11.496      9.7627    
  8.8641      8.1985      7.7407      7.5168      7.5174      7.7416      8.1982      8.8615      9.7582      11.492    
  10.247      11.530      13.037      14.263      14.735      14.262      13.037      11.534      10.253      9.4213    
  8.8308      8.3211      7.9522      7.7408      7.6737      7.7416      7.9542      8.3234      8.8308      9.4172    
  9.1370      9.4582      9.8367      10.251      10.532      10.533      10.254      9.8413      9.4620      9.1371    
  8.8109      8.5271      8.3208      8.1984      8.1447      8.1441      8.1982      8.3234      8.5321      8.8148    
  8.8224      8.8562      8.9122      8.9779      9.0329      9.0564      9.0353      8.9803      8.9118      8.8521    
  8.8167      8.8107      8.8303      8.8639      8.8944      8.9065      8.8919      8.8615      8.8308      8.8148    
  9.1369      8.8562      8.6145      8.4444      8.3506      8.3143      8.3148      8.3507      8.4418      8.6096    
  8.8523      9.1372      9.4211      9.7628      10.147      10.411      10.410      10.144      9.7582      9.4172    
  10.246      9.4582      8.9122      8.4444      8.1110      7.9241      7.8657      7.9234      8.1090      8.4420    
  8.9122      9.4623      10.253      11.496      12.973      14.185      14.654      14.186      12.973      11.492    
  14.359      11.530      9.8367      8.9779      8.3505      7.9241      7.7176      7.7171      7.9232      8.3507    
  8.9805      9.8412      11.534      14.359      17.881      21.140      23.101      23.103      21.146      17.885    
  24.324      17.906      13.037      10.251      9.0329      8.3143      7.8657      7.7171      7.8653      8.3149    
  9.0353      10.253      13.037      17.902      24.318      30.869      35.780      37.604      35.783      30.874    
  41.665      30.865      21.170      14.263      10.532      9.0564      8.3148      7.9234      7.9232      8.3150    
  9.0573      10.532      14.261      21.165      30.861      41.666      51.066      56.551      56.549      51.062    
  65.952      51.021      35.750      23.123      14.735      10.533      9.0353      8.3507      8.1090      8.3507    
  9.0354      10.532      14.733      23.120      35.750      51.026      65.960      76.950      81.001      76.943    
  94.463      76.885      56.470      37.559      23.120      14.262      10.254      8.9803      8.4418      8.4420    
  8.9805      10.253      14.261      23.120      37.561      56.474      76.889      94.466      104.71      104.71    
  122.16      104.66      80.916      56.472      35.748      21.164      13.037      9.8413      8.9118      8.6096    
  8.9122      9.8412      13.037      21.165      35.750      56.474      80.914      104.65      122.16      128.63    
  142.61      128.61      104.66      76.892      51.025      30.860      17.902      11.534      9.4620      8.8521    
  8.8523      9.4623      11.534      17.902      30.861      51.026      76.889      104.65      128.60      142.61    
  127.88      121.44      104.01      80.358      56.008      35.366      20.853      12.780      9.6182      8.7015    
  8.4028      8.7016      9.6183      12.780      20.853      35.366      56.008      80.358      104.01      121.44    
  121.44      121.44      109.52      89.091      65.364      43.300      26.262      15.561      10.525      8.9431    
  8.3788      8.3786      8.9429      10.525      15.561      26.261      43.299      65.366      89.097      109.53    
  104.01      109.52      104.01      89.091      68.816      47.945      30.352      18.181      11.631      9.1841    
  8.3852      8.1060      8.3847      9.1840      11.631      18.180      30.350      47.943      68.818      89.096    
  80.356      89.083      89.084      80.358      65.364      47.945      31.876      19.771      12.555      9.4445    
  8.4095      7.9124      7.9122      8.4093      9.4449      12.556      19.771      31.874      47.942      65.361    
  56.001      65.358      68.810      65.363      56.008      43.300      30.352      19.771      12.916      9.6257    
  8.4344      7.7991      7.5782      7.7991      8.4345      9.6262      12.918      19.773      30.352      43.296    
  35.365      43.319      47.968      47.970      43.322      35.366      26.262      18.181      12.555      9.6257    
  8.4448      7.7499      7.3893      7.3895      7.7499      8.4441      9.6255      12.557      18.185      26.265    
  20.857      26.320      30.435      31.964      30.433      26.316      20.853      15.561      11.631      9.4445    
  8.4345      7.7500      7.3295      7.1916      7.3299      7.7495      8.4325      9.4426      11.631      15.564    
  12.780      15.642      18.318      19.933      19.931      18.313      15.638      12.780      10.525      9.1841    
  8.4095      7.7991      7.3893      7.1916      7.1920      7.3900      7.7989      8.4074      9.1804      10.522    
  9.6132      10.608      11.790      12.764      13.141      12.763      11.790      10.611      9.6182      8.9431    
  8.3852      7.9124      7.5781      7.3895      7.3299      7.3900      7.5797      7.9143      8.3851      8.9398    
  8.7014      9.0235      9.3420      9.6650      9.8812      9.8819      9.6673      9.3457      9.0266      8.7016    
  8.3787      8.1060      7.9122      7.7991      7.7500      7.7495      7.7988      7.9143      8.1101      8.3819    
  8.4075      8.4635      8.5430      8.6292      8.6976      8.7245      8.6995      8.6311      8.5426      8.4601    
  8.4028      8.3786      8.3847      8.4093      8.4345      8.4441      8.4325      8.4074      8.3852      8.3819    
  8.7013      8.4635      8.2666      8.1351      8.0680      8.0448      8.0453      8.0682      8.1330      8.2626    
  8.4603      8.7016      8.9430      9.1841      9.4448      9.6262      9.6255      9.4426      9.1804      8.9398    
  9.6131      9.0235      8.5430      8.1351      7.8503      7.6934      7.6449      7.6929      7.8487      8.1332    
  8.5430      9.0268      9.6183      10.525      11.631      12.556      12.918      12.557      11.631      10.522    
  12.780      10.608      9.3421      8.6292      8.0680      7.6934      7.5140      7.5136      7.6927      8.0682    
  8.6313      9.3457      10.611      12.780      15.561      18.180      19.771      19.773      18.185      15.564    
  20.857      15.642      11.790      9.6650      8.6976      8.0448      7.6449      7.5136      7.6445      8.0453    
  8.6995      9.6669      11.789      15.638      20.853      26.261      30.350      31.874      30.352      26.265    
  35.365      26.320      18.318      12.764      9.8812      8.7245      8.0453      7.6929      7.6927      8.0453    
  8.7252      9.8814      12.762      18.314      26.317      35.366      43.299      47.943      47.942      43.296    
  56.001      43.319      30.435      19.933      13.141      9.8819      8.6995      8.0681      7.8487      8.0682    
  8.6995      9.8814      13.140      19.931      30.435      43.323      56.008      65.366      68.818      65.361    
  80.356      65.358      47.968      31.964      19.931      12.763      9.6673      8.6311      8.1330      8.1332    
  8.6313      9.6669      12.762      19.931      31.966      47.971      65.361      80.358      89.097      89.096    
  104.01      89.083      68.810      47.970      30.433      18.313      11.790      9.3457      8.5426      8.2626    
  8.5430      9.3457      11.789      18.314      30.435      47.971      68.808      89.078      104.01      109.53    
  121.44      109.52      89.084      65.363      43.322      26.316      15.639      10.611      9.0266      8.4601    
  8.4603      9.0268      10.611      15.638      26.317      43.323      65.361      89.078      109.51      121.44    
  97.898      92.945      79.531      61.318      42.639      27.029      16.403      10.843      8.8291      8.0942    
  7.8330      8.0943      8.8292      10.843      16.403      27.029      42.639      61.318      79.531      92.945    
  92.947      92.945      83.765      68.019      49.761      32.938      20.252      12.651      9.3459      8.2762    
  7.7792      7.7791      8.2760      9.3462      12.651      20.251      32.938      49.762      68.023      83.770    
  79.534      83.781      79.531      68.019      52.395      36.425      23.213      14.414      9.9898      8.4339    
  7.7601      7.5208      7.7597      8.4338      9.9902      14.414      23.212      36.424      52.396      68.022    
  61.317      68.059      68.059      61.318      49.761      36.425      24.324      15.504      10.548      8.5661    
  7.7645      7.3405      7.3403      7.7643      8.5663      10.549      15.504      24.323      36.423      49.758    
  42.634      49.831      52.493      49.834      42.639      32.938      23.213      15.504      10.770      8.6549    
  7.7766      7.2355      7.0521      7.2355      7.7766      8.6551      10.771      15.505      23.213      32.936    
  27.028      33.048      36.595      36.596      33.050      27.029      20.252      14.414      10.548      8.6549    
  7.7824      7.1898      6.8920      6.8922      7.1900      7.7821      8.6547      10.550      14.417      20.254    
  16.407      20.397      23.453      24.598      23.452      20.394      16.403      12.651      9.9898      8.5661    
  7.7766      7.1898      6.8418      6.7295      6.8421      7.1896      7.7754      8.5648      9.9902      12.653    
  10.843      12.810      14.701      15.860      15.858      14.698      12.808      10.843      9.3459      8.4339    
  7.7646      7.2355      6.8920      6.7295      6.7297      6.8924      7.2353      7.7631      8.4314      9.3437    
  8.8255      9.4993      10.285      10.942      11.198      10.941      10.285      9.5017      8.8291      8.2762    
  7.7601      7.3405      7.0521      6.8922      6.8421      6.8924      7.0530      7.3417      7.7601      8.2738    
  8.0941      8.4219      8.7176      8.9598      9.1099      9.1102      8.9612      8.7201      8.4241      8.0942    
  7.7792      7.5208      7.3403      7.2355      7.1900      7.1896      7.2353      7.3417      7.5237      7.7814    
  7.8363      7.9248      8.0363      8.1493      8.2349      8.2675      8.2361      8.1505      8.0360      7.9224    
  7.8330      7.7791      7.7597      7.7643      7.7766      7.7821      7.7753      7.7631      7.7601      7.7815    
  8.0941      7.9248      7.7962      7.7220      7.6941      7.6902      7.6906      7.6943      7.7206      7.7934    
  7.9226      8.0942      8.2760      8.4338      8.5662      8.6551      8.6547      8.5648      8.4314      8.2738    
  8.8255      8.4219      8.0364      7.7220      7.5112      7.3998      7.3664      7.3996      7.5104      7.7207    
  8.0363      8.4243      8.8292      9.3462      9.9902      10.549      10.771      10.550      9.9902      9.3437    
  10.843      9.4993      8.7176      8.1493      7.6941      7.3998      7.2619      7.2617      7.3994      7.6943    
  8.1506      8.7201      9.5015      10.843      12.651      14.414      15.504      15.505      14.417      12.653    
  16.407      12.810      10.285      8.9598      8.2349      7.6903      7.3665      7.2617      7.3661      7.6905    
  8.2361      8.9610      10.285      12.808      16.403      20.251      23.212      24.323      23.213      20.254    
  27.028      20.397      14.701      10.942      9.1099      8.2675      7.6906      7.3996      7.3994      7.6905    
  8.2679      9.1100      10.940      14.698      20.394      27.029      32.938      36.424      36.423      32.936    
  42.634      33.048      23.453      15.860      11.198      9.1103      8.2361      7.6943      7.5104      7.6943    
  8.2361      9.1100      11.197      15.859      23.453      33.050      42.639      49.762      52.396      49.759    
  61.317      49.831      36.595      24.598      15.858      10.941      8.9612      8.1505      7.7206      7.7207    
  8.1506      8.9610      10.940      15.859      24.600      36.597      49.833      61.318      68.023      68.022    
  79.534      68.059      52.493      36.596      23.452      14.698      10.285      8.7201      8.0360      7.7934    
  8.0363      8.7201      10.285      14.698      23.453      36.597      52.492      68.055      79.531      83.770    
  92.947      83.781      68.059      49.834      33.050      20.394      12.808      9.5017      8.4241      7.9224    
  7.9226      8.4243      9.5015      12.808      20.394      33.050      49.833      68.055      83.776      92.944    
  67.274      63.834      54.528      41.952      29.228      18.919      12.308      9.1746      8.0469      7.4388    
  7.2279      7.4388      8.0469      9.1746      12.308      18.919      29.228      41.952      54.528      63.834    
  63.835      63.834      57.452      46.536      33.998      22.704      14.566      10.073      8.3042      7.5430    
  7.1387      7.1386      7.5429      8.3044      10.074      14.566      22.703      33.999      46.539      57.455    
  54.530      57.486      54.528      46.536      35.773      24.970      16.359      11.000      8.5700      7.6374    
  7.0840      6.8949      7.0837      7.6373      8.5703      11.000      16.358      24.970      35.774      46.538    
  41.951      46.624      46.624      41.952      33.998      24.970      17.041      11.592      8.8049      7.7044    
  7.0571      6.7232      6.7230      7.0569      7.7044      8.8051      11.592      17.040      24.969      33.997    
  29.226      34.144      35.975      34.146      29.228      22.704      16.359      11.592      8.9009      7.7380    
  7.0472      6.6204      6.4800      6.6205      7.0472      7.7380      8.9012      11.593      16.359      22.702    
  18.919      22.901      25.284      25.284      22.903      18.919      14.566      11.000      8.8049      7.7380    
  7.0451      6.5741      6.3460      6.3462      6.5743      7.0450      7.7378      8.8057      11.002      14.567    
  12.310      14.797      16.756      17.499      16.755      14.796      12.308      10.073      8.5700      7.7044    
  7.0472      6.5741      6.3040      6.2184      6.3043      6.5741      7.0466      7.7038      8.5703      10.075    
  9.1744      10.312      11.437      12.142      12.141      11.435      10.310      9.1746      8.3042      7.6374    
  7.0571      6.6204      6.3460      6.2184      6.2185      6.3461      6.6203      7.0563      7.6360      8.3029    
  8.0447      8.5315      9.0063      9.3882      9.5367      9.3875      9.0063      8.5330      8.0469      7.5430    
  7.0840      6.7232      6.4800      6.3462      6.3043      6.3461      6.4803      6.7238      7.0840      7.5416    
  7.4386      7.7591      8.0560      8.2830      8.4055      8.4056      8.2837      8.0572      7.7604      7.4388    
  7.1387      6.8949      6.7230      6.6205      6.5743      6.5741      6.6202      6.7238      6.8965      7.1400    
  7.2298      7.3508      7.4898      7.6228      7.7202      7.7563      7.7208      7.6234      7.4895      7.3494    
  7.2279      7.1386      7.0837      7.0569      7.0472      7.0450      7.0466      7.0563      7.0840      7.1400    
  7.4386      7.3508      7.2970      7.2816      7.2921      7.3063      7.3065      7.2923      7.2808      7.2954    
  7.3496      7.4388      7.5429      7.6373      7.7044      7.7380      7.7378      7.7038      7.6360      7.5417    
  8.0447      7.7591      7.4898      7.2816      7.1508      7.0869      7.0690      7.0870      7.1505      7.2809    
  7.4898      7.7605      8.0469      8.3044      8.5703      8.8051      8.9012      8.8057      8.5703      8.3029    
  9.1744      8.5315      8.0560      7.6228      7.2921      7.0869      6.9938      6.9937      7.0868      7.2922    
  7.6236      8.0573      8.5328      9.1746      10.074      11.000      11.592      11.593      11.002      10.075    
  12.310      10.312      9.0063      8.2830      7.7202      7.3063      7.0690      6.9937      7.0687      7.3063    
  7.7208      8.2837      9.0060      10.310      12.308      14.566      16.358      17.040      16.359      14.567    
  18.919      14.797      11.437      9.3881      8.4055      7.7563      7.3066      7.0870      7.0867      7.3063    
  7.7565      8.4057      9.3874      11.435      14.796      18.919      22.703      24.970      24.969      22.702    
  29.226      22.901      16.756      12.142      9.5367      8.4056      7.7208      7.2923      7.1505      7.2922    
  7.7208      8.4057      9.5364      12.141      16.756      22.903      29.228      33.999      35.774      33.997    
  41.951      34.144      25.284      17.499      12.141      9.3875      8.2837      7.6234      7.2808      7.2809    
  7.6236      8.2837      9.3874      12.141      17.500      25.285      34.145      41.952      46.539      46.538    
  54.530      46.624      35.975      25.284      16.755      11.435      9.0063      8.0572      7.4895      7.2954    
  7.4898      8.0573      9.0060      11.435      16.756      25.285      35.975      46.622      54.528      57.455    
  63.835      57.486      46.624      34.146      22.903      14.796      10.310      8.5330      7.7604      7.3494    
  7.3495      7.7605      8.5328      10.310      14.796      22.903      34.145      46.622      57.484      63.834    
  41.391      39.266      33.551      25.945      18.486      12.786      9.4732      8.0484      7.3072      6.8395    
  6.6836      6.8395      7.3072      8.0484      9.4731      12.786      18.486      25.945      33.551      39.266    
  39.267      39.266      35.328      28.663      21.186      14.748      10.464      8.3596      7.4560      6.8616    
  6.5606      6.5605      6.8615      7.4562      8.3600      10.464      14.748      21.186      28.664      35.329    
  33.552      35.375      33.551      28.663      22.203      15.956      11.294      8.6839      7.5595      6.8838    
  6.4669      6.3296      6.4666      6.8837      7.5597      8.6841      11.294      15.955      22.203      28.664    
  25.944      28.785      28.785      25.945      21.186      15.956      11.619      8.9010      7.6185      6.8983    
  6.4026      6.1601      6.1600      6.4024      6.8982      7.6185      8.9008      11.618      15.955      21.185    
  18.485      21.386      22.480      21.387      18.486      14.747      11.294      8.9010      7.6398      6.9045    
  6.3655      6.0525      5.9526      6.0526      6.3656      6.9043      7.6397      8.9011      11.294      14.747    
  12.786      15.009      16.373      16.373      15.010      12.786      10.464      8.6839      7.6185      6.9045    
  6.3535      6.0012      5.8365      5.8367      6.0015      6.3535      6.9044      7.6188      8.6847      10.465    
  9.4739      10.758      11.806      12.210      11.806      10.758      9.4731      8.3596      7.5595      6.8983    
  6.3656      6.0012      5.7996      5.7367      5.7999      6.0014      6.3654      6.8981      7.5597      8.3603    
  8.0482      8.6585      9.2349      9.5967      9.5964      9.2343      8.6582      8.0484      7.4560      6.8838    
  6.4026      6.0526      5.8365      5.7367      5.7367      5.8365      6.0525      6.4023      6.8833      7.4555    
  7.3062      7.7439      8.1089      8.3524      8.4402      8.3521      8.1089      7.7446      7.3072      6.8616    
  6.4669      6.1601      5.9525      5.8367      5.7999      5.8365      5.9525      6.1603      6.4668      6.8610    
  6.8394      7.1376      7.4162      7.6322      7.7500      7.7500      7.6323      7.4166      7.1381      6.8395    
  6.5606      6.3296      6.1600      6.0526      6.0015      6.0014      6.0524      6.1603      6.3303      6.5611    
  6.6844      6.8305      6.9849      7.1252      7.2244      7.2604      7.2245      7.1253      6.9847      6.8298    
  6.6836      6.5605      6.4666      6.4024      6.3656      6.3535      6.3654      6.4023      6.4669      6.5611    
  6.8394      6.8304      6.8427      6.8745      6.9129      6.9391      6.9392      6.9131      6.8743      6.8420    
  6.8299      6.8395      6.8615      6.8837      6.8982      6.9043      6.9044      6.8981      6.8833      6.8610    
  7.3062      7.1376      6.9850      6.8745      6.8125      6.7871      6.7813      6.7873      6.8125      6.8744    
  6.9850      7.1382      7.3072      7.4562      7.5597      7.6185      7.6397      7.6188      7.5597      7.4555    
  8.0482      7.7439      7.4162      7.1252      6.9129      6.7871      6.7323      6.7323      6.7871      6.9130    
  7.1254      7.4167      7.7444      8.0484      8.3600      8.6841      8.9008      8.9011      8.6847      8.3603    
  9.4739      8.6585      8.1089      7.6322      7.2244      6.9391      6.7814      6.7323      6.7811      6.9389    
  7.2245      7.6324      8.1087      8.6578      9.4731      10.464      11.294      11.618      11.294      10.465    
  12.786      10.758      9.2348      8.3524      7.7500      7.2604      6.9392      6.7873      6.7871      6.9390    
  7.2604      7.7501      8.3522      9.2341      10.758      12.786      14.748      15.955      15.955      14.747    
  18.485      15.009      11.806      9.5967      8.4402      7.7500      7.2245      6.9131      6.8125      6.9130    
  7.2245      7.7501      8.4403      9.5966      11.806      15.010      18.486      21.186      22.203      21.185    
  25.944      21.386      16.373      12.210      9.5964      8.3521      7.6323      7.1253      6.8743      6.8744    
  7.1254      7.6324      8.3522      9.5966      12.211      16.373      21.387      25.945      28.664      28.664    
  33.552      28.785      22.480      16.373      11.806      9.2343      8.1089      7.4166      6.9847      6.8420    
  6.9849      7.4167      8.1087      9.2341      11.806      16.373      22.480      28.785      33.551      35.329    
  39.267      35.375      28.785      21.387      15.010      10.758      8.6582      7.7446      7.1381      6.8298    
  6.8299      7.1382      7.7445      8.6578      10.758      15.010      21.387      28.785      35.374      39.266    
  23.095      21.983      19.033      15.232      11.717      9.2751      7.9872      7.2462      6.6919      6.3645    
  6.2589      6.3645      6.6919      7.2462      7.9872      9.2751      11.717      15.232      19.033      21.983    
  21.983      21.983      19.929      16.533      12.892      9.9915      8.2600      7.3769      6.7391      6.3112    
  6.1053      6.1052      6.3111      6.7392      7.3772      8.2603      9.9916      12.892      16.533      19.929    
  19.034      19.981      19.033      16.533      13.346      10.455      8.4963      7.4539      6.7678      6.2652    