unknown system                          
   1.00000000000000     
     2.283400    0.000000    0.000000
    -1.141700    1.977482    0.000000
     0.000000    0.000000    4.178720
   Fe
     2
Direct
  0.000000  0.000000  0.000000
  0.333333  0.666667  0.500000
 
   20   20   36
 0.15846542301E+03 0.15046847141E+03 0.12888773703E+03 0.99692578798E+02 0.69650434006E+02
 0.44015743124E+02 0.25628493912E+02 0.14969801500E+02 0.10499534979E+02 0.92961990522E+01
 0.89689377323E+01 0.92962626927E+01 0.10499595186E+02 0.14969806399E+02 0.25628465253E+02
 0.44015739287E+02 0.69650472240E+02 0.99692619627E+02 0.12888774379E+03 0.15046845733E+03
 0.15047259867E+03 0.15046845599E+03 0.13571185375E+03 0.11048761113E+03 0.81239052888E+02
 0.53954528423E+02 0.32599654606E+02 0.18767457937E+02 0.11874787703E+02 0.95990313583E+01
 0.89689770630E+01 0.89687626476E+01 0.95988226655E+01 0.11874946922E+02 0.18767204437E+02
 0.32598256201E+02 0.53953533693E+02 0.81241832933E+02 0.11049547345E+03 0.13572107539E+03
 0.12889386879E+03 0.13569371439E+03 0.12888774266E+03 0.11048762761E+03 0.85511427077E+02
 0.59748362422E+02 0.37813715502E+02 0.22263770851E+02 0.13492753473E+02 0.99844504160E+01
 0.89927225438E+01 0.86808890713E+01 0.89922465277E+01 0.99844700583E+01 0.13493170242E+02
 0.22262949593E+02 0.37811084555E+02 0.59746543479E+02 0.85514029471E+02 0.11049452983E+03
 0.99689827236E+02 0.11043291230E+03 0.11043384737E+03 0.99692610427E+02 0.81239043911E+02
 0.59748346571E+02 0.39746825887E+02 0.24360269932E+02 0.14811086878E+02 0.10418225384E+02
 0.90282170463E+01 0.84697290336E+01 0.84695003182E+01 0.90280459587E+01 0.10418835096E+02
 0.14812071929E+02 0.24360122175E+02 0.39744446086E+02 0.59744250903E+02 0.81234899198E+02
 0.69641697867E+02 0.81157159938E+02 0.85401752681E+02 0.81164059589E+02 0.69650433659E+02
 0.53954497287E+02 0.37813728122E+02 0.24360284035E+02 0.15319085755E+02 0.10714014767E+02
 0.90606284658E+01 0.83431514532E+01 0.80880601132E+01 0.83431017133E+01 0.90606539584E+01
 0.10714800845E+02 0.15321297275E+02 0.24362914567E+02 0.37813733930E+02 0.53949392350E+02
 0.44014745854E+02 0.53884723057E+02 0.59627538617E+02 0.59629823783E+02 0.53888849107E+02
 0.44015727524E+02 0.32599659839E+02 0.22263799283E+02 0.14811070634E+02 0.10714002934E+02
 0.90755516560E+01 0.82874326527E+01 0.78678966088E+01 0.78680452157E+01 0.82872471855E+01
 0.90745785919E+01 0.10713807412E+02 0.14813870887E+02 0.22269027993E+02 0.32603390978E+02
 0.25634590252E+02 0.32571657326E+02 0.37739389022E+02 0.39650514592E+02 0.37736768818E+02
 0.32566554941E+02 0.25628481016E+02 0.18767473876E+02 0.13492743299E+02 0.10418200983E+02
 0.90606484054E+01 0.82874423476E+01 0.77974973092E+01 0.76343660392E+01 0.77979155717E+01
 0.82866607760E+01 0.90580045835E+01 0.10415635682E+02 0.13493170242E+02 0.18771752804E+02
 0.14969650582E+02 0.18773041602E+02 0.22254486762E+02 0.24332208784E+02 0.24329438257E+02
 0.22248445021E+02 0.18768500733E+02 0.14969792651E+02 0.11874797938E+02 0.99844354519E+01
 0.90282320442E+01 0.83431715642E+01 0.78678729177E+01 0.76343578628E+01 0.76349288795E+01
 0.78688828320E+01 0.83429458965E+01 0.90254093842E+01 0.99795409077E+01 0.11870649763E+02
 0.10493024868E+02 0.11891232501E+02 0.13523790258E+02 0.14845604332E+02 0.15352116440E+02
 0.14843817952E+02 0.13523784937E+02 0.11895491792E+02 0.10499552636E+02 0.95990372901E+01
 0.89927145988E+01 0.84697416961E+01 0.80880406024E+01 0.78680287345E+01 0.77979426295E+01
 0.78688900418E+01 0.80902641678E+01 0.84722927095E+01 0.89926918480E+01 0.95946813225E+01
 0.92960276417E+01 0.96213010713E+01 0.10029995948E+02 0.10483501303E+02 0.10790491757E+02
 0.10791475979E+02 0.10486685319E+02 0.10034918360E+02 0.96254309986E+01 0.92962176892E+01
 0.89689570180E+01 0.86808847766E+01 0.84695066451E+01 0.83430923300E+01 0.82872703751E+01
 0.82866742706E+01 0.83429164022E+01 0.84722863739E+01 0.86862090897E+01 0.89731390416E+01
 0.89750627307E+01 0.90012513822E+01 0.90490121215E+01 0.91075454050E+01 0.91588323857E+01
 0.91822641210E+01 0.91614454803E+01 0.91101717199E+01 0.90486148184E+01 0.89969301396E+01
 0.89689297543E+01 0.89687477314E+01 0.89922692784E+01 0.90280504629E+01 0.90606484054E+01
 0.90745839874E+01 0.90579790909E+01 0.90253988905E+01 0.89927225438E+01 0.89731441704E+01
 0.92959973330E+01 0.90012479996E+01 0.87445794046E+01 0.85615731238E+01 0.84588099817E+01
 0.84182040601E+01 0.84187743780E+01 0.84589418459E+01 0.85587930031E+01 0.87393201754E+01
 0.89971576233E+01 0.92962510210E+01 0.95988355708E+01 0.99844813543E+01 0.10418809726E+02
 0.10714794648E+02 0.10713813047E+02 0.10415634711E+02 0.99795671678E+01 0.95946882961E+01
 0.10492999553E+02 0.96212982518E+01 0.90490400298E+01 0.85615741719E+01 0.82120426320E+01
 0.80153102750E+01 0.79536471329E+01 0.80144856266E+01 0.82098385511E+01 0.85589947223E+01
 0.90490252456E+01 0.96256660496E+01 0.10499587529E+02 0.11874953754E+02 0.13493153726E+02
 0.14812064067E+02 0.15321324703E+02 0.14813879269E+02 0.13493163901E+02 0.11870646360E+02
 0.14969657968E+02 0.11891239620E+02 0.10030018309E+02 0.91075434674E+01 0.84587864309E+01
 0.80153118802E+01 0.77999016966E+01 0.77993567218E+01 0.80143420945E+01 0.84590000330E+01
 0.91102894876E+01 0.10034826841E+02 0.11895348260E+02 0.14969804935E+02 0.18767210385E+02
 0.22262949383E+02 0.24360140503E+02 0.24362918791E+02 0.22268999350E+02 0.18771742812E+02
 0.25634618910E+02 0.18773051826E+02 0.13523781709E+02 0.10483491435E+02 0.91588148575E+01
 0.84182108860E+01 0.79536651253E+01 0.77993528908E+01 0.79532367057E+01 0.84189779324E+01
 0.91614454803E+01 0.10486044995E+02 0.13523339617E+02 0.18768750189E+02 0.25628481016E+02
 0.32598261132E+02 0.37811078747E+02 0.39744438770E+02 0.37813715502E+02 0.32603390675E+02
 0.44014762779E+02 0.32571653639E+02 0.22254459758E+02 0.14845595601E+02 0.10790501440E+02
 0.91822756555E+01 0.84187859580E+01 0.80144750667E+01 0.80143299293E+01 0.84189826866E+01
 0.91832702311E+01 0.10790730684E+02 0.14842837606E+02 0.22249269550E+02 0.32567942310E+02
 0.44015740612E+02 0.53953516942E+02 0.59746534525E+02 0.59744257800E+02 0.53949406734E+02
 0.69641689131E+02 0.53884703422E+02 0.37739375352E+02 0.24332216429E+02 0.15352140090E+02
 0.10791481786E+02 0.91614347335E+01 0.84589299630E+01 0.82098331831E+01 0.84590117010E+01
 0.91614522617E+01 0.10790726808E+02 0.15349941884E+02 0.24329594073E+02 0.37739388694E+02
 0.53889842540E+02 0.69650463158E+02 0.81241836302E+02 0.85514046953E+02 0.81234911545E+02
 0.99689809471E+02 0.81157145785E+02 0.59627549602E+02 0.39650537077E+02 0.24329447102E+02
 0.14843806620E+02 0.10486666035E+02 0.91101692619E+01 0.85588048452E+01 0.85590055163E+01
 0.91102889673E+01 0.10486035579E+02 0.14842835005E+02 0.24329595274E+02 0.39652876895E+02
 0.59631599676E+02 0.81161290262E+02 0.99692633491E+02 0.11049548190E+03 0.11049452180E+03
 0.12889386203E+03 0.11043292404E+03 0.85401769831E+02 0.59629837728E+02 0.37736755476E+02
 0.22248421960E+02 0.13523781709E+02 0.10034932230E+02 0.90486296027E+01 0.87393202323E+01
 0.90490121215E+01 0.10034818350E+02 0.13523344937E+02 0.22249273492E+02 0.37739389022E+02
 0.59631602637E+02 0.85399103306E+02 0.11042599753E+03 0.12888774266E+03 0.13572105255E+03
 0.15047260168E+03 0.13569374342E+03 0.11043385122E+03 0.81164045385E+02 0.53888833695E+02
 0.32566543020E+02 0.18768516280E+02 0.11895513425E+02 0.96254285248E+01 0.89969160073E+01
 0.89971468737E+01 0.96256663953E+01 0.11895362774E+02 0.18768755512E+02 0.32567934076E+02
 0.53889846763E+02 0.81161290212E+02 0.11042598964E+03 0.13568449915E+03 0.15046844492E+03
 0.15017792185E+03 0.14260510069E+03 0.12215587378E+03 0.94465828154E+02 0.65959799538E+02
 0.41666039538E+02 0.24318441999E+02 0.14359364324E+02 0.10252633541E+02 0.91371203377E+01
 0.88166977103E+01 0.91371811865E+01 0.10252691005E+02 0.14359368647E+02 0.24318413903E+02
 0.41666034984E+02 0.65959835368E+02 0.94465866922E+02 0.12215588041E+03 0.14260508748E+03
 0.14260896098E+03 0.14260508553E+03 0.12862239794E+03 0.10470236331E+03 0.76947285948E+02
 0.51066958073E+02 0.30870045119E+02 0.17880934301E+02 0.11496290400E+02 0.94212737694E+01
 0.88109135127E+01 0.88107031894E+01 0.94210687088E+01 0.11496461836E+02 0.17880753513E+02
 0.30868792099E+02 0.51066048365E+02 0.76949875188E+02 0.10470970115E+03 0.12863101833E+03
 0.12216161155E+03 0.12860873729E+03 0.12215587931E+03 0.10470237947E+03 0.80998491433E+02
 0.56552420565E+02 0.35782851345E+02 0.21140685380E+02 0.12972898450E+02 0.97627481018E+01
 0.88307859693E+01 0.85271062235E+01 0.88303148213E+01 0.97627524978E+01 0.12973313104E+02
 0.21139962340E+02 0.35780414973E+02 0.56550708035E+02 0.81000901497E+02 0.10470882472E+03
 0.94463265556E+02 0.10466003004E+03 0.10466089899E+03 0.94465859196E+02 0.76947277131E+02
 0.56552405029E+02 0.37606267920E+02 0.23100878296E+02 0.14183632695E+02 0.10146538362E+02
 0.88640790072E+01 0.83210399460E+01 0.83208168241E+01 0.88638971409E+01 0.10147084637E+02
 0.14184532064E+02 0.23100717626E+02 0.37604019462E+02 0.56548559485E+02 0.76943400331E+02
 0.65951649814E+02 0.76885441542E+02 0.80916163063E+02 0.76891884823E+02 0.65959799205E+02
 0.51066927561E+02 0.35782863740E+02 0.23100892107E+02 0.14651547993E+02 0.10409889578E+02
 0.88943506530E+01 0.81984479083E+01 0.79522342559E+01 0.81984155133E+01 0.88943755869E+01
 0.10410593474E+02 0.14653567125E+02 0.23103318993E+02 0.35782869392E+02 0.51062174874E+02
 0.41665127378E+02 0.51020867101E+02 0.56470004455E+02 0.56472145976E+02 0.51024726217E+02
 0.41666024263E+02 0.30870050260E+02 0.21140713230E+02 0.14183616776E+02 0.10409878003E+02
 0.89074040008E+01 0.81447795239E+01 0.77406911457E+01 0.77408521923E+01 0.81446485307E+01
 0.89065151817E+01 0.10409685867E+02 0.14186225824E+02 0.21145619862E+02 0.30873573197E+02
 0.24324145038E+02 0.30864870153E+02 0.35750164989E+02 0.37558896587E+02 0.35747737544E+02
 0.30860119440E+02 0.24318429335E+02 0.17880949929E+02 0.12972888482E+02 0.10146514476E+02
 0.88943701428E+01 0.81447889894E+01 0.76732412330E+01 0.75168554574E+01 0.76736558907E+01
 0.81440880627E+01 0.88919211677E+01 0.10144136132E+02 0.12973313104E+02 0.17884974143E+02
 0.14359200550E+02 0.17906413759E+02 0.21169955582E+02 0.23122893201E+02 0.23120311976E+02
 0.21164331667E+02 0.17902199587E+02 0.14359355669E+02 0.11496300434E+02 0.97627334119E+01
 0.88640936532E+01 0.81984675649E+01 0.77406680061E+01 0.75168474808E+01 0.75173706924E+01
 0.77415917022E+01 0.81982474167E+01 0.88614638712E+01 0.97581706789E+01 0.11492420248E+02
 0.10246518768E+02 0.11529775621E+02 0.13037174562E+02 0.14263497697E+02 0.14734505148E+02
 0.14261815768E+02 0.13037169320E+02 0.11533781155E+02 0.10252650839E+02 0.94212795178E+01
 0.88307781755E+01 0.83210523730E+01 0.79522152103E+01 0.77408361027E+01 0.76736823358E+01
 0.77415987521E+01 0.79542475724E+01 0.83234181904E+01 0.88307559240E+01 0.94171952173E+01
 0.91369518464E+01 0.94581814614E+01 0.98367239125E+01 0.10251132195E+02 0.10531713882E+02
 0.10532613293E+02 0.10254067220E+02 0.98413001382E+01 0.94620442951E+01 0.91371385724E+01
 0.88108939078E+01 0.85271021027E+01 0.83208230330E+01 0.81984063215E+01 0.81446711911E+01
 0.81441012575E+01 0.81982185682E+01 0.83234119722E+01 0.85320854790E+01 0.88148060210E+01
 0.88224288450E+01 0.88561730677E+01 0.89121623448E+01 0.89779246504E+01 0.90329256595E+01
 0.90563898161E+01 0.90353461904E+01 0.89803486694E+01 0.89117667697E+01 0.88521221949E+01
 0.88166899403E+01 0.88106886338E+01 0.88303370728E+01 0.88639014905E+01 0.88943701428E+01
 0.89065204605E+01 0.88918962338E+01 0.88614535748E+01 0.88307859693E+01 0.88148110704E+01
 0.91369221461E+01 0.88561697258E+01 0.86144823500E+01 0.84444180965E+01 0.83505501615E+01
 0.83142532618E+01 0.83147984253E+01 0.83506951965E+01 0.84418275031E+01 0.86095597347E+01
 0.88523444526E+01 0.91371697208E+01 0.94210813262E+01 0.97627635069E+01 0.10147059806E+02
 0.10410587418E+02 0.10409691386E+02 0.10144135187E+02 0.97581963779E+01 0.94172020863E+01
 0.10246493970E+02 0.94581786577E+01 0.89121897270E+01 0.84444191473E+01 0.81109741011E+01
 0.79241059703E+01 0.78656989228E+01 0.79233788456E+01 0.81089606366E+01 0.84420256947E+01
 0.89121752058E+01 0.94622736352E+01 0.10252683505E+02 0.11496468530E+02 0.12973296918E+02
 0.14184524383E+02 0.14653593976E+02 0.14186234061E+02 0.12973306886E+02 0.11492416909E+02
 0.14359207807E+02 0.11529782604E+02 0.98367458421E+01 0.89779227888E+01 0.83505270392E+01
 0.79241075361E+01 0.77176323912E+01 0.77171339162E+01 0.79232223291E+01 0.83507368716E+01
 0.89804811198E+01 0.98412273147E+01 0.11533624638E+02 0.14359367249E+02 0.17880759307E+02
 0.21139962140E+02 0.23100735590E+02 0.23103323146E+02 0.21145591812E+02 0.17884964309E+02
 0.24324173134E+02 0.17906423825E+02 0.13037166154E+02 0.10251122524E+02 0.90329084580E+01
 0.83142599395E+01 0.78657165891E+01 0.77171301444E+01 0.78652904868E+01 0.83149459640E+01
 0.90353461904E+01 0.10253492149E+02 0.13036728218E+02 0.17902377221E+02 0.24318429335E+02
 0.30868796923E+02 0.35780409321E+02 0.37604012284E+02 0.35782851345E+02 0.30873572880E+02
 0.41665143953E+02 0.30864866558E+02 0.21169929075E+02 0.14263489105E+02 0.10531723404E+02
 0.90564011160E+01 0.83148097935E+01 0.79233684682E+01 0.79232103860E+01 0.83149506545E+01
 0.90573094666E+01 0.10531947049E+02 0.14260920183E+02 0.21165059155E+02 0.30861362162E+02
 0.41666036285E+02 0.51066031977E+02 0.56550699247E+02 0.56548566233E+02 0.51062188997E+02
 0.65951641227E+02 0.51020847820E+02 0.35750151590E+02 0.23122900675E+02 0.14734528375E+02
 0.10532618989E+02 0.90353356346E+01 0.83506835557E+01 0.81089553605E+01 0.83507483531E+01
 0.90353528361E+01 0.10531943222E+02 0.14732519074E+02 0.23120480073E+02 0.35750164720E+02
 0.51025633823E+02 0.65959826448E+02 0.76949878497E+02 0.81000918610E+02 0.76943412457E+02
 0.94463248126E+02 0.76885427633E+02 0.56470015271E+02 0.37558918652E+02 0.23120320647E+02
 0.14261804660E+02 0.10254048283E+02 0.89803463009E+01 0.84418391187E+01 0.84420362595E+01
 0.89804806129E+01 0.10253482884E+02 0.14260917668E+02 0.23120481269E+02 0.37561129477E+02
 0.56473818398E+02 0.76889304795E+02 0.94465880534E+02 0.10470970942E+03 0.10470881683E+03
 0.12216160492E+03 0.10466004158E+03 0.80916179927E+02 0.56472159684E+02 0.35747724414E+02
 0.21164309049E+02 0.13037166154E+02 0.98413137669E+01 0.89117812910E+01 0.86095597171E+01
 0.89121623448E+01 0.98412190137E+01 0.13036733460E+02 0.21165063044E+02 0.35750164989E+02
 0.56473821290E+02 0.80913708643E+02 0.10465357318E+03 0.12215587931E+03 0.12863099587E+03
 0.14260896393E+03 0.12860876583E+03 0.10466090278E+03 0.76891870900E+02 0.51024711059E+02
 0.30860107735E+02 0.17902214855E+02 0.11533802359E+02 0.94620418965E+01 0.88521082955E+01
 0.88523338950E+01 0.94622740403E+01 0.11533638860E+02 0.17902382424E+02 0.30861354053E+02
 0.51025637946E+02 0.76889304781E+02 0.10465356544E+03 0.12860012413E+03 0.14260507528E+03
 0.12788421394E+03 0.12143911149E+03 0.10400811456E+03 0.80357715260E+02 0.56007530495E+02
 0.35366165440E+02 0.20852537338E+02 0.12779728462E+02 0.96182142415E+01 0.87015359442E+01
 0.84027830177E+01 0.87015899592E+01 0.96182652163E+01 0.12779731828E+02 0.20852510862E+02
 0.35366158770E+02 0.56007559644E+02 0.80357748376E+02 0.10400812081E+03 0.12143910063E+03
 0.12144225436E+03 0.12143909709E+03 0.10951889169E+03 0.89091128941E+02 0.65364082481E+02
 0.43299660584E+02 0.26261552648E+02 0.15560588454E+02 0.10525071756E+02 0.89431313277E+01
 0.83787635345E+01 0.83785665831E+01 0.89429386156E+01 0.10525271189E+02 0.15560590275E+02
 0.26260677580E+02 0.43298974352E+02 0.65366161370E+02 0.89097061155E+02 0.10952589775E+03
 0.10401279305E+03 0.10951776329E+03 0.10400811979E+03 0.89091144237E+02 0.68816454582E+02
 0.47944754922E+02 0.30352392875E+02 0.18180729319E+02 0.11630513742E+02 0.91840749439E+01
 0.83851614113E+01 0.81060499931E+01 0.83847085960E+01 0.91840407306E+01 0.11630916577E+02
 0.18180259927E+02 0.30350474020E+02 0.47943331071E+02 0.68818353339E+02 0.89096363921E+02
 0.80355657988E+02 0.89083154678E+02 0.89083847315E+02 0.80357744608E+02 0.65364074117E+02
 0.47944740292E+02 0.31876365665E+02 0.19771065642E+02 0.12555401718E+02 0.94444728526E+01
 0.84094933410E+01 0.79124050261E+01 0.79121986908E+01 0.84092867130E+01 0.94448534488E+01
 0.12556075661E+02 0.19770875676E+02 0.31874475730E+02 0.47941570495E+02 0.65360917252E+02
 0.56000951592E+02 0.65357639226E+02 0.68809783853E+02 0.65362858527E+02 0.56007530195E+02
 0.43299631860E+02 0.30352404622E+02 0.19771078608E+02 0.12916317132E+02 0.96256875217E+01
 0.84344484473E+01 0.77990562770E+01 0.75781521926E+01 0.77990673212E+01 0.84344717708E+01
 0.96261779559E+01 0.12917830787E+02 0.19772966064E+02 0.30352409830E+02 0.43295820622E+02
 0.35365477012E+02 0.43318944243E+02 0.47968292981E+02 0.47970047519E+02 0.43322086061E+02
 0.35366151093E+02 0.26261557522E+02 0.18180755487E+02 0.12555386737E+02 0.96256766955E+01
 0.84448066960E+01 0.77499423062E+01 0.73892788924E+01 0.73894685750E+01 0.77499486071E+01
 0.84441400781E+01 0.96254961979E+01 0.12557484292E+02 0.18184792648E+02 0.26264513067E+02
 0.20857183104E+02 0.26319506720E+02 0.30434745621E+02 0.31964170102E+02 0.30432830707E+02
 0.26315695951E+02 0.20852525339E+02 0.15560603181E+02 0.11630504376E+02 0.94444504579E+01
 0.84344666493E+01 0.77499511112E+01 0.73295037609E+01 0.71916183378E+01 0.73299037241E+01
 0.77494604279E+01 0.84325359610E+01 0.94425694817E+01 0.11630916577E+02 0.15563937583E+02
 0.12779535555E+02 0.15641834263E+02 0.18317597070E+02 0.19932610713E+02 0.19930535795E+02
 0.18313089507E+02 0.15638490076E+02 0.12779720374E+02 0.10525081222E+02 0.91840610535E+01
 0.84095069812E+01 0.77990746229E+01 0.73892573343E+01 0.71916109326E+01 0.71920081887E+01
 0.73899540608E+01 0.77988710490E+01 0.84073925969E+01 0.91803860391E+01 0.10521921188E+02
 0.96131683321E+01 0.10607519617E+02 0.11789707009E+02 0.12764360047E+02 0.13141269506E+02
 0.12762961434E+02 0.11789701999E+02 0.10610837931E+02 0.96182305132E+01 0.89431365543E+01
 0.83851540539E+01 0.79124167660E+01 0.75781344774E+01 0.73894536065E+01 0.73299284029E+01
 0.73899606505E+01 0.75796633603E+01 0.79142890792E+01 0.83851332380E+01 0.89397848863E+01
 0.87013777465E+01 0.90234627467E+01 0.93420351336E+01 0.96650209752E+01 0.98811983214E+01
 0.98818748612E+01 0.96672972109E+01 0.93456878384E+01 0.90266078357E+01 0.87015530193E+01
 0.83787451864E+01 0.81060463558E+01 0.79122045532E+01 0.77990586823E+01 0.77499697452E+01
 0.77494727609E+01 0.77988440642E+01 0.79142832017E+01 0.81101131696E+01 0.83819325252E+01
 0.84074552599E+01 0.84634642641E+01 0.85430050162E+01 0.86292403004E+01 0.86975863357E+01
 0.87245231797E+01 0.86994948968E+01 0.86311284801E+01 0.85426201435E+01 0.84601424512E+01
 0.84027758307E+01 0.83785530540E+01 0.83847294120E+01 0.84092906286E+01 0.84344666493E+01
 0.84441450184E+01 0.84325126376E+01 0.84073828722E+01 0.83851614113E+01 0.83819373443E+01
 0.87013497983E+01 0.84634610402E+01 0.82666028604E+01 0.81351170999E+01 0.80679846402E+01
 0.80448085959E+01 0.80452832810E+01 0.80681597230E+01 0.81330334563E+01 0.82625859637E+01
 0.84603486774E+01 0.87015790863E+01 0.89429504084E+01 0.91840509271E+01 0.94448301825E+01
 0.96261723077E+01 0.96255013759E+01 0.94425686102E+01 0.91804101260E+01 0.89397914525E+01
 0.96131450238E+01 0.90234599877E+01 0.85430308807E+01 0.81351181541E+01 0.78502516723E+01
 0.76933528235E+01 0.76449023512E+01 0.76928772992E+01 0.78487388474E+01 0.81332196021E+01
 0.85430171190E+01 0.90268200484E+01 0.96182581796E+01 0.10525277494E+02 0.11630901352E+02
 0.12556068495E+02 0.12917855967E+02 0.12557492107E+02 0.11630910717E+02 0.10521918027E+02
 0.12779542438E+02 0.10607526206E+02 0.93420558175E+01 0.86292386507E+01 0.80679627513E+01
 0.76933542801E+01 0.75139625207E+01 0.75135864318E+01 0.76926912753E+01 0.80681598449E+01
 0.86312944236E+01 0.93456616495E+01 0.10610651908E+02 0.12779730622E+02 0.15560595626E+02
 0.18180259752E+02 0.19770892584E+02 0.19772970006E+02 0.18184766306E+02 0.15563928207E+02
 0.20857209580E+02 0.15641843873E+02 0.11789699004E+02 0.96650118676E+01 0.86975700745E+01
 0.80448148546E+01 0.76449190840E+01 0.75135828315E+01 0.76445053757E+01 0.80452908005E+01
 0.86994948968E+01 0.96668913328E+01 0.11789277357E+02 0.15638487469E+02 0.20852525339E+02
 0.26260682099E+02 0.30350468812E+02 0.31874468942E+02 0.30352392875E+02 0.26264512712E+02
 0.35365492585E+02 0.26319503390E+02 0.18317571995E+02 0.12764351855E+02 0.98812073828E+01
 0.87245338111E+01 0.80452940445E+01 0.76928674487E+01 0.76926799682E+01 0.80452953053E+01
 0.87252161153E+01 0.98814142188E+01 0.12762288579E+02 0.18313566090E+02 0.26316562385E+02
 0.35366159996E+02 0.43298959005E+02 0.47943322759E+02 0.47941576813E+02 0.43295833999E+02
 0.56000943438E+02 0.43318925980E+02 0.30434733008E+02 0.19932617698E+02 0.13141291520E+02
 0.98818802380E+01 0.86994848896E+01 0.80681487752E+01 0.78487338328E+01 0.80681707860E+01
 0.86995011508E+01 0.98814105341E+01 0.13139779333E+02 0.19930732067E+02 0.30434745522E+02
 0.43322767819E+02 0.56007551189E+02 0.65366164505E+02 0.68818369397E+02 0.65360928752E+02
 0.80355641526E+02 0.65357626016E+02 0.47968303304E+02 0.31964190961E+02 0.19930543963E+02
 0.12762950975E+02 0.96672792676E+01 0.86311263614E+01 0.81330444194E+01 0.81332295111E+01
 0.86312939546E+01 0.96668824971E+01 0.12762286313E+02 0.19930733250E+02 0.31966050258E+02
 0.47971439496E+02 0.65360784793E+02 0.80357761262E+02 0.89097068936E+02 0.89096356405E+02
 0.10401278680E+03 0.89083165623E+02 0.68809799878E+02 0.47970060540E+02 0.30432818193E+02
 0.18313068170E+02 0.11789699004E+02 0.93457007635E+01 0.85426339052E+01 0.82625857447E+01
 0.85430050162E+01 0.93456538907E+01 0.11789282367E+02 0.18313569828E+02 0.30434745621E+02
 0.47971442193E+02 0.68807848043E+02 0.89077925957E+02 0.10400811979E+03 0.10952587639E+03
 0.12144225716E+03 0.10951779040E+03 0.89083850931E+02 0.65362845412E+02 0.43322071642E+02
 0.26315684873E+02 0.15638504546E+02 0.10610857891E+02 0.90266056492E+01 0.84601292328E+01
 0.84603386830E+01 0.90268206210E+01 0.10610665278E+02 0.15638492330E+02 0.26316554637E+02
 0.43322771663E+02 0.65360784887E+02 0.89077918628E+02 0.10951076666E+03 0.12143908903E+03
 0.97897914051E+02 0.92944518495E+02 0.79530554024E+02 0.61318142431E+02 0.42638951305E+02
 0.27028760431E+02 0.16403345915E+02 0.10843172704E+02 0.88291192813E+01 0.80942139757E+01
 0.78330308255E+01 0.80942599553E+01 0.88291630134E+01 0.10843175754E+02 0.16403321922E+02
 0.27028750945E+02 0.42638971547E+02 0.61318168022E+02 0.79530559688E+02 0.92944510643E+02
 0.92946706850E+02 0.92944505274E+02 0.83764801770E+02 0.68018736772E+02 0.49760703600E+02
 0.32938472203E+02 0.20251622798E+02 0.12650939998E+02 0.93459402503E+01 0.82761852526E+01
 0.77792397990E+01 0.77790671908E+01 0.82760158996E+01 0.93461628811E+01 0.12651148478E+02
 0.20251214707E+02 0.32938069417E+02 0.49762110403E+02 0.68022809492E+02 0.83769663671E+02
 0.79533821718E+02 0.83781308617E+02 0.79530558835E+02 0.68018750728E+02 0.52395098789E+02
 0.36425314598E+02 0.23212878431E+02 0.14414000993E+02 0.99898096764E+01 0.84338928890E+01
 0.77601224561E+01 0.75208231758E+01 0.77597094788E+01 0.84338147809E+01 0.99901799432E+01
 0.14413839997E+02 0.23211632639E+02 0.36424282117E+02 0.52396332641E+02 0.68022346617E+02
 0.61316750655E+02 0.68058603299E+02 0.68059065158E+02 0.61318169177E+02 0.49760695903E+02
 0.36425301347E+02 0.24324493890E+02 0.15504169100E+02 0.10548255215E+02 0.85660783085E+01
 0.77645420735E+01 0.73404835768E+01 0.73403049514E+01 0.77643153356E+01 0.85662528963E+01
 0.10548643153E+02 0.15503955114E+02 0.24323096132E+02 0.36423040402E+02 0.49758496829E+02
 0.42634448438E+02 0.49830710506E+02 0.52493026512E+02 0.49834307880E+02 0.42638951021E+02
 0.32938446200E+02 0.23212889184E+02 0.15504180771E+02 0.10770321841E+02 0.86548992875E+01
 0.77765923871E+01 0.72354725537E+01 0.70521368608E+01 0.72355324387E+01 0.77766132413E+01
 0.86551264947E+01 0.10771195365E+02 0.15505372481E+02 0.23212893718E+02 0.32935873210E+02
 0.27028355844E+02 0.33047522283E+02 0.36594535224E+02 0.36595772138E+02 0.33049709756E+02
 0.27028747480E+02 0.20251627252E+02 0.14414024577E+02 0.10548241669E+02 0.86548896181E+01
 0.77824434571E+01 0.71898017025E+01 0.68920286242E+01 0.68922424796E+01 0.71899640810E+01
 0.77820597671E+01 0.86547313930E+01 0.10549665419E+02 0.14416894181E+02 0.20253806016E+02
 0.16406583952E+02 0.20396536422E+02 0.23453490820E+02 0.24598229346E+02 0.23452242665E+02
 0.20393962152E+02 0.16403334923E+02 0.12650953342E+02 0.99898012440E+01 0.85660582269E+01
 0.77766086375E+01 0.71898094975E+01 0.68417618752E+01 0.67294870115E+01 0.68421275816E+01
 0.71895795600E+01 0.77753521616E+01 0.85648249485E+01 0.99901799432E+01 0.12653355265E+02
 0.10842956012E+02 0.12810348869E+02 0.14700803069E+02 0.15859742632E+02 0.15858334726E+02
 0.14697762951E+02 0.12808140225E+02 0.10843165486E+02 0.93459488747E+01 0.84338802584E+01
 0.77645541920E+01 0.72354888882E+01 0.68920094687E+01 0.67294804741E+01 0.67297173347E+01
 0.68924178387E+01 0.72353126961E+01 0.77631177111E+01 0.84313754413E+01 0.93437469316E+01
 0.88255133114E+01 0.94992981795E+01 0.10285298175E+02 0.10941786511E+02 0.11198031547E+02
 0.10940772195E+02 0.10285293529E+02 0.95016874313E+01 0.88291340120E+01 0.82761896994E+01
 0.77601157683E+01 0.73404942365E+01 0.70521211553E+01 0.68922292113E+01 0.68421495472E+01
 0.68924237259E+01 0.70530102685E+01 0.73417223185E+01 0.77600971509E+01 0.82738196927E+01
 0.80940759801E+01 0.84218992705E+01 0.87176086758E+01 0.89597708857E+01 0.91098532792E+01
 0.91102472877E+01 0.89611992085E+01 0.87200513013E+01 0.84240893640E+01 0.80942292710E+01
 0.77792233474E+01 0.75208202306E+01 0.73403102613E+01 0.72355246555E+01 0.71899828920E+01
 0.71895905761E+01 0.72352885784E+01 0.73417169687E+01 0.75236662333E+01 0.77814473730E+01
 0.78362928555E+01 0.79247855844E+01 0.80363278580E+01 0.81492582388E+01 0.82348792245E+01
 0.82674725589E+01 0.82361218834E+01 0.81504550051E+01 0.80359738238E+01 0.79224405246E+01
 0.78330244890E+01 0.77790552023E+01 0.77597280963E+01 0.77643186193E+01 0.77766086375E+01
 0.77820641855E+01 0.77753313073E+01 0.77631088762E+01 0.77601224561E+01 0.77814518361E+01
 0.80940507180E+01 0.79247825443E+01 0.77961916239E+01 0.77219703713E+01 0.76941453541E+01
 0.76902482014E+01 0.76906211318E+01 0.76943456372E+01 0.77205547131E+01 0.77933827894E+01
 0.79226196125E+01 0.80942499885E+01 0.82760264417E+01 0.84338237736E+01 0.85662320653E+01
 0.86551214620E+01 0.86547360298E+01 0.85648241991E+01 0.84313970645E+01 0.82738257879E+01
 0.88254922822E+01 0.84218965866E+01 0.80363513878E+01 0.77219714208E+01 0.75112368281E+01
 0.73998012322E+01 0.73664482433E+01 0.73996314218E+01 0.75103581093E+01 0.77207179709E+01
 0.80363387929E+01 0.84242733393E+01 0.88291567149E+01 0.93461686173E+01 0.99901662131E+01
 0.10548636770E+02 0.10771217951E+02 0.10549672583E+02 0.99901746455E+01 0.93437440433E+01
 0.10842962317E+02 0.94993041669E+01 0.87176274412E+01 0.81492568924E+01 0.76941253505E+01
 0.73998025317E+01 0.72618992868E+01 0.72616788432E+01 0.73994210344E+01 0.76942985074E+01
 0.81506495624E+01 0.87200777135E+01 0.95014770438E+01 0.10843174841E+02 0.12651153149E+02
 0.14413839863E+02 0.15503970383E+02 0.15505376080E+02 0.14416870463E+02 0.12653346592E+02
 0.16406607945E+02 0.12810357778E+02 0.10285290788E+02 0.89597626282E+01 0.82348644043E+01
 0.76902538400E+01 0.73664635670E+01 0.72616755039E+01 0.73660832741E+01 0.76904712695E+01
 0.82361218834E+01 0.89610018379E+01 0.10284905857E+02 0.12807933878E+02 0.16403334923E+02
 0.20251218755E+02 0.23211628104E+02 0.24323089918E+02 0.23212878431E+02 0.20253805609E+02
 0.27028369891E+02 0.20396533503E+02 0.14700780192E+02 0.10941778932E+02 0.91098616401E+01
 0.82674821838E+01 0.76906309844E+01 0.73996223794E+01 0.73994106924E+01 0.76904754834E+01
 0.82678789289E+01 0.91100407232E+01 0.10940381655E+02 0.14697933748E+02 0.20394363272E+02
 0.27028752042E+02 0.32938055660E+02 0.36424274519E+02 0.36423046055E+02 0.32935885457E+02
 0.42634440966E+02 0.33047505583E+02 0.23453479411E+02 0.15859748873E+02 0.11198051709E+02
 0.91102521799E+01 0.82361127134E+01 0.76943357379E+01 0.75103534882E+01 0.76943086118E+01
 0.82361275335E+01 0.91100372545E+01 0.11197170910E+02 0.15858554469E+02 0.23453490974E+02
 0.33050104858E+02 0.42638963791E+02 0.49762113270E+02 0.52396347098E+02 0.49758507393E+02
 0.61316735688E+02 0.49830698352E+02 0.36594544776E+02 0.24598248354E+02 0.15858342131E+02
 0.10940762729E+02 0.89611827662E+01 0.81504532475E+01 0.77205646783E+01 0.77207268864E+01
 0.81506491512E+01 0.89609936530E+01 0.10940379768E+02 0.15858555632E+02 0.24599625508E+02
 0.36596783779E+02 0.49832901137E+02 0.61318179801E+02 0.68022816553E+02 0.68022339721E+02
 0.79533816054E+02 0.68058613294E+02 0.52493041215E+02 0.36595784100E+02 0.23452231102E+02
 0.14697743585E+02 0.10285290788E+02 0.87200631205E+01 0.80359864187E+01 0.77933822994E+01
 0.80363278580E+01 0.87200707674E+01 0.10284910503E+02 0.14697937260E+02 0.23453490820E+02
 0.36596786189E+02 0.52491765432E+02 0.68055001724E+02 0.79530558835E+02 0.83769644043E+02
 0.92946709402E+02 0.83781333484E+02 0.68059068454E+02 0.49834296002E+02 0.33049696490E+02
 0.20393952056E+02 0.12808153475E+02 0.95017054615E+01 0.84240874938E+01 0.79224283794E+01
 0.79226105075E+01 0.84242741529E+01 0.95014890867E+01 0.12807938220E+02 0.20394356096E+02
 0.33050108292E+02 0.49832901413E+02 0.68054995024E+02 0.83776458628E+02 0.92944499974E+02
 0.67273937515E+02 0.63834129265E+02 0.54528120767E+02 0.41951668526E+02 0.29228319227E+02
 0.18919173997E+02 0.12308315694E+02 0.91746297300E+01 0.80468530238E+01 0.74387558130E+01
 0.72278982042E+01 0.74387933310E+01 0.80468888777E+01 0.91746321425E+01 0.12308294758E+02
 0.18919163220E+02 0.29228332286E+02 0.41951687521E+02 0.54528125709E+02 0.63834123932E+02
 0.63835377906E+02 0.63834117532E+02 0.57451942288E+02 0.46536417157E+02 0.33997807259E+02
 0.22703549033E+02 0.14565944111E+02 0.10073297318E+02 0.83041945762E+01 0.75430361518E+01