   2   2   0   0
  0.9434261E+01  0.2283400E-09  0.2283400E-09  0.4178720E-09  0.5000000E-15
  1.000000000000000E-004
  CAR 
 unknown system                          
     75.86770902     -5.20976337  301      7.83434779      1.00000000
     -5.210  0.0000E+00  0.0000E+00
     -4.940  0.0000E+00  0.0000E+00
     -4.669  0.0000E+00  0.0000E+00
     -4.399  0.0000E+00  0.0000E+00
     -4.129  0.0000E+00  0.0000E+00
     -3.858  0.0000E+00  0.0000E+00
     -3.588  0.0000E+00  0.0000E+00
     -3.318 -0.1670E-36 -0.4513E-37
     -3.048 -0.7690E-27 -0.2078E-27
     -2.777 -0.8931E-19 -0.2414E-19
     -2.507 -0.2500E-12 -0.6757E-13
     -2.237 -0.1763E-07 -0.4766E-08
     -1.967 -0.2884E-04 -0.7800E-05
     -1.696 -0.4228E-03 -0.1221E-03
     -1.426  0.8922E-02  0.2289E-02
     -1.156  0.4678E-01  0.1493E-01
     -0.886  0.1019E+00  0.4247E-01
     -0.615  0.5281E-01  0.5674E-01
     -0.345  0.1387E+00  0.9422E-01
     -0.075  0.1639E+00  0.1385E+00
      0.195  0.2000E+00  0.1926E+00
      0.466  0.8642E-01  0.2159E+00
      0.736  0.1919E+00  0.2678E+00
      1.006  0.3029E+00  0.3496E+00
      1.276  0.3035E+00  0.4317E+00
      1.547  0.3084E+00  0.5150E+00
      1.817  0.2646E+00  0.5865E+00
      2.087  0.3218E+00  0.6735E+00
      2.357  0.1001E+01  0.9440E+00
      2.628  0.1677E+01  0.1397E+01
      2.898  0.1774E+01  0.1877E+01
      3.168  0.2577E+01  0.2573E+01
      3.439  0.2277E+01  0.3188E+01
      3.709  0.2769E+01  0.3937E+01
      3.979  0.2206E+01  0.4533E+01
      4.249  0.2802E+01  0.5290E+01
      4.520  0.2781E+01  0.6042E+01
      4.790  0.3240E+01  0.6917E+01
      5.060  0.2318E+01  0.7543E+01
      5.330  0.1992E+01  0.8082E+01
      5.601  0.3055E+01  0.8908E+01
      5.871  0.3466E+01  0.9844E+01
      6.141  0.3290E+01  0.1073E+02
      6.411  0.3326E+01  0.1163E+02
      6.682  0.2716E+01  0.1237E+02
      6.952  0.3233E+01  0.1324E+02
      7.222  0.3235E+01  0.1411E+02
      7.492  0.3155E+01  0.1497E+02
      7.763  0.3070E+01  0.1580E+02
      8.033  0.2848E+01  0.1657E+02
      8.303  0.3397E+01  0.1748E+02
      8.573  0.4262E+01  0.1864E+02
      8.844  0.3925E+01  0.1970E+02
      9.114  0.3744E+01  0.2071E+02
      9.384  0.1824E+01  0.2120E+02
      9.654  0.3469E+00  0.2130E+02
      9.925  0.5139E+00  0.2143E+02
     10.195  0.3554E+00  0.2153E+02
     10.465  0.7064E+00  0.2172E+02
     10.735  0.9521E+00  0.2198E+02
     11.006  0.4259E+00  0.2209E+02
     11.276  0.3611E+00  0.2219E+02
     11.546  0.4215E+00  0.2231E+02
     11.817  0.4575E+00  0.2243E+02
     12.087  0.2818E+00  0.2251E+02
     12.357  0.4476E+00  0.2263E+02
     12.627  0.6552E+00  0.2280E+02
     12.898  0.4782E+00  0.2293E+02
     13.168  0.4564E+00  0.2306E+02
     13.438  0.4006E+00  0.2316E+02
     13.708  0.1025E+00  0.2319E+02
     13.979  0.4407E+00  0.2331E+02
     14.249  0.3098E+00  0.2339E+02
     14.519  0.3988E+00  0.2350E+02
     14.789  0.2023E+00  0.2356E+02
     15.060  0.2925E+00  0.2364E+02
     15.330  0.3143E+00  0.2372E+02
     15.600  0.5408E+00  0.2387E+02
     15.870  0.5749E+00  0.2402E+02
     16.141  0.1973E+00  0.2408E+02
     16.411  0.2112E+00  0.2413E+02
     16.681  0.1100E+00  0.2416E+02
     16.951  0.8461E-01  0.2419E+02
     17.222  0.3453E+00  0.2428E+02
     17.492  0.2630E+00  0.2435E+02
     17.762  0.1391E+00  0.2439E+02
     18.032  0.4145E+00  0.2450E+02
     18.303  0.5357E+00  0.2464E+02
     18.573  0.9020E+00  0.2489E+02
     18.843  0.1001E+01  0.2516E+02
     19.113  0.6249E+00  0.2533E+02
     19.384  0.4808E+00  0.2546E+02
     19.654  0.5110E+00  0.2560E+02
     19.924  0.6797E+00  0.2578E+02
     20.195  0.5917E+00  0.2594E+02
     20.465  0.7580E+00  0.2614E+02
     20.735  0.9817E+00  0.2641E+02
     21.005  0.5817E+00  0.2657E+02
     21.276  0.5236E+00  0.2671E+02
     21.546  0.3888E+00  0.2681E+02
     21.816  0.7689E+00  0.2702E+02
     22.086  0.7625E+00  0.2723E+02
     22.357  0.6276E+00  0.2740E+02
     22.627  0.3832E+00  0.2750E+02
     22.897  0.6202E+00  0.2767E+02
     23.167  0.6072E+00  0.2783E+02
     23.438  0.5372E+00  0.2798E+02
     23.708  0.7884E+00  0.2819E+02
     23.978  0.6618E+00  0.2837E+02
     24.248  0.5685E+00  0.2852E+02
     24.519  0.6192E+00  0.2869E+02
     24.789  0.4909E+00  0.2882E+02
     25.059  0.8041E+00  0.2904E+02
     25.329  0.1196E+01  0.2936E+02
     25.600  0.8582E+00  0.2959E+02
     25.870  0.6058E+00  0.2976E+02
     26.140  0.8641E+00  0.2999E+02
     26.410  0.9129E+00  0.3024E+02
     26.681  0.8751E+00  0.3048E+02
     26.951  0.7228E+00  0.3067E+02
     27.221  0.1022E+01  0.3095E+02
     27.491  0.9076E+00  0.3119E+02
     27.762  0.8482E+00  0.3142E+02
     28.032  0.7136E+00  0.3161E+02
     28.302  0.1114E+01  0.3192E+02
     28.573  0.1403E+01  0.3229E+02
     28.843  0.9768E+00  0.3256E+02
     29.113  0.4330E+00  0.3268E+02
     29.383  0.7910E+00  0.3289E+02
     29.654  0.8010E+00  0.3311E+02
     29.924  0.7902E+00  0.3332E+02
     30.194  0.7739E+00  0.3353E+02
     30.464  0.8324E+00  0.3375E+02
     30.735  0.8323E+00  0.3398E+02
     31.005  0.1022E+01  0.3425E+02
     31.275  0.7506E+00  0.3446E+02
     31.545  0.3672E+00  0.3456E+02
     31.816  0.6126E+00  0.3472E+02
     32.086  0.6276E+00  0.3489E+02
     32.356  0.5997E+00  0.3505E+02
     32.626  0.7178E+00  0.3525E+02
     32.897  0.7521E+00  0.3545E+02
     33.167  0.6520E+00  0.3563E+02
     33.437  0.7132E+00  0.3582E+02
     33.707  0.6381E+00  0.3599E+02
     33.978  0.7002E+00  0.3618E+02
     34.248  0.1104E+01  0.3648E+02
     34.518  0.7992E+00  0.3670E+02
     34.788  0.5392E+00  0.3684E+02
     35.059  0.5973E+00  0.3700E+02
     35.329  0.7883E+00  0.3722E+02
     35.599  0.6457E+00  0.3739E+02
     35.869  0.5654E+00  0.3754E+02
     36.140  0.1496E+01  0.3795E+02
     36.410  0.7899E+00  0.3816E+02
     36.680  0.4875E+00  0.3829E+02
     36.951  0.8162E+00  0.3851E+02
     37.221  0.1114E+01  0.3882E+02
     37.491  0.1019E+01  0.3909E+02
     37.761  0.1049E+01  0.3937E+02
     38.032  0.8823E+00  0.3961E+02
     38.302  0.1039E+01  0.3989E+02
     38.572  0.1213E+01  0.4022E+02
     38.842  0.1265E+01  0.4056E+02
     39.113  0.8442E+00  0.4079E+02
     39.383  0.8242E+00  0.4101E+02
     39.653  0.1059E+01  0.4130E+02
     39.923  0.5355E+00  0.4144E+02
     40.194  0.6087E+00  0.4161E+02
     40.464  0.8691E+00  0.4184E+02
     40.734  0.4461E+00  0.4196E+02
     41.004  0.5809E+00  0.4212E+02
     41.275  0.5311E+00  0.4227E+02
     41.545  0.1133E+01  0.4257E+02
     41.815  0.8588E+00  0.4280E+02
     42.085  0.9525E+00  0.4306E+02
     42.356  0.5401E+00  0.4321E+02
     42.626  0.6623E+00  0.4339E+02
     42.896  0.7667E+00  0.4359E+02
     43.166  0.7764E+00  0.4380E+02
     43.437  0.6436E+00  0.4398E+02
     43.707  0.7192E+00  0.4417E+02
     43.977  0.1112E+01  0.4447E+02
     44.247  0.1023E+01  0.4475E+02
     44.518  0.1209E+01  0.4508E+02
     44.788  0.1002E+01  0.4535E+02
     45.058  0.1176E+01  0.4566E+02
     45.329  0.9449E+00  0.4592E+02
     45.599  0.9588E+00  0.4618E+02
     45.869  0.1433E+01  0.4657E+02
     46.139  0.1055E+01  0.4685E+02
     46.410  0.9581E+00  0.4711E+02
     46.680  0.7806E+00  0.4732E+02
     46.950  0.1256E+01  0.4766E+02
     47.220  0.9441E+00  0.4792E+02
     47.491  0.9529E+00  0.4817E+02
     47.761  0.5906E+00  0.4833E+02
     48.031  0.7963E+00  0.4855E+02
     48.301  0.9875E+00  0.4881E+02
     48.572  0.1120E+01  0.4912E+02
     48.842  0.1076E+01  0.4941E+02
     49.112  0.8844E+00  0.4965E+02
     49.382  0.7186E+00  0.4984E+02
     49.653  0.1184E+01  0.5016E+02
     49.923  0.1234E+01  0.5049E+02
     50.193  0.7700E+00  0.5070E+02
     50.463  0.5117E+00  0.5084E+02
     50.734  0.1073E+01  0.5113E+02
     51.004  0.1154E+01  0.5144E+02
     51.274  0.1078E+01  0.5173E+02
     51.544  0.7497E+00  0.5194E+02
     51.815  0.7046E+00  0.5213E+02
     52.085  0.7566E+00  0.5233E+02
     52.355  0.1207E+01  0.5266E+02
     52.626  0.9852E+00  0.5292E+02
     52.896  0.1215E+01  0.5325E+02
     53.166  0.1321E+01  0.5361E+02
     53.436  0.1379E+01  0.5398E+02
     53.707  0.1123E+01  0.5429E+02
     53.977  0.1037E+01  0.5457E+02
     54.247  0.1338E+01  0.5493E+02
     54.517  0.1106E+01  0.5523E+02
     54.788  0.1144E+01  0.5554E+02
     55.058  0.8247E+00  0.5576E+02
     55.328  0.8845E+00  0.5600E+02
     55.598  0.9342E+00  0.5625E+02
     55.869  0.9632E+00  0.5651E+02
     56.139  0.1323E+01  0.5687E+02
     56.409  0.1280E+01  0.5721E+02
     56.679  0.1161E+01  0.5753E+02
     56.950  0.1215E+01  0.5786E+02
     57.220  0.1155E+01  0.5817E+02
     57.490  0.1423E+01  0.5855E+02
     57.760  0.1375E+01  0.5892E+02
     58.031  0.1374E+01  0.5930E+02
     58.301  0.1931E+01  0.5982E+02
     58.571  0.7260E+00  0.6001E+02
     58.841  0.1376E+01  0.6039E+02
     59.112  0.1321E+01  0.6074E+02
     59.382  0.1395E+01  0.6112E+02
     59.652  0.1744E+01  0.6159E+02
     59.922  0.1599E+01  0.6202E+02
     60.193  0.1865E+01  0.6253E+02
     60.463  0.1374E+01  0.6290E+02
     60.733  0.1568E+01  0.6332E+02
     61.004  0.1361E+01  0.6369E+02
     61.274  0.1711E+01  0.6415E+02
     61.544  0.2121E+01  0.6473E+02
     61.814  0.2313E+01  0.6535E+02
     62.085  0.2412E+01  0.6600E+02
     62.355  0.2130E+01  0.6658E+02
     62.625  0.2038E+01  0.6713E+02
     62.895  0.2412E+01  0.6778E+02
     63.166  0.1652E+01  0.6823E+02
     63.436  0.1704E+01  0.6869E+02
     63.706  0.1412E+01  0.6907E+02
     63.976  0.1517E+01  0.6948E+02
     64.247  0.1676E+01  0.6993E+02
     64.517  0.1173E+01  0.7025E+02
     64.787  0.1433E+01  0.7064E+02
     65.057  0.1735E+01  0.7111E+02
     65.328  0.1524E+01  0.7152E+02
     65.598  0.1737E+01  0.7199E+02
     65.868  0.1479E+01  0.7239E+02
     66.138  0.1479E+01  0.7279E+02
     66.409  0.1289E+01  0.7314E+02
     66.679  0.1185E+01  0.7346E+02
     66.949  0.1615E+01  0.7389E+02
     67.219  0.1733E+01  0.7436E+02
     67.490  0.1951E+01  0.7489E+02
     67.760  0.1502E+01  0.7529E+02
     68.030  0.1344E+01  0.7566E+02
     68.300  0.2041E+01  0.7621E+02
     68.571  0.1909E+01  0.7672E+02
     68.841  0.1340E+01  0.7709E+02
     69.111  0.1699E+01  0.7755E+02
     69.382  0.1033E+01  0.7783E+02
     69.652  0.1641E+01  0.7827E+02
     69.922  0.1158E+01  0.7858E+02
     70.192  0.9252E+00  0.7883E+02
     70.463  0.1620E+01  0.7927E+02
     70.733  0.1101E+01  0.7957E+02
     71.003  0.7178E+00  0.7976E+02
     71.273  0.4510E+00  0.7988E+02
     71.544  0.2119E+00  0.7994E+02
     71.814  0.1645E+00  0.7998E+02
     72.084  0.3062E-01  0.7999E+02
     72.354  0.2671E-01  0.8000E+02
     72.625 -0.2350E-04  0.8000E+02
     72.895 -0.1271E-03  0.8000E+02
     73.165 -0.9533E-07  0.8000E+02
     73.435 -0.1448E-11  0.8000E+02
     73.706  0.0000E+00  0.8000E+02
     73.976  0.0000E+00  0.8000E+02
     74.246  0.0000E+00  0.8000E+02
     74.516  0.0000E+00  0.8000E+02
     74.787  0.0000E+00  0.8000E+02
     75.057  0.0000E+00  0.8000E+02
     75.327  0.0000E+00  0.8000E+02
     75.597  0.0000E+00  0.8000E+02
     75.868  0.0000E+00  0.8000E+02
