unknown system                          
   1.00000000000000     
     3.866000    0.000000    0.000000
     0.000000    3.866000    0.000000
     0.000000    0.000000    3.866000
   Pd   Ir   Pt   Cu
     1     1     1     1
Direct
  0.000000  0.000000  0.000000
  0.500000  0.500000  0.000000
  0.500000  0.000000  0.500000
  0.000000  0.500000  0.500000
 
   24   24   24
  344.22      318.46      255.93      185.21      124.20      76.768      43.282      22.805      12.126      10.132    
  9.8257      7.1695      5.3121      7.1695      9.8257      10.132      12.126      22.805      43.282      76.768    
  124.20      185.21      255.93      318.46      318.42      294.62      236.85      171.48      115.10      71.494    
  40.962      22.191      12.372      10.646      10.522      8.2862      6.6837      8.2862      10.522      10.646    
  12.372      22.191      40.962      71.494      115.10      171.48      236.85      294.62      254.49      235.60    
  189.71      137.67      92.868      58.719      35.339      20.559      12.866      11.637      11.725      10.312    
  9.2496      10.312      11.725      11.637      12.866      20.559      35.339      58.719      92.868      137.67    
  189.71      235.60      180.64      167.49      135.46      99.040      67.810      44.580      29.016      18.571    
  13.462      12.690      12.800      12.085      11.530      12.085      12.800      12.690      13.462      18.571    
  29.016      44.580      67.810      99.040      135.46      167.49      118.00      109.76      89.634      66.723    
  47.289      33.239      23.591      17.287      14.934      15.135      15.824      16.025      15.986      16.025    
  15.824      15.135      14.934      17.287      23.591      33.239      47.289      66.723      89.634      109.76    
  72.395      67.790      56.539      43.763      33.059      25.242      19.931      17.824      18.584      20.946    
  23.706      25.872      26.693      25.872      23.706      20.946      18.584      17.824      19.931      25.242    
  33.059      43.763      56.539      67.790      41.618      39.557      34.480      28.591      23.383      19.829    
  18.908      20.773      25.014      31.143      37.940      43.418      45.539      43.418      37.940      31.143    
  25.014      20.773      18.908      19.829      23.383      28.591      34.480      39.557      22.331      21.749    
  20.191      18.267      17.017      17.580      20.595      26.184      34.534      45.021      55.912      64.409    
  67.653      64.409      55.912      45.021      34.534      26.184      20.595      17.580      17.017      18.267    
  20.191      21.749      11.866      12.089      12.539      13.098      14.538      18.136      24.510      34.053    
  46.277      59.994      73.355      83.495      87.334      83.495      73.355      59.994      46.277      34.053    
  24.510      18.136      14.538      13.098      12.539      12.089      9.4457      9.9603      10.986      12.120    
  14.588      20.245      30.040      43.563      58.925      74.694      89.634      101.11      105.52      101.11    
  89.634      74.694      58.925      43.563      30.040      20.245      14.588      12.120      10.986      9.9603    
  8.6012      9.3397      10.707      12.037      15.157      22.700      35.992      53.172      71.110      88.836    
  106.21      120.35      125.97      120.35      106.21      88.836      71.110      53.172      35.992      22.700    
  15.157      12.037      10.707      9.3397      5.6805      6.8557      9.1104      11.236      15.293      24.583    
  40.690      60.599      80.511      100.28      120.77      138.34      145.52      138.34      120.77      100.28    
  80.511      60.599      40.690      24.583      15.293      11.236      9.1104      6.8557      3.7755      5.2058    
  8.0113      10.666      15.235      25.283      42.493      63.435      84.132      104.85      126.84      146.06    
  153.98      146.06      126.84      104.85      84.132      63.435      42.493      25.283      15.235      10.666    
  8.0113      5.2058      5.6805      6.8557      9.1104      11.236      15.293      24.583      40.690      60.599    
  80.511      100.28      120.77      138.34      145.52      138.34      120.77      100.28      80.511      60.599    
  40.690      24.583      15.293      11.236      9.1104      6.8557      8.6012      9.3397      10.707      12.037    
  15.157      22.700      35.992      53.172      71.110      88.836      106.21      120.35      125.97      120.35    
  106.21      88.836      71.110      53.172      35.992      22.700      15.157      12.037      10.707      9.3397    
  9.4457      9.9603      10.986      12.120      14.588      20.245      30.040      43.563      58.925      74.694    
  89.634      101.11      105.52      101.11      89.634      74.694      58.925      43.563      30.040      20.245    
  14.588      12.120      10.986      9.9603      11.866      12.089      12.539      13.098      14.538      18.136    
  24.510      34.053      46.277      59.994      73.355      83.495      87.334      83.495      73.355      59.994    
  46.277      34.053      24.510      18.136      14.538      13.098      12.539      12.089      22.331      21.749    
  20.191      18.267      17.017      17.580      20.595      26.184      34.534      45.021      55.912      64.409    
  67.653      64.409      55.912      45.021      34.534      26.184      20.595      17.580      17.017      18.267    
  20.191      21.749      41.618      39.557      34.480      28.591      23.383      19.829      18.908      20.773    
  25.014      31.143      37.940      43.418      45.539      43.418      37.940      31.143      25.014      20.773    
  18.908      19.829      23.383      28.591      34.480      39.557      72.395      67.790      56.539      43.763    
  33.059      25.242      19.931      17.824      18.584      20.946      23.706      25.872      26.693      25.872    
  23.706      20.946      18.584      17.824      19.931      25.242      33.059      43.763      56.539      67.790    
  118.00      109.76      89.634      66.723      47.289      33.239      23.591      17.287      14.934      15.135    
  15.824      16.025      15.986      16.025      15.824      15.135      14.934      17.287      23.591      33.239    
  47.289      66.723      89.634      109.76      180.64      167.49      135.46      99.040      67.810      44.580    
  29.016      18.571      13.462      12.690      12.800      12.085      11.530      12.085      12.800      12.690    
  13.462      18.571      29.016      44.580      67.810      99.040      135.46      167.49      254.49      235.60    
  189.71      137.67      92.868      58.719      35.339      20.559      12.866      11.637      11.725      10.312    
  9.2496      10.312      11.725      11.637      12.866      20.559      35.339      58.719      92.868      137.67    
  189.71      235.60      318.42      294.62      236.85      171.48      115.10      71.494      40.962      22.191    
  12.372      10.646      10.522      8.2862      6.6837      8.2862      10.522      10.646      12.372      22.191    
  40.962      71.494      115.10      171.48      236.85      294.62      318.97      295.29      237.69      172.27    
  115.58      71.644      40.953      22.168      12.388      10.739      10.731      8.6148      7.0646      8.6148    
  10.731      10.739      12.388      22.168      40.953      71.644      115.58      172.27      237.69      295.29    
  296.27      274.28      220.77      159.97      107.39      66.887      38.859      21.585      12.594      11.171    
  11.303      9.5438      8.2142      9.5438      11.303      11.171      12.594      21.585      38.859      66.887    
  107.39      159.97      220.77      274.28      239.32      221.61      178.48      129.44      87.218      55.314    
  33.753      20.042      13.005      11.995      12.258      11.183      10.316      11.183      12.258      11.995    
  13.005      20.042      33.753      55.314      87.218      129.44      178.48      221.61      171.89      159.34    
  128.74      93.921      64.205      42.387      27.922      18.173      13.520      12.893      13.113      12.601    
  12.162      12.601      13.113      12.893      13.520      18.173      27.922      42.387      64.205      93.921    
  128.74      159.34      112.89      104.95      85.594      63.602      45.095      31.880      22.796      16.969    
  14.875      15.134      15.854      16.130      16.136      16.130      15.854      15.134      14.875      16.969    
  22.796      31.880      45.095      63.602      85.594      104.95      69.080      64.694      53.985      41.855    
  31.736      24.317      19.348      17.476      18.288      20.566      23.170      25.203      25.972      25.203    
  23.170      20.566      18.288      17.476      19.348      24.317      31.736      41.855      53.985      64.694    
  39.745      37.821      33.074      27.536      22.575      19.232      18.425      20.271      24.323      30.087    
  36.423      41.500      43.460      41.500      36.423      30.087      24.323      20.271      18.425      19.232    
  22.575      27.536      33.074      37.821      21.557      21.007      19.546      17.768      16.638      17.207    
  20.095      25.407      33.335      43.254      53.463      61.355      64.352      61.355      53.463      43.254    
  33.335      25.407      20.095      17.207      16.638      17.768      19.546      21.007      11.775      11.966    
  12.368      12.928      14.355      17.812      23.876      32.983      44.743      57.879      70.453      79.815    
  83.319      79.815      70.453      57.879      44.743      32.983      23.876      17.812      14.355      12.928    
  12.368      11.966      9.7330      10.141      10.972      11.995      14.388      19.842      29.214      42.326    
  57.397      72.673      86.626      96.950      100.84      96.950      86.626      72.673      57.397      42.326    
  29.214      19.842      14.388      11.995      10.972      10.141      9.4408      9.9785      10.950      11.995    
  14.932      22.176      34.997      51.929      69.847      87.095      103.00      115.27      120.03      115.27    
  103.00      87.095      69.847      51.929      34.997      22.176      14.932      11.995      10.950      9.9785    
  7.3777      8.2416      9.8477      11.437      15.128      23.978      39.589      59.425      79.541      98.741    
  117.17      132.08      138.03      132.08      117.17      98.741      79.541      59.425      39.589      23.978    
  15.128      11.437      9.8477      8.2416      5.9249      6.9910      9.0239      11.012      15.116      24.653    
  41.357      62.300      83.285      103.37      123.02      139.23      145.75      139.23      123.02      103.37    
  83.285      62.300      41.357      24.653      15.116      11.012      9.0239      6.9910      7.3777      8.2416    
  9.8477      11.437      15.128      23.978      39.589      59.425      79.541      98.741      117.17      132.08    
  138.03      132.08      117.17      98.741      79.541      59.425      39.589      23.978      15.128      11.437    
  9.8477      8.2416      9.4408      9.9785      10.950      11.995      14.932      22.176      34.997      51.929    
  69.847      87.095      103.00      115.27      120.03      115.27      103.00      87.095      69.847      51.929    
  34.997      22.176      14.932      11.995      10.950      9.9785      9.7330      10.141      10.972      11.995    
  14.388      19.842      29.214      42.326      57.397      72.673      86.626      96.950      100.84      96.950    
  86.626      72.673      57.397      42.326      29.214      19.842      14.388      11.995      10.972      10.141    
  11.775      11.966      12.368      12.928      14.355      17.812      23.876      32.983      44.743      57.879    
  70.453      79.815      83.319      79.815      70.453      57.879      44.743      32.983      23.876      17.812    
  14.355      12.928      12.368      11.966      21.557      21.007      19.546      17.768      16.638      17.207    
  20.095      25.407      33.335      43.254      53.463      61.355      64.352      61.355      53.463      43.254    
  33.335      25.407      20.095      17.207      16.638      17.768      19.546      21.007      39.745      37.821    
  33.074      27.536      22.575      19.232      18.425      20.271      24.323      30.087      36.423      41.500    
  43.460      41.500      36.423      30.087      24.323      20.271      18.425      19.232      22.575      27.536    
  33.074      37.821      69.080      64.694      53.985      41.855      31.736      24.317      19.348      17.476    
  18.288      20.566      23.170      25.203      25.972      25.203      23.170      20.566      18.288      17.476    
  19.348      24.317      31.736      41.855      53.985      64.694      112.89      104.95      85.594      63.602    
  45.095      31.880      22.796      16.969      14.875      15.134      15.854      16.130      16.136      16.130    
  15.854      15.134      14.875      16.969      22.796      31.880      45.095      63.602      85.594      104.95    
  171.89      159.34      128.74      93.921      64.205      42.387      27.922      18.173      13.520      12.893    
  13.113      12.601      12.162      12.601      13.113      12.893      13.520      18.173      27.922      42.387    
  64.205      93.921      128.74      159.34      239.32      221.61      178.48      129.44      87.218      55.314    
  33.753      20.042      13.005      11.995      12.258      11.183      10.316      11.183      12.258      11.995    
  13.005      20.042      33.753      55.314      87.218      129.44      178.48      221.61      296.27      274.28    
  220.77      159.97      107.39      66.887      38.859      21.585      12.594      11.171      11.303      9.5438    
  8.2142      9.5438      11.303      11.171      12.594      21.585      38.859      66.887      107.39      159.97    
  220.77      274.28      255.88      237.34      191.95      139.75      94.075      59.034      35.259      20.458    
  12.854      11.771      12.077      10.897      9.9398      10.897      12.077      11.771      12.854      20.458    
  35.259      59.034      94.075      139.75      191.95      237.34      240.22      222.73      179.94      130.79    
  87.988      55.498      33.686      19.966      12.985      12.058      12.443      11.500      10.693      11.500    
  12.443      12.058      12.985      19.966      33.686      55.498      87.988      130.79      179.94      222.73    
  199.29      184.66      148.88      107.93      72.741      46.789      29.768      18.671      13.242      12.604    
  13.029      12.524      12.026      12.524      13.029      12.604      13.242      18.671      29.768      46.789    
  72.741      107.93      148.88      184.66      147.18      136.39      110.03      80.043      54.778      36.814    
  25.057      17.116      13.600      13.255      13.603      13.440      13.218      13.440      13.603      13.255    
  13.600      17.116      25.057      36.814      54.778      80.043      110.03      136.39      97.823      90.916    
  74.070      55.052      39.348      28.372      20.714      16.126      14.675      15.061      15.804      16.198    
  16.284      16.198      15.804      15.061      14.675      16.126      20.714      28.372      39.348      55.052    
  74.070      90.916      59.698      55.988      46.948      36.760      28.278      21.904      17.861      16.566    
  17.482      19.548      21.774      23.470      24.107      23.470      21.774      19.548      17.482      16.566    
  17.861      21.904      28.278      36.760      46.948      55.988      34.748      33.188      29.308      24.661    
  20.416      17.696      17.199      18.969      22.519      27.341      32.517      36.600      38.163      36.600    
  32.517      27.341      22.519      18.969      17.199      17.696      20.416      24.661      29.308      33.188    
  19.472      19.008      17.806      16.406      15.594      16.202      18.779      23.386      30.158      38.546    
  47.012      53.419      55.820      53.419      47.012      38.546      30.158      23.386      18.779      16.202    
  15.594      16.406      17.806      19.008      11.477      11.608      11.927      12.480      13.828      16.880    
  22.146      30.048      40.449      51.976      62.591      70.130      72.867      70.130      62.591      51.976    
  40.449      30.048      22.146      16.880      13.828      12.480      11.927      11.608      10.013      10.254    
  10.797      11.669      13.851      18.694      26.853      38.655      52.681      66.597      78.271      86.060    
  88.805      86.060      78.271      66.597      52.681      38.655      26.853      18.694      13.851      11.669    
  10.797      10.254      10.310      10.560      11.012      11.737      14.326      20.713      32.035      47.857    
  65.301      81.321      94.033      102.31      105.21      102.31      94.033      81.321      65.301      47.857    
  32.035      20.713      14.326      11.737      11.012      10.560      9.5200      9.9276      10.645      11.558    
  14.613      22.288      36.217      55.218      75.339      93.187      107.20      116.45      119.74      116.45    
  107.20      93.187      75.339      55.218      36.217      22.288      14.613      11.558      10.645      9.9276    
  8.8123      9.3334      10.275      11.381      14.682      22.888      37.841      58.069      79.239      97.866    
  112.53      122.31      125.83      122.31      112.53      97.866      79.239      58.069      37.841      22.888    
  14.682      11.381      10.275      9.3334      9.5200      9.9276      10.645      11.558      14.613      22.288    
  36.217      55.218      75.339      93.187      107.20      116.45      119.74      116.45      107.20      93.187    
  75.339      55.218      36.217      22.288      14.613      11.558      10.645      9.9276      10.310      10.560    
  11.012      11.737      14.326      20.713      32.035      47.857      65.301      81.321      94.033      102.31    
  105.21      102.31      94.033      81.321      65.301      47.857      32.035      20.713      14.326      11.737    
  11.012      10.560      10.013      10.254      10.797      11.669      13.851      18.694      26.853      38.655    
  52.681      66.597      78.271      86.060      88.805      86.060      78.271      66.597      52.681      38.655    
  26.853      18.694      13.851      11.669      10.797      10.254      11.477      11.608      11.927      12.480    
  13.828      16.880      22.146      30.048      40.449      51.976      62.591      70.130      72.867      70.130    
  62.591      51.976      40.449      30.048      22.146      16.880      13.828      12.480      11.927      11.608    
  19.472      19.008      17.806      16.406      15.594      16.202      18.779      23.386      30.158      38.546    
  47.012      53.419      55.820      53.419      47.012      38.546      30.158      23.386      18.779      16.202    
  15.594      16.406      17.806      19.008      34.748      33.188      29.308      24.661      20.416      17.696    
  17.199      18.969      22.519      27.341      32.517      36.600      38.163      36.600      32.517      27.341    
  22.519      18.969      17.199      17.696      20.416      24.661      29.308      33.188      59.698      55.988    
  46.948      36.760      28.278      21.904      17.861      16.566      17.482      19.548      21.774      23.470    
  24.107      23.470      21.774      19.548      17.482      16.566      17.861      21.904      28.278      36.760    
  46.948      55.988      97.823      90.916      74.070      55.052      39.348      28.372      20.714      16.126    
  14.675      15.061      15.804      16.198      16.284      16.198      15.804      15.061      14.675      16.126    
  20.714      28.372      39.348      55.052      74.070      90.916      147.18      136.39      110.03      80.043    
  54.778      36.814      25.057      17.116      13.600      13.255      13.603      13.440      13.218      13.440    
  13.603      13.255      13.600      17.116      25.057      36.814      54.778      80.043      110.03      136.39    
  199.29      184.66      148.88      107.93      72.741      46.789      29.768      18.671      13.242      12.604    
  13.029      12.524      12.026      12.524      13.029      12.604      13.242      18.671      29.768      46.789    
  72.741      107.93      148.88      184.66      240.22      222.73      179.94      130.79      87.988      55.498    
  33.686      19.966      12.985      12.058      12.443      11.500      10.693      11.500      12.443      12.058    
  12.985      19.966      33.686      55.498      87.988      130.79      179.94      222.73      182.00      169.28    
  137.88      101.24      68.935      44.706      28.770      18.322      13.276      12.541      12.699      12.069    
  11.562      12.069      12.699      12.541      13.276      18.322      28.770      44.706      68.935      101.24    
  137.88      169.28      172.90      160.69      130.58      95.584      65.028      42.443      27.700      17.951    
  13.346      12.730      12.953      12.474      12.057      12.474      12.953      12.730      13.346      17.951    
  27.700      42.443      65.028      95.584      130.58      160.69      147.54      136.89      110.74      80.664    
  55.045      36.776      24.916      16.978      13.478      13.112      13.416      13.221      12.990      13.221    
  13.416      13.112      13.478      16.978      24.916      36.776      55.045      80.664      110.74      136.89    
  111.93      103.81      83.976      61.487      42.889      30.044      21.347      15.813      13.680      13.615    
  13.968      14.012      13.946      14.012      13.968      13.615      13.680      15.813      21.347      30.044    
  42.889      61.487      83.976      103.81      75.390      70.212      57.618      43.523      32.054      23.878    
  18.099      15.084      14.406      14.947      15.680      16.128      16.260      16.128      15.680      14.947    
  14.406      15.084      18.099      23.878      32.054      43.523      57.618      70.212      46.548      43.887    
  37.407      30.076      23.739      18.859      16.077      15.446      16.430      18.226      20.066      21.400    
  21.889      21.400      20.066      18.226      16.430      15.446      16.077      18.859      23.739      30.076    
  37.407      43.887      28.144      27.029      24.182      20.649      17.572      15.802      15.731      17.336    
  20.235      23.904      27.715      30.666      31.785      30.666      27.715      23.904      20.235      17.336    
  15.731      15.802      17.572      20.649      24.182      27.029      16.573      16.240      15.407      14.513    
  14.135      14.849      17.066      20.817      26.025      32.370      38.693      43.408      45.157      43.408    
  38.693      32.370      26.025      20.817      17.066      14.849      14.135      14.513      15.407      16.240    
  10.823      10.937      11.248      11.806      12.990      15.476      19.755      26.007      34.322      43.552    
  51.833      57.480      59.469      57.480      51.833      43.552      34.322      26.007      19.755      15.476    
  12.990      11.806      11.248      10.937      9.4053      9.6329      10.208      11.138      13.037      16.933    
  23.401      32.987      44.944      56.836      66.180      71.760      73.558      71.760      66.180      56.836    
  44.944      32.987      23.401      16.933      13.037      11.138      10.208      9.6329      9.0718      9.3534    
  10.007      11.026      13.383      18.546      27.470      40.786      56.477      70.761      80.723      85.866    
  87.334      85.866      80.723      70.761      56.477      40.786      27.470      18.546      13.383      11.026    
  10.007      9.3534      8.3073      8.7188      9.6212      10.863      13.637      19.792      30.823      47.211    
  65.876      82.030      92.514      97.403      98.663      97.403      92.514      82.030      65.876      47.211    
  30.823      19.792      13.637      10.863      9.6212      8.7188      7.8165      8.3073      9.3716      10.759    
  13.721      20.268      32.140      49.734      69.558      86.452      97.177      102.02      103.22      102.02    
  97.177      86.452      69.558      49.734      32.140      20.268      13.721      10.759      9.3716      8.3073    
  8.3073      8.7188      9.6212      10.863      13.637      19.792      30.823      47.211      65.876      82.030    
  92.514      97.403      98.663      97.403      92.514      82.030      65.876      47.211      30.823      19.792    
  13.637      10.863      9.6212      8.7188      9.0718      9.3534      10.007      11.026      13.383      18.546    
  27.470      40.786      56.477      70.761      80.723      85.866      87.334      85.866      80.723      70.761    
  56.477      40.786      27.470      18.546      13.383      11.026      10.007      9.3534      9.4053      9.6329    
  10.208      11.138      13.037      16.933      23.401      32.987      44.944      56.836      66.180      71.760    
  73.558      71.760      66.180      56.836      44.944      32.987      23.401      16.933      13.037      11.138    
  10.208      9.6329      10.823      10.937      11.248      11.806      12.990      15.476      19.755      26.007    
  34.322      43.552      51.833      57.480      59.469      57.480      51.833      43.552      34.322      26.007    
  19.755      15.476      12.990      11.806      11.248      10.937      16.573      16.240      15.407      14.513    
  14.135      14.849      17.066      20.817      26.025      32.370      38.693      43.408      45.157      43.408    
  38.693      32.370      26.025      20.817      17.066      14.849      14.135      14.513      15.407      16.240    
  28.144      27.029      24.182      20.649      17.572      15.802      15.731      17.336      20.235      23.904    
  27.715      30.666      31.785      30.666      27.715      23.904      20.235      17.336      15.731      15.802    
  17.572      20.649      24.182      27.029      46.548      43.887      37.407      30.076      23.739      18.859    
  16.077      15.446      16.430      18.226      20.066      21.400      21.889      21.400      20.066      18.226    
  16.430      15.446      16.077      18.859      23.739      30.076      37.407      43.887      75.390      70.212    
  57.618      43.523      32.054      23.878      18.099      15.084      14.406      14.947      15.680      16.128    
  16.260      16.128      15.680      14.947      14.406      15.084      18.099      23.878      32.054      43.523    
  57.618      70.212      111.93      103.81      83.976      61.487      42.889      30.044      21.347      15.813    
  13.680      13.615      13.968      14.012      13.946      14.012      13.968      13.615      13.680      15.813    
  21.347      30.044      42.889      61.487      83.976      103.81      147.54      136.89      110.74      80.664    
  55.045      36.776      24.916      16.978      13.478      13.112      13.416      13.221      12.990      13.221    
  13.416      13.112      13.478      16.978      24.916      36.776      55.045      80.664      110.74      136.89    
  172.90      160.69      130.58      95.584      65.028      42.443      27.700      17.951      13.346      12.730    
  12.953      12.474      12.057      12.474      12.953      12.730      13.346      17.951      27.700      42.443    
  65.028      95.584      130.58      160.69      118.51      110.58      90.888      67.769      47.593      32.959    
  23.144      16.879      14.590      14.785      15.447      15.653      15.626      15.653      15.447      14.785    
  14.590      16.879      23.144      32.959      47.593      67.769      90.888      110.58      113.25      105.57    
  86.558      64.388      45.278      31.598      22.380      16.588      14.549      14.800      15.482      15.744    
  15.753      15.744      15.482      14.800      14.549      16.588      22.380      31.598      45.278      64.388    
  86.558      105.57      97.921      91.143      74.462      55.335      39.321      28.121      20.391      15.825    
  14.410      14.785      15.488      15.851      15.927      15.851      15.488      14.785      14.410      15.825    
  20.391      28.121      39.321      55.335      74.462      91.143      75.356      70.209      57.648      43.513    
  31.962      23.727      17.923      14.913      14.252      14.798      15.526      15.968      16.098      15.968    
  15.526      14.798      14.252      14.913      17.923      23.727      31.962      43.513      57.648      70.209    
  51.805      48.627      40.914      32.284      25.040      19.401      15.799      14.332      14.450      15.331    
  16.282      16.924      17.141      16.924      16.282      15.331      14.450      14.332      15.799      19.401    
  25.040      32.284      40.914      48.627      33.452      31.870      27.960      23.303      19.046      16.038    
  14.581      14.550      15.578      17.168      18.784      19.956      20.381      19.956      18.784      17.168    