unknown system                          
   1.00000000000000     
     3.866000    0.000000    0.000000
     0.000000    3.866000    0.000000
     0.000000    0.000000    3.866000
   Pd   Ir   Pt   Cu
     1     1     1     1
Direct
  0.000000  0.000000  0.000000
  0.500000  0.500000  0.000000
  0.500000  0.000000  0.500000
  0.000000  0.500000  0.500000
 
   24   24   24
 0.34422023273E+03 0.31845940652E+03 0.25592948842E+03 0.18521147459E+03 0.12419794416E+03
 0.76768466992E+02 0.43281618573E+02 0.22805300617E+02 0.12126362904E+02 0.10131668001E+02
 0.98257241893E+01 0.71695160275E+01 0.53121460422E+01 0.71695160275E+01 0.98257241893E+01
 0.10131668001E+02 0.12126362904E+02 0.22805300617E+02 0.43281618573E+02 0.76768466992E+02
 0.12419794416E+03 0.18521147459E+03 0.25592948842E+03 0.31845940652E+03 0.31841856727E+03
 0.29462461549E+03 0.23685211159E+03 0.17147739085E+03 0.11510253032E+03 0.71493673398E+02
 0.40962233979E+02 0.22190765870E+02 0.12372138872E+02 0.10645689949E+02 0.10522097419E+02
 0.82862413334E+01 0.66837065192E+01 0.82862413334E+01 0.10522097419E+02 0.10645689949E+02
 0.12372138872E+02 0.22190765870E+02 0.40962233979E+02 0.71493673398E+02 0.11510253032E+03
 0.17147739085E+03 0.23685211159E+03 0.29462461549E+03 0.25448542819E+03 0.23560257110E+03
 0.18970586620E+03 0.13767013480E+03 0.92868434076E+02 0.58719218425E+02 0.35339156896E+02
 0.20558900631E+02 0.12866074082E+02 0.11636796006E+02 0.11725457011E+02 0.10311807271E+02
 0.92496070102E+01 0.10311807271E+02 0.11725457011E+02 0.11636796006E+02 0.12866074082E+02
 0.20558900631E+02 0.35339156896E+02 0.58719218425E+02 0.92868434076E+02 0.13767013480E+03
 0.18970586620E+03 0.23560257110E+03 0.18064321695E+03 0.16749187858E+03 0.13546178215E+03
 0.99039926474E+02 0.67809859792E+02 0.44579874723E+02 0.29015840574E+02 0.18571093232E+02
 0.13461575657E+02 0.12690492271E+02 0.12800203080E+02 0.12084777936E+02 0.11529582710E+02
 0.12084777936E+02 0.12800203080E+02 0.12690492271E+02 0.13461575657E+02 0.18571093232E+02
 0.29015840574E+02 0.44579874723E+02 0.67809859792E+02 0.99039926474E+02 0.13546178215E+03
 0.16749187858E+03 0.11800364123E+03 0.10975863971E+03 0.89634410662E+02 0.66723413901E+02
 0.47288890931E+02 0.33239057289E+02 0.23590745885E+02 0.17286982954E+02 0.14934369435E+02
 0.15135218972E+02 0.15824321939E+02 0.16025124864E+02 0.15985649900E+02 0.16025124864E+02
 0.15824321939E+02 0.15135218972E+02 0.14934369435E+02 0.17286982954E+02 0.23590745885E+02
 0.33239057289E+02 0.47288890931E+02 0.66723413901E+02 0.89634410662E+02 0.10975863971E+03
 0.72395452679E+02 0.67789967227E+02 0.56538611774E+02 0.43762605681E+02 0.33058758245E+02
 0.25242092233E+02 0.19930616271E+02 0.17824465324E+02 0.18583599397E+02 0.20946161674E+02
 0.23705620645E+02 0.25872452535E+02 0.26692987052E+02 0.25872452535E+02 0.23705620645E+02
 0.20946161674E+02 0.18583599397E+02 0.17824465324E+02 0.19930616271E+02 0.25242092233E+02
 0.33058758245E+02 0.43762605681E+02 0.56538611774E+02 0.67789967227E+02 0.41618296706E+02
 0.39557142170E+02 0.34479610398E+02 0.28591425219E+02 0.23383146514E+02 0.19829265098E+02
 0.18908458864E+02 0.20772602526E+02 0.25014406031E+02 0.31143354155E+02 0.37939638443E+02
 0.43417823326E+02 0.45539413554E+02 0.43417823326E+02 0.37939638443E+02 0.31143354155E+02
 0.25014406031E+02 0.20772602526E+02 0.18908458864E+02 0.19829265098E+02 0.23383146514E+02
 0.28591425219E+02 0.34479610398E+02 0.39557142170E+02 0.22330864597E+02 0.21749403253E+02
 0.20190763736E+02 0.18267383165E+02 0.17017361335E+02 0.17580469228E+02 0.20595295542E+02
 0.26183589061E+02 0.34533940086E+02 0.45021150794E+02 0.55912264357E+02 0.64408774331E+02
 0.67653497830E+02 0.64408774331E+02 0.55912264357E+02 0.45021150794E+02 0.34533940086E+02
 0.26183589061E+02 0.20595295542E+02 0.17580469228E+02 0.17017361335E+02 0.18267383165E+02
 0.20190763736E+02 0.21749403253E+02 0.11865787704E+02 0.12089438712E+02 0.12538724987E+02
 0.13098458686E+02 0.14538333354E+02 0.18135923605E+02 0.24510326267E+02 0.34053372146E+02
 0.46276663346E+02 0.59994290442E+02 0.73354955262E+02 0.83494609895E+02 0.87334001989E+02
 0.83494609895E+02 0.73354955262E+02 0.59994290442E+02 0.46276663346E+02 0.34053372146E+02
 0.24510326267E+02 0.18135923605E+02 0.14538333354E+02 0.13098458686E+02 0.12538724987E+02
 0.12089438712E+02 0.94457036389E+01 0.99602815512E+01 0.10985811800E+02 0.12120475162E+02
 0.14587936733E+02 0.20244917983E+02 0.30040377991E+02 0.43562707465E+02 0.58924739388E+02
 0.74693951526E+02 0.89633935324E+02 0.10110999192E+03 0.10552302856E+03 0.10110999192E+03
 0.89633935324E+02 0.74693951526E+02 0.58924739388E+02 0.43562707465E+02 0.30040377991E+02
 0.20244917983E+02 0.14587936733E+02 0.12120475162E+02 0.10985811800E+02 0.99602815512E+01
 0.86012106193E+01 0.93396793782E+01 0.10707471187E+02 0.12037247867E+02 0.15157476872E+02
 0.22700015534E+02 0.35992373554E+02 0.53171642461E+02 0.71109846718E+02 0.88836152693E+02
 0.10621392364E+03 0.12034641327E+03 0.12597393291E+03 0.12034641327E+03 0.10621392364E+03
 0.88836152693E+02 0.71109846718E+02 0.53171642461E+02 0.35992373554E+02 0.22700015534E+02
 0.15157476872E+02 0.12037247867E+02 0.10707471187E+02 0.93396793782E+01 0.56805407109E+01
 0.68557463705E+01 0.91104481451E+01 0.11235827340E+02 0.15293177547E+02 0.24582610846E+02
 0.40690245526E+02 0.60598698276E+02 0.80510880063E+02 0.10027900809E+03 0.12077107029E+03
 0.13834140564E+03 0.14552247283E+03 0.13834140564E+03 0.12077107029E+03 0.10027900809E+03
 0.80510880063E+02 0.60598698276E+02 0.40690245526E+02 0.24582610846E+02 0.15293177547E+02
 0.11235827340E+02 0.91104481451E+01 0.68557463705E+01 0.37754536342E+01 0.52057600842E+01
 0.80113246246E+01 0.10665829818E+02 0.15234776242E+02 0.25283130294E+02 0.42492566843E+02
 0.63434546532E+02 0.84132451180E+02 0.10484633266E+03 0.12684314340E+03 0.14605867254E+03
 0.15397711705E+03 0.14605867254E+03 0.12684314340E+03 0.10484633266E+03 0.84132451180E+02
 0.63434546532E+02 0.42492566843E+02 0.25283130294E+02 0.15234776242E+02 0.10665829818E+02
 0.80113246246E+01 0.52057600842E+01 0.56805407109E+01 0.68557463705E+01 0.91104481451E+01
 0.11235827340E+02 0.15293177547E+02 0.24582610846E+02 0.40690245526E+02 0.60598698276E+02
 0.80510880063E+02 0.10027900809E+03 0.12077107029E+03 0.13834140564E+03 0.14552247283E+03
 0.13834140564E+03 0.12077107029E+03 0.10027900809E+03 0.80510880063E+02 0.60598698276E+02
 0.40690245526E+02 0.24582610846E+02 0.15293177547E+02 0.11235827340E+02 0.91104481451E+01
 0.68557463705E+01 0.86012106193E+01 0.93396793782E+01 0.10707471187E+02 0.12037247867E+02
 0.15157476872E+02 0.22700015534E+02 0.35992373554E+02 0.53171642461E+02 0.71109846718E+02
 0.88836152693E+02 0.10621392364E+03 0.12034641327E+03 0.12597393291E+03 0.12034641327E+03
 0.10621392364E+03 0.88836152693E+02 0.71109846718E+02 0.53171642461E+02 0.35992373554E+02
 0.22700015534E+02 0.15157476872E+02 0.12037247867E+02 0.10707471187E+02 0.93396793782E+01
 0.94457036389E+01 0.99602815512E+01 0.10985811800E+02 0.12120475162E+02 0.14587936733E+02
 0.20244917983E+02 0.30040377991E+02 0.43562707465E+02 0.58924739388E+02 0.74693951526E+02
 0.89633935324E+02 0.10110999192E+03 0.10552302856E+03 0.10110999192E+03 0.89633935324E+02
 0.74693951526E+02 0.58924739388E+02 0.43562707465E+02 0.30040377991E+02 0.20244917983E+02
 0.14587936733E+02 0.12120475162E+02 0.10985811800E+02 0.99602815512E+01 0.11865787704E+02
 0.12089438712E+02 0.12538724987E+02 0.13098458686E+02 0.14538333354E+02 0.18135923605E+02
 0.24510326267E+02 0.34053372146E+02 0.46276663346E+02 0.59994290442E+02 0.73354955262E+02
 0.83494609895E+02 0.87334001989E+02 0.83494609895E+02 0.73354955262E+02 0.59994290442E+02
 0.46276663346E+02 0.34053372146E+02 0.24510326267E+02 0.18135923605E+02 0.14538333354E+02
 0.13098458686E+02 0.12538724987E+02 0.12089438712E+02 0.22330864597E+02 0.21749403253E+02
 0.20190763736E+02 0.18267383165E+02 0.17017361335E+02 0.17580469228E+02 0.20595295542E+02
 0.26183589061E+02 0.34533940086E+02 0.45021150794E+02 0.55912264357E+02 0.64408774331E+02
 0.67653497830E+02 0.64408774331E+02 0.55912264357E+02 0.45021150794E+02 0.34533940086E+02
 0.26183589061E+02 0.20595295542E+02 0.17580469228E+02 0.17017361335E+02 0.18267383165E+02
 0.20190763736E+02 0.21749403253E+02 0.41618296706E+02 0.39557142170E+02 0.34479610398E+02
 0.28591425219E+02 0.23383146514E+02 0.19829265098E+02 0.18908458864E+02 0.20772602526E+02
 0.25014406031E+02 0.31143354155E+02 0.37939638443E+02 0.43417823326E+02 0.45539413554E+02
 0.43417823326E+02 0.37939638443E+02 0.31143354155E+02 0.25014406031E+02 0.20772602526E+02
 0.18908458864E+02 0.19829265098E+02 0.23383146514E+02 0.28591425219E+02 0.34479610398E+02
 0.39557142170E+02 0.72395452679E+02 0.67789967227E+02 0.56538611774E+02 0.43762605681E+02
 0.33058758245E+02 0.25242092233E+02 0.19930616271E+02 0.17824465324E+02 0.18583599397E+02
 0.20946161674E+02 0.23705620645E+02 0.25872452535E+02 0.26692987052E+02 0.25872452535E+02
 0.23705620645E+02 0.20946161674E+02 0.18583599397E+02 0.17824465324E+02 0.19930616271E+02
 0.25242092233E+02 0.33058758245E+02 0.43762605681E+02 0.56538611774E+02 0.67789967227E+02
 0.11800364123E+03 0.10975863971E+03 0.89634410662E+02 0.66723413901E+02 0.47288890931E+02
 0.33239057289E+02 0.23590745885E+02 0.17286982954E+02 0.14934369435E+02 0.15135218972E+02
 0.15824321939E+02 0.16025124864E+02 0.15985649900E+02 0.16025124864E+02 0.15824321939E+02
 0.15135218972E+02 0.14934369435E+02 0.17286982954E+02 0.23590745885E+02 0.33239057289E+02
 0.47288890931E+02 0.66723413901E+02 0.89634410662E+02 0.10975863971E+03 0.18064321695E+03
 0.16749187858E+03 0.13546178215E+03 0.99039926474E+02 0.67809859792E+02 0.44579874723E+02
 0.29015840574E+02 0.18571093232E+02 0.13461575657E+02 0.12690492271E+02 0.12800203080E+02
 0.12084777936E+02 0.11529582710E+02 0.12084777936E+02 0.12800203080E+02 0.12690492271E+02
 0.13461575657E+02 0.18571093232E+02 0.29015840574E+02 0.44579874723E+02 0.67809859792E+02
 0.99039926474E+02 0.13546178215E+03 0.16749187858E+03 0.25448542819E+03 0.23560257110E+03
 0.18970586620E+03 0.13767013480E+03 0.92868434076E+02 0.58719218425E+02 0.35339156896E+02
 0.20558900631E+02 0.12866074082E+02 0.11636796006E+02 0.11725457011E+02 0.10311807271E+02
 0.92496070102E+01 0.10311807271E+02 0.11725457011E+02 0.11636796006E+02 0.12866074082E+02
 0.20558900631E+02 0.35339156896E+02 0.58719218425E+02 0.92868434076E+02 0.13767013480E+03
 0.18970586620E+03 0.23560257110E+03 0.31841856727E+03 0.29462461549E+03 0.23685211159E+03
 0.17147739085E+03 0.11510253032E+03 0.71493673398E+02 0.40962233979E+02 0.22190765870E+02
 0.12372138872E+02 0.10645689949E+02 0.10522097419E+02 0.82862413334E+01 0.66837065192E+01
 0.82862413334E+01 0.10522097419E+02 0.10645689949E+02 0.12372138872E+02 0.22190765870E+02
 0.40962233979E+02 0.71493673398E+02 0.11510253032E+03 0.17147739085E+03 0.23685211159E+03
 0.29462461549E+03 0.31896745155E+03 0.29529065876E+03 0.23769444533E+03 0.17226674468E+03
 0.11558192600E+03 0.71643649033E+02 0.40953320646E+02 0.22167863104E+02 0.12388309518E+02
 0.10738600426E+02 0.10731114134E+02 0.86147691661E+01 0.70646347687E+01 0.86147691661E+01
 0.10731114134E+02 0.10738600426E+02 0.12388309518E+02 0.22167863104E+02 0.40953320646E+02
 0.71643649033E+02 0.11558192600E+03 0.17226674468E+03 0.23769444533E+03 0.29529065876E+03
 0.29626996365E+03 0.27427911597E+03 0.22077083143E+03 0.15997424339E+03 0.10738563412E+03
 0.66886560738E+02 0.38859484087E+02 0.21584941619E+02 0.12594079765E+02 0.11171013088E+02
 0.11303457774E+02 0.95438456838E+01 0.82141813687E+01 0.95438456838E+01 0.11303457774E+02
 0.11171013088E+02 0.12594079765E+02 0.21584941619E+02 0.38859484087E+02 0.66886560738E+02
 0.10738563412E+03 0.15997424339E+03 0.22077083143E+03 0.27427911597E+03 0.23931946988E+03
 0.22160765235E+03 0.17847615397E+03 0.12943633601E+03 0.87217906717E+02 0.55313711161E+02
 0.33752604491E+02 0.20042484837E+02 0.13005033246E+02 0.11994947399E+02 0.12258340199E+02
 0.11182835767E+02 0.10315962131E+02 0.11182835767E+02 0.12258340199E+02 0.11994947399E+02
 0.13005033246E+02 0.20042484837E+02 0.33752604491E+02 0.55313711161E+02 0.87217906717E+02
 0.12943633601E+03 0.17847615397E+03 0.22160765235E+03 0.17189193576E+03 0.15934122781E+03
 0.12873839621E+03 0.93921115231E+02 0.64204754481E+02 0.42387140632E+02 0.27921614585E+02
 0.18172681331E+02 0.13519792504E+02 0.12893453161E+02 0.13112853873E+02 0.12600880329E+02
 0.12161651054E+02 0.12600880329E+02 0.13112853873E+02 0.12893453161E+02 0.13519792504E+02
 0.18172681331E+02 0.27921614585E+02 0.42387140632E+02 0.64204754481E+02 0.93921115231E+02
 0.12873839621E+03 0.15934122781E+03 0.11288528273E+03 0.10495351982E+03 0.85594225833E+02
 0.63601776972E+02 0.45094690676E+02 0.31879658488E+02 0.22795838743E+02 0.16969134258E+02
 0.14874626961E+02 0.15134166595E+02 0.15853855986E+02 0.16130298021E+02 0.16136479698E+02
 0.16130298021E+02 0.15853855986E+02 0.15134166595E+02 0.14874626961E+02 0.16969134258E+02
 0.22795838743E+02 0.31879658488E+02 0.45094690676E+02 0.63601776972E+02 0.85594225833E+02
 0.10495351982E+03 0.69080358034E+02 0.64693654896E+02 0.53984530763E+02 0.41855222107E+02
 0.31735866508E+02 0.24316813457E+02 0.19348360198E+02 0.17476411807E+02 0.18287754077E+02
 0.20565675598E+02 0.23169599720E+02 0.25202834904E+02 0.25972073673E+02 0.25202834904E+02
 0.23169599720E+02 0.20565675598E+02 0.18287754077E+02 0.17476411807E+02 0.19348360198E+02
 0.24316813457E+02 0.31735866508E+02 0.41855222107E+02 0.53984530763E+02 0.64693654896E+02
 0.39745163428E+02 0.37821196664E+02 0.33074185560E+02 0.27535812357E+02 0.22574966557E+02
 0.19232472179E+02 0.18424888585E+02 0.20271349981E+02 0.24322558933E+02 0.30087089885E+02
 0.36423334193E+02 0.41500267231E+02 0.43460371057E+02 0.41500267231E+02 0.36423334193E+02
 0.30087089885E+02 0.24322558933E+02 0.20271349981E+02 0.18424888585E+02 0.19232472179E+02
 0.22574966557E+02 0.27535812357E+02 0.33074185560E+02 0.37821196664E+02 0.21557422597E+02
 0.21007172926E+02 0.19545920761E+02 0.17768116883E+02 0.16638433165E+02 0.17207428127E+02
 0.20094909863E+02 0.25407012722E+02 0.33335332692E+02 0.43253652090E+02 0.53463020208E+02
 0.61354975492E+02 0.64352405317E+02 0.61354975492E+02 0.53463020208E+02 0.43253652090E+02
 0.33335332692E+02 0.25407012722E+02 0.20094909863E+02 0.17207428127E+02 0.16638433165E+02
 0.17768116883E+02 0.19545920761E+02 0.21007172926E+02 0.11775369206E+02 0.11965904120E+02
 0.12368166188E+02 0.12928055524E+02 0.14355344712E+02 0.17812164981E+02 0.23876131668E+02
 0.32982716096E+02 0.44743290940E+02 0.57879023665E+02 0.70452950160E+02 0.79814762740E+02
 0.83318985241E+02 0.79814762740E+02 0.70452950160E+02 0.57879023665E+02 0.44743290940E+02
 0.32982716096E+02 0.23876131668E+02 0.17812164981E+02 0.14355344712E+02 0.12928055524E+02
 0.12368166188E+02 0.11965904120E+02 0.97330444940E+01 0.10141383862E+02 0.10971595649E+02
 0.11994818609E+02 0.14387539442E+02 0.19842494149E+02 0.29213910115E+02 0.42326348186E+02
 0.57397232627E+02 0.72673394560E+02 0.86626490101E+02 0.96949752039E+02 0.10083661786E+03
 0.96949752039E+02 0.86626490101E+02 0.72673394560E+02 0.57397232627E+02 0.42326348186E+02
 0.29213910115E+02 0.19842494149E+02 0.14387539442E+02 0.11994818609E+02 0.10971595649E+02
 0.10141383862E+02 0.94408376007E+01 0.99784846364E+01 0.10949609986E+02 0.11994914854E+02
 0.14932436694E+02 0.22176158941E+02 0.34997155564E+02 0.51928627382E+02 0.69847132981E+02
 0.87095360229E+02 0.10300378803E+03 0.11527063269E+03 0.12002917732E+03 0.11527063269E+03
 0.10300378803E+03 0.87095360229E+02 0.69847132981E+02 0.51928627382E+02 0.34997155564E+02
 0.22176158941E+02 0.14932436694E+02 0.11994914854E+02 0.10949609986E+02 0.99784846364E+01
 0.73776708097E+01 0.82416333672E+01 0.98477356058E+01 0.11436568502E+02 0.15128013882E+02
 0.23977797717E+02 0.39589374863E+02 0.59425410971E+02 0.79541485310E+02 0.98740977873E+02
 0.11716725361E+03 0.13208188452E+03 0.13802550112E+03 0.13208188452E+03 0.11716725361E+03
 0.98740977873E+02 0.79541485310E+02 0.59425410971E+02 0.39589374863E+02 0.23977797717E+02
 0.15128013882E+02 0.11436568502E+02 0.98477356058E+01 0.82416333672E+01 0.59249258550E+01
 0.69909962524E+01 0.90238916930E+01 0.11011669440E+02 0.15116424506E+02 0.24653470710E+02
 0.41356773704E+02 0.62299964738E+02 0.83285053338E+02 0.10336979336E+03 0.12302388033E+03
 0.13923167221E+03 0.14575050705E+03 0.13923167221E+03 0.12302388033E+03 0.10336979336E+03
 0.83285053338E+02 0.62299964738E+02 0.41356773704E+02 0.24653470710E+02 0.15116424506E+02
 0.11011669440E+02 0.90238916930E+01 0.69909962524E+01 0.73776708097E+01 0.82416333672E+01
 0.98477356058E+01 0.11436568502E+02 0.15128013882E+02 0.23977797717E+02 0.39589374863E+02
 0.59425410971E+02 0.79541485310E+02 0.98740977873E+02 0.11716725361E+03 0.13208188452E+03
 0.13802550112E+03 0.13208188452E+03 0.11716725361E+03 0.98740977873E+02 0.79541485310E+02
 0.59425410971E+02 0.39589374863E+02 0.23977797717E+02 0.15128013882E+02 0.11436568502E+02
 0.98477356058E+01 0.82416333672E+01 0.94408376007E+01 0.99784846364E+01 0.10949609986E+02
 0.11994914854E+02 0.14932436694E+02 0.22176158941E+02 0.34997155564E+02 0.51928627382E+02
 0.69847132981E+02 0.87095360229E+02 0.10300378803E+03 0.11527063269E+03 0.12002917732E+03
 0.11527063269E+03 0.10300378803E+03 0.87095360229E+02 0.69847132981E+02 0.51928627382E+02
 0.34997155564E+02 0.22176158941E+02 0.14932436694E+02 0.11994914854E+02 0.10949609986E+02
 0.99784846364E+01 0.97330444940E+01 0.10141383862E+02 0.10971595649E+02 0.11994818609E+02
 0.14387539442E+02 0.19842494149E+02 0.29213910115E+02 0.42326348186E+02 0.57397232627E+02
 0.72673394560E+02 0.86626490101E+02 0.96949752039E+02 0.10083661786E+03 0.96949752039E+02
 0.86626490101E+02 0.72673394560E+02 0.57397232627E+02 0.42326348186E+02 0.29213910115E+02
 0.19842494149E+02 0.14387539442E+02 0.11994818609E+02 0.10971595649E+02 0.10141383862E+02
 0.11775369206E+02 0.11965904120E+02 0.12368166188E+02 0.12928055524E+02 0.14355344712E+02
 0.17812164981E+02 0.23876131668E+02 0.32982716096E+02 0.44743290940E+02 0.57879023665E+02
 0.70452950160E+02 0.79814762740E+02 0.83318985241E+02 0.79814762740E+02 0.70452950160E+02
 0.57879023665E+02 0.44743290940E+02 0.32982716096E+02 0.23876131668E+02 0.17812164981E+02
 0.14355344712E+02 0.12928055524E+02 0.12368166188E+02 0.11965904120E+02 0.21557422597E+02
 0.21007172926E+02 0.19545920761E+02 0.17768116883E+02 0.16638433165E+02 0.17207428127E+02
 0.20094909863E+02 0.25407012722E+02 0.33335332692E+02 0.43253652090E+02 0.53463020208E+02
 0.61354975492E+02 0.64352405317E+02 0.61354975492E+02 0.53463020208E+02 0.43253652090E+02
 0.33335332692E+02 0.25407012722E+02 0.20094909863E+02 0.17207428127E+02 0.16638433165E+02
 0.17768116883E+02 0.19545920761E+02 0.21007172926E+02 0.39745163428E+02 0.37821196664E+02
 0.33074185560E+02 0.27535812357E+02 0.22574966557E+02 0.19232472179E+02 0.18424888585E+02
 0.20271349981E+02 0.24322558933E+02 0.30087089885E+02 0.36423334193E+02 0.41500267231E+02
 0.43460371057E+02 0.41500267231E+02 0.36423334193E+02 0.30087089885E+02 0.24322558933E+02
 0.20271349981E+02 0.18424888585E+02 0.19232472179E+02 0.22574966557E+02 0.27535812357E+02
 0.33074185560E+02 0.37821196664E+02 0.69080358034E+02 0.64693654896E+02 0.53984530763E+02
 0.41855222107E+02 0.31735866508E+02 0.24316813457E+02 0.19348360198E+02 0.17476411807E+02
 0.18287754077E+02 0.20565675598E+02 0.23169599720E+02 0.25202834904E+02 0.25972073673E+02
 0.25202834904E+02 0.23169599720E+02 0.20565675598E+02 0.18287754077E+02 0.17476411807E+02
 0.19348360198E+02 0.24316813457E+02 0.31735866508E+02 0.41855222107E+02 0.53984530763E+02
 0.64693654896E+02 0.11288528273E+03 0.10495351982E+03 0.85594225833E+02 0.63601776972E+02
 0.45094690676E+02 0.31879658488E+02 0.22795838743E+02 0.16969134258E+02 0.14874626961E+02
 0.15134166595E+02 0.15853855986E+02 0.16130298021E+02 0.16136479698E+02 0.16130298021E+02
 0.15853855986E+02 0.15134166595E+02 0.14874626961E+02 0.16969134258E+02 0.22795838743E+02
 0.31879658488E+02 0.45094690676E+02 0.63601776972E+02 0.85594225833E+02 0.10495351982E+03
 0.17189193576E+03 0.15934122781E+03 0.12873839621E+03 0.93921115231E+02 0.64204754481E+02
 0.42387140632E+02 0.27921614585E+02 0.18172681331E+02 0.13519792504E+02 0.12893453161E+02
 0.13112853873E+02 0.12600880329E+02 0.12161651054E+02 0.12600880329E+02 0.13112853873E+02
 0.12893453161E+02 0.13519792504E+02 0.18172681331E+02 0.27921614585E+02 0.42387140632E+02
 0.64204754481E+02 0.93921115231E+02 0.12873839621E+03 0.15934122781E+03 0.23931946988E+03
 0.22160765235E+03 0.17847615397E+03 0.12943633601E+03 0.87217906717E+02 0.55313711161E+02
 0.33752604491E+02 0.20042484837E+02 0.13005033246E+02 0.11994947399E+02 0.12258340199E+02
 0.11182835767E+02 0.10315962131E+02 0.11182835767E+02 0.12258340199E+02 0.11994947399E+02
 0.13005033246E+02 0.20042484837E+02 0.33752604491E+02 0.55313711161E+02 0.87217906717E+02
 0.12943633601E+03 0.17847615397E+03 0.22160765235E+03 0.29626996365E+03 0.27427911597E+03
 0.22077083143E+03 0.15997424339E+03 0.10738563412E+03 0.66886560738E+02 0.38859484087E+02
 0.21584941619E+02 0.12594079765E+02 0.11171013088E+02 0.11303457774E+02 0.95438456838E+01
 0.82141813687E+01 0.95438456838E+01 0.11303457774E+02 0.11171013088E+02 0.12594079765E+02
 0.21584941619E+02 0.38859484087E+02 0.66886560738E+02 0.10738563412E+03 0.15997424339E+03
 0.22077083143E+03 0.27427911597E+03 0.25588099198E+03 0.23733824692E+03 0.19194820929E+03
 0.13975354723E+03 0.94075328176E+02 0.59033718044E+02 0.35259270042E+02 0.20457783236E+02
 0.12854061041E+02 0.11771049289E+02 0.12077105567E+02 0.10896809437E+02 0.99397627080E+01
 0.10896809437E+02 0.12077105567E+02 0.11771049289E+02 0.12854061041E+02 0.20457783236E+02
 0.35259270042E+02 0.59033718044E+02 0.94075328176E+02 0.13975354723E+03 0.19194820929E+03
 0.23733824692E+03 0.24021525611E+03 0.22273177451E+03 0.17993906017E+03 0.13079076133E+03
 0.87988280933E+02 0.55498315592E+02 0.33686084428E+02 0.19965582737E+02 0.12984584345E+02
 0.12058276865E+02 0.12442907832E+02 0.11499592951E+02 0.10693011853E+02 0.11499592951E+02
 0.12442907832E+02 0.12058276865E+02 0.12984584345E+02 0.19965582737E+02 0.33686084428E+02
 0.55498315592E+02 0.87988280933E+02 0.13079076133E+03 0.17993906017E+03 0.22273177451E+03
 0.19928821946E+03 0.18466215236E+03 0.14887834996E+03 0.10792547458E+03 0.72740916659E+02
 0.46789357640E+02 0.29768408577E+02 0.18671041480E+02 0.13242206854E+02 0.12603823133E+02
 0.13028925503E+02 0.12523692563E+02 0.12026218582E+02 0.12523692563E+02 0.13028925503E+02
 0.12603823133E+02 0.13242206854E+02 0.18671041480E+02 0.29768408577E+02 0.46789357640E+02
 0.72740916659E+02 0.10792547458E+03 0.14887834996E+03 0.18466215236E+03 0.14717765989E+03
 0.13639208052E+03 0.11003323983E+03 0.80043334176E+02 0.54777942185E+02 0.36814430127E+02
 0.25057493966E+02 0.17116061365E+02 0.13600199856E+02 0.13254714130E+02 0.13602740554E+02
 0.13439708022E+02 0.13218495726E+02 0.13439708022E+02 0.13602740554E+02 0.13254714130E+02
 0.13600199856E+02 0.17116061365E+02 0.25057493966E+02 0.36814430127E+02 0.54777942185E+02
 0.80043334176E+02 0.11003323983E+03 0.13639208052E+03 0.97823495714E+02 0.90915992890E+02
 0.74069895054E+02 0.55052220743E+02 0.39347741329E+02 0.28372248486E+02 0.20713699629E+02
 0.16126073600E+02 0.14675288475E+02 0.15060603785E+02 0.15803728147E+02 0.16197935477E+02
 0.16283549201E+02 0.16197935477E+02 0.15803728147E+02 0.15060603785E+02 0.14675288475E+02
 0.16126073600E+02 0.20713699629E+02 0.28372248486E+02 0.39347741329E+02 0.55052220743E+02
 0.74069895054E+02 0.90915992890E+02 0.59698137789E+02 0.55987978486E+02 0.46947794224E+02
 0.36760118646E+02 0.28277799958E+02 0.21903676275E+02 0.17861137585E+02 0.16566084834E+02
 0.17481962965E+02 0.19547734253E+02 0.21773820867E+02 0.23470078675E+02 0.24106851828E+02
 0.23470078675E+02 0.21773820867E+02 0.19547734253E+02 0.17481962965E+02 0.16566084834E+02
 0.17861137585E+02 0.21903676275E+02 0.28277799958E+02 0.36760118646E+02 0.46947794224E+02
 0.55987978486E+02 0.34747849321E+02 0.33187727088E+02 0.29308412356E+02 0.24660680432E+02
 0.20416184835E+02 0.17696457804E+02 0.17198681175E+02 0.18969109400E+02 0.22518623737E+02
 0.27341082288E+02 0.32517366924E+02 0.36599695313E+02 0.38162641801E+02 0.36599695313E+02
 0.32517366924E+02 0.27341082288E+02 0.22518623737E+02 0.18969109400E+02 0.17198681175E+02
 0.17696457804E+02 0.20416184835E+02 0.24660680432E+02 0.29308412356E+02 0.33187727088E+02
 0.19472124446E+02 0.19007774283E+02 0.17805589601E+02 0.16405605160E+02 0.15594247895E+02
 0.16202118807E+02 0.18778557203E+02 0.23385685670E+02 0.30157963069E+02 0.38546037189E+02
 0.47012391342E+02 0.53418821059E+02 0.55820036523E+02 0.53418821059E+02 0.47012391342E+02
 0.38546037189E+02 0.30157963069E+02 0.23385685670E+02 0.18778557203E+02 0.16202118807E+02
 0.15594247895E+02 0.16405605160E+02 0.17805589601E+02 0.19007774283E+02 0.11477387866E+02
 0.11608030043E+02 0.11927092143E+02 0.12480183760E+02 0.13827761233E+02 0.16880317446E+02
 0.22146448414E+02 0.30048001671E+02 0.40449467323E+02 0.51976290805E+02 0.62590810796E+02
 0.70129584833E+02 0.72866786573E+02 0.70129584833E+02 0.62590810796E+02 0.51976290805E+02
 0.40449467323E+02 0.30048001671E+02 0.22146448414E+02 0.16880317446E+02 0.13827761233E+02
 0.12480183760E+02 0.11927092143E+02 0.11608030043E+02 0.10012926595E+02 0.10254426616E+02
 0.10797255580E+02 0.11668622748E+02 0.13851179529E+02 0.18694285783E+02 0.26853282703E+02
 0.38654653942E+02 0.52681149336E+02 0.66597220207E+02 0.78271276381E+02 0.86059856274E+02
 0.88804741055E+02 0.86059856274E+02 0.78271276381E+02 0.66597220207E+02 0.52681149336E+02
 0.38654653942E+02 0.26853282703E+02 0.18694285783E+02 0.13851179529E+02 0.11668622748E+02
 0.10797255580E+02 0.10254426616E+02 0.10310141897E+02 0.10560203756E+02 0.11012056462E+02
 0.11737169255E+02 0.14325873536E+02 0.20713346370E+02 0.32035336420E+02 0.47857268197E+02
 0.65301465223E+02 0.81320694809E+02 0.94033350704E+02 0.10230867753E+03 0.10521083069E+03
 0.10230867753E+03 0.94033350704E+02 0.81320694809E+02 0.65301465223E+02 0.47857268197E+02
 0.32035336420E+02 0.20713346370E+02 0.14325873536E+02 0.11737169255E+02 0.11012056462E+02
 0.10560203756E+02 0.95200157415E+01 0.99275891486E+01 0.10644663169E+02 0.11557886800E+02
 0.14612734465E+02 0.22287956205E+02 0.36217019451E+02 0.55217593695E+02 0.75338992347E+02
 0.93187261911E+02 0.10720214806E+03 0.11644926147E+03 0.11974474828E+03 0.11644926147E+03
 0.10720214806E+03 0.93187261911E+02 0.75338992347E+02 0.55217593695E+02 0.36217019451E+02
 0.22287956205E+02 0.14612734465E+02 0.11557886800E+02 0.10644663169E+02 0.99275891486E+01
 0.88122568348E+01 0.93334358249E+01 0.10275402695E+02 0.11380600880E+02 0.14682494271E+02
 0.22887713247E+02 0.37840510017E+02 0.58069470284E+02 0.79238842123E+02 0.97866199875E+02
 0.11253044797E+03 0.12231290551E+03 0.12583088484E+03 0.12231290551E+03 0.11253044797E+03
 0.97866199875E+02 0.79238842123E+02 0.58069470284E+02 0.37840510017E+02 0.22887713247E+02
 0.14682494271E+02 0.11380600880E+02 0.10275402695E+02 0.93334358249E+01 0.95200157415E+01
 0.99275891486E+01 0.10644663169E+02 0.11557886800E+02 0.14612734465E+02 0.22287956205E+02
 0.36217019451E+02 0.55217593695E+02 0.75338992347E+02 0.93187261911E+02 0.10720214806E+03
 0.11644926147E+03 0.11974474828E+03 0.11644926147E+03 0.10720214806E+03 0.93187261911E+02
 0.75338992347E+02 0.55217593695E+02 0.36217019451E+02 0.22287956205E+02 0.14612734465E+02
 0.11557886800E+02 0.10644663169E+02 0.99275891486E+01 0.10310141897E+02 0.10560203756E+02
 0.11012056462E+02 0.11737169255E+02 0.14325873536E+02 0.20713346370E+02 0.32035336420E+02
 0.47857268197E+02 0.65301465223E+02 0.81320694809E+02 0.94033350704E+02 0.10230867753E+03
 0.10521083069E+03 0.10230867753E+03 0.94033350704E+02 0.81320694809E+02 0.65301465223E+02
 0.47857268197E+02 0.32035336420E+02 0.20713346370E+02 0.14325873536E+02 0.11737169255E+02
 0.11012056462E+02 0.10560203756E+02 0.10012926595E+02 0.10254426616E+02 0.10797255580E+02
 0.11668622748E+02 0.13851179529E+02 0.18694285783E+02 0.26853282703E+02 0.38654653942E+02
 0.52681149336E+02 0.66597220207E+02 0.78271276381E+02 0.86059856274E+02 0.88804741055E+02
 0.86059856274E+02 0.78271276381E+02 0.66597220207E+02 0.52681149336E+02 0.38654653942E+02
 0.26853282703E+02 0.18694285783E+02 0.13851179529E+02 0.11668622748E+02 0.10797255580E+02
 0.10254426616E+02 0.11477387866E+02 0.11608030043E+02 0.11927092143E+02 0.12480183760E+02
 0.13827761233E+02 0.16880317446E+02 0.22146448414E+02 0.30048001671E+02 0.40449467323E+02
 0.51976290805E+02 0.62590810796E+02 0.70129584833E+02 0.72866786573E+02 0.70129584833E+02
 0.62590810796E+02 0.51976290805E+02 0.40449467323E+02 0.30048001671E+02 0.22146448414E+02
 0.16880317446E+02 0.13827761233E+02 0.12480183760E+02 0.11927092143E+02 0.11608030043E+02
 0.19472124446E+02 0.19007774283E+02 0.17805589601E+02 0.16405605160E+02 0.15594247895E+02
 0.16202118807E+02 0.18778557203E+02 0.23385685670E+02 0.30157963069E+02 0.38546037189E+02
 0.47012391342E+02 0.53418821059E+02 0.55820036523E+02 0.53418821059E+02 0.47012391342E+02
 0.38546037189E+02 0.30157963069E+02 0.23385685670E+02 0.18778557203E+02 0.16202118807E+02
 0.15594247895E+02 0.16405605160E+02 0.17805589601E+02 0.19007774283E+02 0.34747849321E+02
 0.33187727088E+02 0.29308412356E+02 0.24660680432E+02 0.20416184835E+02 0.17696457804E+02
 0.17198681175E+02 0.18969109400E+02 0.22518623737E+02 0.27341082288E+02 0.32517366924E+02
 0.36599695313E+02 0.38162641801E+02 0.36599695313E+02 0.32517366924E+02 0.27341082288E+02
 0.22518623737E+02 0.18969109400E+02 0.17198681175E+02 0.17696457804E+02 0.20416184835E+02
 0.24660680432E+02 0.29308412356E+02 0.33187727088E+02 0.59698137789E+02 0.55987978486E+02
 0.46947794224E+02 0.36760118646E+02 0.28277799958E+02 0.21903676275E+02 0.17861137585E+02
 0.16566084834E+02 0.17481962965E+02 0.19547734253E+02 0.21773820867E+02 0.23470078675E+02
 0.24106851828E+02 0.23470078675E+02 0.21773820867E+02 0.19547734253E+02 0.17481962965E+02