   4   4   0   0
  0.1444527E+02  0.3866000E-09  0.3866000E-09  0.3866000E-09  0.5000000E-15
  1.000000000000000E-004
  CAR 
 unknown system                          
     27.55742834     -1.84043216  301      8.91909237      1.00000000
     -1.840  0.0000E+00  0.0000E+00
     -1.742  0.0000E+00  0.0000E+00
     -1.644  0.0000E+00  0.0000E+00
     -1.546  0.0000E+00  0.0000E+00
     -1.448 -0.3120E-28 -0.3057E-29
     -1.350 -0.6082E-25 -0.5963E-26
     -1.252 -0.7306E-22 -0.7165E-23
     -1.154 -0.5403E-19 -0.5301E-20
     -1.056 -0.2457E-16 -0.2413E-17
     -0.958 -0.6649E-14 -0.6540E-15
     -0.861 -0.1133E-11 -0.1116E-12
     -0.763 -0.1178E-09 -0.1166E-10
     -0.665 -0.7453E-08 -0.7420E-09
     -0.567 -0.2849E-06 -0.2866E-07
     -0.469 -0.6511E-05 -0.6667E-06
     -0.371 -0.8721E-04 -0.9213E-05
     -0.273 -0.6571E-03 -0.7360E-04
     -0.175 -0.2489E-02 -0.3175E-03
     -0.077 -0.2499E-02 -0.5625E-03
      0.021  0.1278E-01  0.6900E-03
      0.119  0.4687E-01  0.5283E-02
      0.217  0.6144E-01  0.1130E-01
      0.315  0.2727E-01  0.1398E-01
      0.413 -0.4241E-02  0.1356E-01
      0.511  0.6801E-01  0.2022E-01
      0.609  0.2595E+00  0.4565E-01
      0.707  0.3678E+00  0.8169E-01
      0.805  0.2264E+00  0.1039E+00
      0.903  0.5417E-01  0.1092E+00
      1.001  0.2049E+00  0.1293E+00
      1.099  0.6140E+00  0.1894E+00
      1.197  0.7307E+00  0.2610E+00
      1.295  0.3962E+00  0.2999E+00
      1.393  0.1887E+00  0.3184E+00
      1.491  0.3828E+00  0.3559E+00
      1.589  0.5489E+00  0.4096E+00
      1.687  0.3928E+00  0.4481E+00
      1.785  0.1265E+00  0.4605E+00
      1.883  0.1141E-01  0.4617E+00
      1.981  0.1680E+00  0.4781E+00
      2.079  0.4975E+00  0.5269E+00
      2.177  0.6936E+00  0.5948E+00
      2.275  0.8698E+00  0.6801E+00
      2.373  0.1385E+01  0.8158E+00
      2.471  0.1832E+01  0.9954E+00
      2.569  0.1672E+01  0.1159E+01
      2.667  0.1026E+01  0.1260E+01
      2.765  0.5276E+00  0.1311E+01
      2.863  0.1020E+01  0.1411E+01
      2.961  0.2319E+01  0.1639E+01
      3.059  0.3105E+01  0.1943E+01
      3.157  0.2887E+01  0.2226E+01
      3.255  0.2287E+01  0.2450E+01
      3.353  0.1629E+01  0.2610E+01
      3.451  0.1681E+01  0.2774E+01
      3.549  0.3410E+01  0.3109E+01
      3.647  0.5410E+01  0.3639E+01
      3.745  0.5872E+01  0.4214E+01
      3.843  0.5691E+01  0.4772E+01
      3.941  0.6019E+01  0.5362E+01
      4.039  0.6686E+01  0.6017E+01
      4.137  0.7154E+01  0.6718E+01
      4.235  0.6760E+01  0.7380E+01
      4.333  0.5582E+01  0.7927E+01
      4.431  0.5057E+01  0.8423E+01
      4.529  0.5928E+01  0.9004E+01
      4.627  0.6972E+01  0.9687E+01
      4.725  0.6675E+01  0.1034E+02
      4.823  0.5128E+01  0.1084E+02
      4.921  0.3910E+01  0.1123E+02
      5.019  0.4014E+01  0.1162E+02
      5.117  0.4647E+01  0.1208E+02
      5.215  0.4769E+01  0.1254E+02
      5.313  0.4830E+01  0.1302E+02
      5.411  0.5733E+01  0.1358E+02
      5.509  0.7127E+01  0.1428E+02
      5.607  0.7516E+01  0.1501E+02
      5.705  0.6481E+01  0.1565E+02
      5.803  0.5541E+01  0.1619E+02
      5.901  0.6043E+01  0.1678E+02
      5.999  0.7335E+01  0.1750E+02
      6.097  0.7621E+01  0.1825E+02
      6.195  0.7203E+01  0.1895E+02
      6.293  0.8364E+01  0.1977E+02
      6.391  0.1153E+02  0.2090E+02
      6.489  0.1432E+02  0.2231E+02
      6.587  0.1404E+02  0.2368E+02
      6.685  0.1112E+02  0.2477E+02
      6.783  0.8701E+01  0.2563E+02
      6.881  0.8782E+01  0.2649E+02
      6.979  0.1039E+02  0.2750E+02
      7.077  0.1091E+02  0.2857E+02
      7.175  0.8953E+01  0.2945E+02
      7.273  0.6374E+01  0.3008E+02
      7.371  0.6088E+01  0.3067E+02
      7.469  0.7532E+01  0.3141E+02
      7.567  0.7448E+01  0.3214E+02
      7.665  0.5735E+01  0.3270E+02
      7.763  0.4917E+01  0.3318E+02
      7.861  0.5264E+01  0.3370E+02
      7.959  0.5961E+01  0.3428E+02
      8.057  0.6729E+01  0.3494E+02
      8.155  0.6637E+01  0.3559E+02
      8.253  0.5688E+01  0.3615E+02
      8.351  0.5300E+01  0.3667E+02
      8.449  0.5684E+01  0.3723E+02
      8.547  0.5870E+01  0.3780E+02
      8.645  0.5928E+01  0.3838E+02
      8.743  0.6182E+01  0.3899E+02
      8.841  0.6019E+01  0.3958E+02
      8.939  0.5299E+01  0.4010E+02
      9.037  0.4522E+01  0.4054E+02
      9.135  0.3884E+01  0.4092E+02
      9.233  0.3438E+01  0.4126E+02
      9.331  0.3084E+01  0.4156E+02
      9.429  0.2863E+01  0.4184E+02
      9.527  0.3109E+01  0.4215E+02
      9.625  0.3300E+01  0.4247E+02
      9.723  0.2562E+01  0.4272E+02
      9.821  0.1392E+01  0.4286E+02
      9.919  0.8602E+00  0.4294E+02
     10.017  0.1031E+01  0.4304E+02
     10.115  0.1205E+01  0.4316E+02
     10.213  0.1139E+01  0.4327E+02
     10.311  0.1076E+01  0.4338E+02
     10.409  0.9676E+00  0.4347E+02
     10.507  0.7155E+00  0.4354E+02
     10.605  0.5976E+00  0.4360E+02
     10.703  0.8650E+00  0.4369E+02
     10.801  0.1251E+01  0.4381E+02
     10.899  0.1547E+01  0.4396E+02
     10.997  0.1736E+01  0.4413E+02
     11.095  0.1335E+01  0.4426E+02
     11.193  0.4603E+00  0.4431E+02
     11.291  0.1041E+00  0.4432E+02
     11.389  0.5872E+00  0.4437E+02
     11.487  0.1145E+01  0.4449E+02
     11.585  0.1093E+01  0.4459E+02
     11.683  0.8168E+00  0.4467E+02
     11.781  0.7798E+00  0.4475E+02
     11.879  0.8275E+00  0.4483E+02
     11.977  0.8106E+00  0.4491E+02
     12.075  0.7051E+00  0.4498E+02
     12.173  0.4823E+00  0.4503E+02
     12.271  0.2320E+00  0.4505E+02
     12.369  0.2410E+00  0.4507E+02
     12.467  0.6554E+00  0.4514E+02
     12.565  0.1256E+01  0.4526E+02
     12.663  0.1644E+01  0.4542E+02
     12.761  0.1577E+01  0.4558E+02
     12.858  0.1301E+01  0.4570E+02
     12.956  0.1155E+01  0.4582E+02
     13.054  0.1125E+01  0.4593E+02
     13.152  0.9992E+00  0.4602E+02
     13.250  0.7401E+00  0.4610E+02
     13.348  0.5993E+00  0.4616E+02
     13.446  0.7311E+00  0.4623E+02
     13.544  0.9148E+00  0.4632E+02
     13.642  0.1002E+01  0.4641E+02
     13.740  0.1387E+01  0.4655E+02
     13.838  0.1997E+01  0.4675E+02
     13.936  0.1983E+01  0.4694E+02
     14.034  0.1455E+01  0.4708E+02
     14.132  0.9831E+00  0.4718E+02
     14.230  0.4897E+00  0.4723E+02
     14.328  0.1891E+00  0.4725E+02
     14.426  0.3683E+00  0.4728E+02
     14.524  0.6549E+00  0.4735E+02
     14.622  0.5579E+00  0.4740E+02
     14.720  0.2234E+00  0.4742E+02
     14.818  0.1524E+00  0.4744E+02
     14.916  0.3937E+00  0.4748E+02
     15.014  0.6468E+00  0.4754E+02
     15.112  0.9228E+00  0.4763E+02
     15.210  0.1249E+01  0.4775E+02
     15.308  0.1384E+01  0.4789E+02
     15.406  0.1491E+01  0.4803E+02
     15.504  0.1875E+01  0.4822E+02
     15.602  0.2262E+01  0.4844E+02
     15.700  0.2243E+01  0.4866E+02
     15.798  0.1731E+01  0.4883E+02
     15.896  0.1036E+01  0.4893E+02
     15.994  0.7419E+00  0.4900E+02
     16.092  0.1100E+01  0.4911E+02
     16.190  0.1706E+01  0.4928E+02
     16.288  0.1758E+01  0.4945E+02
     16.386  0.1032E+01  0.4955E+02
     16.484  0.2360E+00  0.4958E+02
     16.582 -0.7593E-01  0.4957E+02
     16.680  0.9440E-01  0.4958E+02
     16.778  0.8073E+00  0.4966E+02
     16.876  0.1905E+01  0.4984E+02
     16.974  0.2457E+01  0.5008E+02
     17.072  0.1908E+01  0.5027E+02
     17.170  0.8736E+00  0.5036E+02
     17.268  0.1410E+00  0.5037E+02
     17.366  0.4346E-01  0.5037E+02
     17.464  0.5534E+00  0.5043E+02
     17.562  0.1249E+01  0.5055E+02
     17.660  0.1564E+01  0.5070E+02
     17.758  0.1549E+01  0.5086E+02
     17.856  0.1925E+01  0.5104E+02
     17.954  0.2666E+01  0.5131E+02
     18.052  0.2664E+01  0.5157E+02
     18.150  0.1670E+01  0.5173E+02
     18.248  0.6792E+00  0.5180E+02
     18.346  0.4857E+00  0.5184E+02
     18.444  0.9378E+00  0.5194E+02
     18.542  0.1437E+01  0.5208E+02
     18.640  0.1715E+01  0.5225E+02
     18.738  0.1675E+01  0.5241E+02
     18.836  0.1290E+01  0.5254E+02
     18.934  0.9658E+00  0.5263E+02
     19.032  0.9766E+00  0.5273E+02
     19.130  0.9843E+00  0.5282E+02
     19.228  0.8322E+00  0.5290E+02
     19.326  0.8554E+00  0.5299E+02
     19.424  0.1210E+01  0.5311E+02
     19.522  0.1472E+01  0.5325E+02
     19.620  0.1301E+01  0.5338E+02
     19.718  0.1125E+01  0.5349E+02
     19.816  0.1588E+01  0.5364E+02
     19.914  0.2413E+01  0.5388E+02
     20.012  0.2829E+01  0.5416E+02
     20.110  0.2686E+01  0.5442E+02
     20.208  0.2096E+01  0.5463E+02
     20.306  0.1491E+01  0.5477E+02
     20.404  0.1581E+01  0.5493E+02
     20.502  0.1975E+01  0.5512E+02
     20.600  0.1717E+01  0.5529E+02
     20.698  0.1027E+01  0.5539E+02
     20.796  0.5945E+00  0.5545E+02
     20.894  0.5120E+00  0.5550E+02
     20.992  0.7724E+00  0.5557E+02
     21.090  0.1451E+01  0.5572E+02
     21.188  0.2145E+01  0.5593E+02
     21.286  0.2239E+01  0.5615E+02
     21.384  0.1945E+01  0.5634E+02
     21.482  0.1957E+01  0.5653E+02
     21.580  0.2349E+01  0.5676E+02
     21.678  0.2588E+01  0.5701E+02
     21.776  0.2347E+01  0.5724E+02
     21.874  0.1818E+01  0.5742E+02
     21.972  0.1410E+01  0.5756E+02
     22.070  0.1336E+01  0.5769E+02
     22.168  0.1559E+01  0.5784E+02
     22.266  0.1869E+01  0.5803E+02
     22.364  0.1991E+01  0.5822E+02
     22.462  0.1841E+01  0.5840E+02
     22.560  0.1347E+01  0.5853E+02
     22.658  0.7667E+00  0.5861E+02
     22.756  0.6716E+00  0.5867E+02
     22.854  0.1064E+01  0.5878E+02
     22.952  0.1494E+01  0.5892E+02
     23.050  0.1565E+01  0.5908E+02
     23.148  0.1114E+01  0.5919E+02
     23.246  0.4662E+00  0.5923E+02
     23.344  0.1872E+00  0.5925E+02
     23.442  0.3471E+00  0.5929E+02
     23.540  0.4641E+00  0.5933E+02
     23.638  0.2844E+00  0.5936E+02
     23.736  0.5693E-01  0.5936E+02
     23.834 -0.2166E-01  0.5936E+02
     23.932 -0.1507E-01  0.5936E+02
     24.030 -0.5110E-02  0.5936E+02
     24.128 -0.9856E-02  0.5936E+02
     24.226 -0.2915E-01  0.5936E+02
     24.324 -0.1983E-01  0.5935E+02
     24.422  0.1376E+00  0.5937E+02
     24.520  0.4913E+00  0.5942E+02
     24.618  0.9119E+00  0.5951E+02
     24.716  0.1161E+01  0.5962E+02
     24.814  0.9459E+00  0.5971E+02
     24.912  0.3902E+00  0.5975E+02
     25.010  0.9636E-02  0.5975E+02
     25.108 -0.7560E-01  0.5974E+02
     25.206 -0.5586E-01  0.5974E+02
     25.304  0.8250E-01  0.5975E+02
     25.402  0.4558E+00  0.5979E+02
     25.500  0.8482E+00  0.5987E+02
     25.598  0.8384E+00  0.5996E+02
     25.696  0.4386E+00  0.6000E+02
     25.794  0.7701E-01  0.6001E+02
     25.892 -0.3594E-01  0.6000E+02
     25.990 -0.2347E-01  0.6000E+02
     26.088 -0.5670E-02  0.6000E+02
     26.186 -0.7251E-03  0.6000E+02
     26.284 -0.5316E-04  0.6000E+02
     26.382 -0.2304E-05  0.6000E+02
     26.480 -0.5998E-07  0.6000E+02
     26.577 -0.9455E-09  0.6000E+02
     26.675 -0.9077E-11  0.6000E+02
     26.773 -0.5308E-13  0.6000E+02
     26.871 -0.2900E-15  0.6000E+02
     26.969  0.0000E+00  0.6000E+02
     27.067  0.0000E+00  0.6000E+02
     27.165  0.0000E+00  0.6000E+02
     27.263  0.0000E+00  0.6000E+02
     27.361  0.0000E+00  0.6000E+02
     27.459  0.0000E+00  0.6000E+02
     27.557  0.0000E+00  0.6000E+02
