    4    4    1    1
  0.1444527E+02  0.3866000E-09  0.3866000E-09  0.3866000E-09  0.5000000E-15
  1.000000000000000E-004
  CAR 
 unknown system                          
     40     27     30
 
  0.0000000E+00  0.0000000E+00  0.0000000E+00  0.8000000E-02
    1        0.159568   1.000000
    2        2.670683   1.000000
    3        3.615956   1.000000
    4        3.696052   1.000000
    5        3.832018   1.000000
    6        3.977288   1.000000
    7        4.212095   1.000000
    8        6.488505   1.000000
    9        6.541141   1.000000
   10        6.813949   1.000000
   11        7.659391   1.000000
   12        7.797127   1.000000
   13        8.429474   1.001456
   14        8.754821   0.995311
   15        8.956423   0.345050
   16        9.340233  -0.005598
   17        9.563612  -0.000025
   18        9.701447  -0.000000
   19        9.960022  -0.000000
   20       10.312888  -0.000000
   21       10.877445  -0.000000
   22       11.479180  -0.000000
   23       11.494546  -0.000000
   24       11.502163  -0.000000
   25       18.124121   0.000000
   26       18.370069   0.000000
   27       19.946748   0.000000
   28       20.376141   0.000000
   29       20.538557   0.000000
   30       20.807547   0.000000
 
  0.2000000E+00  0.0000000E+00  0.0000000E+00  0.1600000E-01
    1        0.614415   1.000000
    2        2.859152   1.000000
    3        3.666778   1.000000
    4        3.749119   1.000000
    5        3.778494   1.000000
    6        3.885007   1.000000
    7        4.420684   1.000000
    8        6.251007   1.000000
    9        6.427374   1.000000
   10        6.579074   1.000000
   11        7.286825   1.000000
   12        7.303177   1.000000
   13        7.363175   1.000000
   14        7.640082   1.000000
   15        7.746431   1.000000
   16        7.807843   1.000000
   17        8.644724   1.032751
   18        8.970354   0.290793
   19        9.108611  -0.018799
   20        9.315028  -0.008533
   21        9.745743  -0.000000
   22       10.678876  -0.000000
   23       13.166213  -0.000000
   24       13.172240  -0.000000
   25       17.944330   0.000000
   26       18.010528   0.000000
   27       20.469489   0.000000
   28       20.525193   0.000000
   29       20.669820   0.000000
   30       21.146832   0.000000
 
  0.0000000E+00  0.2000000E+00  0.0000000E+00  0.1600000E-01
    1        0.677600   1.000000
    2        2.886017   1.000000
    3        3.714611   1.000000
    4        3.725392   1.000000
    5        3.742581   1.000000
    6        3.870158   1.000000
    7        4.371323   1.000000
    8        6.405806   1.000000
    9        6.495727   1.000000
   10        6.524808   1.000000
   11        7.105551   1.000000
   12        7.241707   1.000000
   13        7.382746   1.000000
   14        7.653987   1.000000
   15        8.083860   1.000000
   16        8.624786   1.028900
   17        8.725295   1.021602
   18        8.882805   0.650778
   19        8.992094   0.212736
   20        9.134345  -0.031339
   21        9.253288  -0.019829
   22        9.708197  -0.000000
   23       13.287454  -0.000000
   24       13.417525  -0.000000
   25       17.451904   0.000000
   26       18.671270   0.000000
   27       20.401314   0.000000
   28       20.448852   0.000000
   29       20.827528   0.000000
   30       21.396992   0.000000
 
  0.0000000E+00  0.0000000E+00  0.2000000E+00  0.1600000E-01
    1        0.679529   1.000000
    2        2.876343   1.000000
    3        3.755990   1.000000
    4        3.778791   1.000000
    5        3.872917   1.000000
    6        3.879228   1.000000
    7        4.206984   1.000000
    8        6.161769   1.000000
    9        6.475445   1.000000
   10        6.599933   1.000000
   11        7.092209   1.000000
   12        7.247958   1.000000
   13        7.547658   1.000000
   14        7.763554   1.000000
   15        7.906283   1.000000
   16        8.133338   1.000000
   17        8.422680   1.001254
   18        8.951085   0.366528
   19        9.075134   0.015191
   20        9.098741  -0.011091
   21        9.732526  -0.000000
   22       10.062582  -0.000000
   23       13.247802  -0.000000
   24       13.384564  -0.000000
   25       17.103867   0.000000
   26       18.953391   0.000000
   27       20.500161   0.000000
   28       20.503574   0.000000
   29       20.903510   0.000000
   30       21.352769   0.000000
 
  0.4000000E+00  0.0000000E+00  0.0000000E+00  0.1600000E-01
    1        1.678721   1.000000
    2        3.512145   1.000000
    3        3.850282   1.000000
    4        3.942177   1.000000
    5        4.615561   1.000000
    6        4.673508   1.000000
    7        5.296923   1.000000
    8        5.726183   1.000000
    9        5.828222   1.000000
   10        5.945277   1.000000
   11        6.459604   1.000000
   12        6.487271   1.000000
   13        6.780488   1.000000
   14        7.046644   1.000000
   15        7.198718   1.000000
   16        7.238548   1.000000
   17        7.685967   1.000000
   18        7.964886   1.000000
   19        7.987927   1.000000
   20        8.485332   1.004463
   21        9.125247  -0.028033
   22       10.658083  -0.000000
   23       15.664109   0.000000
   24       15.732325   0.000000
   25       17.000111   0.000000
   26       18.005324   0.000000
   27       18.702062   0.000000
   28       18.813093   0.000000
   29       19.422860   0.000000
   30       22.148622   0.000000
 
  0.0000000E+00  0.4000000E+00  0.0000000E+00  0.1600000E-01
    1        2.042303   1.000000
    2        3.274138   1.000000
    3        3.867196   1.000000
    4        3.979196   1.000000
    5        4.535877   1.000000
    6        4.579488   1.000000
    7        5.376628   1.000000
    8        5.926503   1.000000
    9        6.081662   1.000000
   10        6.124997   1.000000
   11        6.631989   1.000000
   12        6.670471   1.000000
   13        6.739118   1.000000
   14        6.999528   1.000000
   15        7.442087   1.000000
   16        7.443469   1.000000
   17        7.454511   1.000000
   18        7.838093   1.000000
   19        8.035844   1.000000
   20        8.158133   1.000001
   21        8.779541   0.959088
   22        9.209864  -0.029651
   23       15.929185   0.000000
   24       15.952518   0.000000
   25       16.659914   0.000000
   26       18.430135   0.000000
   27       18.514015   0.000000
   28       18.662404   0.000000
   29       20.648546   0.000000
   30       21.222527   0.000000
 
  0.0000000E+00  0.0000000E+00  0.4000000E+00  0.1600000E-01
    1        2.064658   1.000000
    2        3.265678   1.000000
    3        4.044615   1.000000
    4        4.235303   1.000000
    5        4.632127   1.000000
    6        4.645237   1.000000
    7        5.034862   1.000000
    8        5.574663   1.000000
    9        5.806169   1.000000
   10        5.958433   1.000000
   11        6.562352   1.000000
   12        6.580246   1.000000
   13        6.784316   1.000000
   14        6.959588   1.000000
   15        7.241170   1.000000
   16        7.452300   1.000000
   17        7.705964   1.000000
   18        7.718219   1.000000
   19        8.056331   1.000000
   20        8.313347   1.000079
   21        8.688137   1.034629
   22       10.019073  -0.000000
   23       15.896335   0.000000
   24       15.990185   0.000000
   25       16.197616   0.000000
   26       18.494009   0.000000
   27       18.755400   0.000000
   28       18.967596   0.000000
   29       20.297865   0.000000
   30       21.498566   0.000000
 
  0.2000000E+00  0.2000000E+00  0.0000000E+00  0.3200000E-01
    1        1.110755   1.000000
    2        3.123881   1.000000
    3        3.793790   1.000000
    4        3.857565   1.000000
    5        3.971118   1.000000
    6        4.098985   1.000000
    7        4.527033   1.000000
    8        6.014477   1.000000
    9        6.330427   1.000000
   10        6.659357   1.000000
   11        6.663182   1.000000
   12        6.913381   1.000000
   13        7.103128   1.000000
   14        7.153789   1.000000
   15        7.467517   1.000000
   16        7.773197   1.000000
   17        8.028029   1.000000
   18        8.603117   1.023997
   19        8.646783   1.033080
   20        8.857024   0.749135
   21        9.607771  -0.000006
   22       10.745563  -0.000000
   23       11.792549  -0.000000
   24       14.531326   0.000000
   25       16.968029   0.000000
   26       19.174453   0.000000
   27       20.036164   0.000000
   28       20.391531   0.000000
   29       21.138652   0.000000
   30       21.746693   0.000000
 
  0.0000000E+00  0.2000000E+00  0.2000000E+00  0.3200000E-01
    1        1.145243   1.000000
    2        3.146297   1.000000
    3        3.830893   1.000000
    4        3.850344   1.000000
    5        4.012617   1.000000
    6        4.066375   1.000000
    7        4.480725   1.000000
    8        5.991787   1.000000
    9        6.388680   1.000000
   10        6.581178   1.000000
   11        6.703841   1.000000
   12        7.037607   1.000000
   13        7.089824   1.000000
   14        7.185535   1.000000
   15        7.477898   1.000000
   16        7.789212   1.000000
   17        8.065984   1.000000
   18        8.461795   1.002849
   19        8.536950   1.010553
   20        8.691179   1.034206
   21        9.457241  -0.000474
   22       10.818477  -0.000000
   23       12.143999  -0.000000
   24       14.424909   0.000000
   25       16.818855   0.000000
   26       19.231451   0.000000
   27       19.558935   0.000000
   28       20.962894   0.000000
   29       21.272852   0.000000
   30       21.858418   0.000000
 
  0.2000000E+00  0.0000000E+00  0.2000000E+00  0.3200000E-01
    1        1.110685   1.000000
    2        3.123056   1.000000
    3        3.798087   1.000000
    4        3.948311   1.000000
    5        4.015055   1.000000
    6        4.118466   1.000000
    7        4.438731   1.000000
    8        5.843296   1.000000
    9        6.446559   1.000000
   10        6.582715   1.000000
   11        6.769798   1.000000
   12        6.881937   1.000000
   13        6.999750   1.000000
   14        7.171266   1.000000
   15        7.449127   1.000000
   16        7.618503   1.000000
   17        7.845957   1.000000
   18        8.760256   0.988544
   19        8.784930   0.949268
   20        9.048669   0.059655
   21        9.728081  -0.000000
   22       10.973542  -0.000000
   23       11.449531  -0.000000
   24       14.534650   0.000000
   25       16.924949   0.000000
   26       19.094972   0.000000
   27       19.984621   0.000000
   28       20.530116   0.000000
   29       21.245484   0.000000
   30       21.871161   0.000000
 
  0.4000000E+00  0.2000000E+00  0.0000000E+00  0.3200000E-01
    1        2.140267   1.000000
    2        3.773289   1.000000
    3        4.114722   1.000000
    4        4.205986   1.000000
    5        4.699503   1.000000
    6        4.764174   1.000000
    7        5.146502   1.000000
    8        5.599884   1.000000
    9        5.609805   1.000000
   10        6.106763   1.000000
   11        6.238392   1.000000
   12        6.516040   1.000000
   13        6.838698   1.000000
   14        7.053772   1.000000
   15        7.120376   1.000000
   16        7.398966   1.000000
   17        7.468495   1.000000
   18        8.117648   1.000000
   19        8.264435   1.000019
   20        8.793757   0.931625
   21        9.307257  -0.009633
   22        9.611134  -0.000006
   23       13.087875  -0.000000
   24       15.243447   0.000000
   25       16.938471   0.000000
   26       18.132331   0.000000
   27       19.618018   0.000000
   28       19.869342   0.000000
   29       21.939890   0.000000
   30       23.127469   0.000000
 
  0.0000000E+00  0.4000000E+00  0.2000000E+00  0.3200000E-01
    1        2.380905   1.000000
    2        3.601666   1.000000
    3        4.029866   1.000000
    4        4.223462   1.000000
    5        4.559739   1.000000
    6        4.725669   1.000000
    7        5.325678   1.000000
    8        5.692373   1.000000
    9        5.709830   1.000000
   10        6.274599   1.000000
   11        6.296018   1.000000
   12        6.594769   1.000000
   13        7.018325   1.000000
   14        7.048739   1.000000
   15        7.304442   1.000000
   16        7.383692   1.000000
   17        7.493984   1.000000
   18        8.009657   1.000000
   19        8.131353   1.000000
   20        8.591564   1.021335
   21        8.796897   0.924880
   22        9.121541  -0.026351
   23       13.618431  -0.000000
   24       15.151834   0.000000
   25       16.824805   0.000000
   26       18.417696   0.000000
   27       19.414108   0.000000
   28       19.686460   0.000000
   29       21.741792   0.000000
   30       23.435248   0.000000
 
  0.2000000E+00  0.0000000E+00  0.4000000E+00  0.3200000E-01
    1        2.425298   1.000000
    2        3.606777   1.000000
    3        4.233782   1.000000
    4        4.351374   1.000000
    5        4.628564   1.000000
    6        4.895619   1.000000
    7        5.087752   1.000000
    8        5.348659   1.000000
    9        5.473956   1.000000
   10        6.204170   1.000000
   11        6.396447   1.000000
   12        6.542113   1.000000
   13        6.918445   1.000000
   14        7.077223   1.000000
   15        7.114211   1.000000
   16        7.498516   1.000000
   17        7.651659   1.000000
   18        7.837194   1.000000
   19        8.284775   1.000035
   20        8.539722   1.010996
   21        8.966677   0.304834
   22        9.213541  -0.028870
   23       13.468579  -0.000000
   24       15.198604   0.000000
   25       16.908800   0.000000
   26       18.008737   0.000000
   27       19.411595   0.000000
   28       20.214240   0.000000
   29       22.000421   0.000000
   30       23.034033   0.000000
 
 -0.2000000E+00  0.4000000E+00  0.0000000E+00  0.3200000E-01
    1        2.418179   1.000000
    2        3.587105   1.000000
    3        4.078646   1.000000
    4        4.229783   1.000000
    5        4.583283   1.000000
    6        4.698779   1.000000
    7        5.300220   1.000000
    8        5.697989   1.000000
    9        5.910322   1.000000
   10        6.241837   1.000000
   11        6.258928   1.000000
   12        6.506436   1.000000
   13        7.031096   1.000000
   14        7.092901   1.000000
   15        7.260602   1.000000
   16        7.404972   1.000000
   17        7.485952   1.000000
   18        8.048744   1.000000
   19        8.204936   1.000003
   20        8.491853   1.005024
   21        8.681135   1.035260
   22        8.951579   0.364528
   23       13.535581  -0.000000
   24       15.202911   0.000000
   25       16.898873   0.000000
   26       18.380036   0.000000
   27       19.392097   0.000000
   28       19.830511   0.000000
   29       22.036001   0.000000
   30       23.075168   0.000000
 
 -0.4000000E+00  0.0000000E+00  0.2000000E+00  0.3200000E-01
    1        2.136690   1.000000
    2        3.798078   1.000000
    3        4.089322   1.000000
    4        4.171167   1.000000
    5        4.630509   1.000000
    6        4.828807   1.000000
    7        5.201762   1.000000
    8        5.483723   1.000000
    9        5.492404   1.000000
   10        6.273160   1.000000
   11        6.358457   1.000000
   12        6.570358   1.000000
   13        6.838766   1.000000
   14        7.036212   1.000000
   15        7.110598   1.000000
   16        7.452084   1.000000
   17        7.478104   1.000000
   18        7.949521   1.000000
   19        8.387301   1.000553
   20        8.831720   0.833477
   21        9.246983  -0.021253
   22        9.560884  -0.000028
   23       13.060157  -0.000000
   24       15.298072   0.000000
   25       16.902979   0.000000
   26       18.101251   0.000000
   27       19.533421   0.000000
   28       19.799291   0.000000
   29       22.028635   0.000000
   30       23.020940   0.000000
 
  0.0000000E+00  0.2000000E+00  0.4000000E+00  0.3200000E-01
    1        2.393387   1.000000
    2        3.589189   1.000000
    3        4.232755   1.000000
    4        4.400916   1.000000
    5        4.660626   1.000000
    6        4.819829   1.000000
    7        5.049140   1.000000
    8        5.448551   1.000000
    9        5.473845   1.000000
   10        6.082872   1.000000
   11        6.260198   1.000000
   12        6.576485   1.000000
   13        6.908982   1.000000
   14        7.040629   1.000000
   15        7.166543   1.000000
   16        7.428361   1.000000
   17        7.525858   1.000000
   18        8.082066   1.000000
   19        8.250292   1.000012
   20        8.461081   1.002809
   21        9.221896  -0.027022
   22        9.343488  -0.005285
   23       13.569462  -0.000000
   24       15.089335   0.000000
   25       16.875897   0.000000
   26       18.070859   0.000000
   27       19.513550   0.000000
   28       20.132151   0.000000
   29       21.641548   0.000000
   30       23.504507   0.000000
 
  0.4000000E+00  0.4000000E+00  0.0000000E+00  0.3200000E-01
    1        3.263242   1.000000
    2        4.183943   1.000000
    3        4.400170   1.000000
    4        4.637873   1.000000
    5        4.836216   1.000000
    6        5.008949   1.000000
    7        5.074352   1.000000
    8        5.169218   1.000000
    9        5.224413   1.000000
   10        5.802830   1.000000
   11        5.972020   1.000000
   12        6.152228   1.000000
   13        6.652967   1.000000
   14        6.718440   1.000000
   15        7.039357   1.000000
   16        7.119215   1.000000
   17        7.240814   1.000000
   18        7.910340   1.000000
   19        8.201654   1.000002
   20        8.345670   1.000193
   21        8.754219   0.996021
   22        9.869360  -0.000000
   23       11.486172  -0.000000
   24       12.953685  -0.000000
   25       18.788870   0.000000
   26       19.015409   0.000000
   27       20.487241   0.000000
   28       21.196707   0.000000
   29       21.247682   0.000000
   30       21.726112   0.000000
 
  0.0000000E+00  0.4000000E+00  0.4000000E+00  0.3200000E-01
    1        3.167890   1.000000
    2        3.946536   1.000000
    3        4.322245   1.000000
    4        4.639074   1.000000
    5        4.849569   1.000000
    6        5.001287   1.000000
    7        5.019449   1.000000
    8        5.180988   1.000000
    9        5.325174   1.000000
   10        5.781186   1.000000
   11        6.087385   1.000000
   12        6.233662   1.000000
   13        6.623384   1.000000
   14        6.844213   1.000000
   15        6.961913   1.000000
   16        7.015246   1.000000
   17        7.204337   1.000000
   18        7.821233   1.000000
   19        8.435673   1.001664
   20        8.605890   1.024639
   21        8.845516   0.789202
   22        9.670450  -0.000001
   23       12.054883  -0.000000
   24       13.002347  -0.000000
   25       18.528142   0.000000
   26       18.717152   0.000000
   27       20.408024   0.000000
   28       20.476698   0.000000
   29       21.137670   0.000000
   30       22.186114   0.000000
 
  0.4000000E+00  0.0000000E+00  0.4000000E+00  0.3200000E-01
    1        3.230991   1.000000
    2        4.292108   1.000000
    3        4.412725   1.000000
    4        4.487613   1.000000
    5        4.695952   1.000000
    6        4.848956   1.000000
    7        4.948591   1.000000
    8        5.141165   1.000000
    9        5.522899   1.000000
   10        5.985885   1.000000
   11        6.084073   1.000000
   12        6.258940   1.000000
   13        6.597665   1.000000
   14        6.716243   1.000000
   15        7.043309   1.000000
   16        7.136054   1.000000
   17        7.523727   1.000000
   18        7.674407   1.000000
   19        8.049616   1.000000
   20        8.228718   1.000006
   21        8.993772   0.207102
   22       10.271981  -0.000000
   23       11.001452  -0.000000
   24       12.828781  -0.000000
   25       18.700242   0.000000
   26       18.998799   0.000000
   27       20.724260   0.000000
   28       21.042598   0.000000
   29       21.371838   0.000000
   30       21.556526   0.000000
 
  0.2000000E+00  0.2000000E+00  0.2000000E+00  0.6400000E-01
    1        1.517514   1.000000
    2        3.364056   1.000000
    3        3.983673   1.000000
    4        4.036415   1.000000
    5        4.177834   1.000000
    6        4.491868   1.000000
    7        4.629272   1.000000
    8        5.603738   1.000000
    9        6.432571   1.000000
   10        6.471260   1.000000
   11        6.585997   1.000000
   12        6.670364   1.000000
   13        6.897137   1.000000
   14        7.004603   1.000000
   15        7.125421   1.000000
   16        7.500763   1.000000
   17        7.751046   1.000000
   18        8.161321   1.000001
   19        8.399546   1.000740
   20        8.673567   1.035457
   21        9.527275  -0.000074
   22       11.700123  -0.000000
   23       12.449377  -0.000000
   24       12.667106  -0.000000
   25       17.671859   0.000000
   26       17.916064   0.000000
   27       18.590602   0.000000
   28       21.135721   0.000000
   29       21.540940   0.000000
   30       21.757038   0.000000
 
  0.4000000E+00  0.2000000E+00  0.2000000E+00  0.6400000E-01
    1        2.369701   1.000000
    2        3.736310   1.000000
    3        4.186409   1.000000
    4        4.468175   1.000000
    5        4.583038   1.000000
    6        4.735826   1.000000
    7        5.295240   1.000000
    8        5.453715   1.000000
    9        5.722439   1.000000
   10        5.983991   1.000000
   11        6.404936   1.000000
   12        6.487316   1.000000
   13        6.533230   1.000000
   14        6.886883   1.000000
   15        6.964667   1.000000
   16        7.360655   1.000000
   17        7.561798   1.000000
   18        8.030122   1.000000
   19        8.444299   1.001996
   20        8.687461   1.034711
   21        9.314479  -0.008607
   22        9.614017  -0.000005
   23       13.792877  -0.000000
   24       13.855011  -0.000000
   25       15.506500   0.000000
   26       16.300450   0.000000
   27       20.087562   0.000000
   28       21.563176   0.000000
   29       22.186076   0.000000
   30       22.430076   0.000000
 
  0.2000000E+00  0.4000000E+00  0.2000000E+00  0.6400000E-01
    1        2.570375   1.000000
    2        3.582034   1.000000
    3        4.010617   1.000000
    4        4.406909   1.000000
    5        4.683104   1.000000
    6        4.782731   1.000000
    7        5.485815   1.000000
    8        5.550689   1.000000
    9        5.702726   1.000000
   10        6.048930   1.000000
   11        6.469575   1.000000
   12        6.537125   1.000000
   13        6.689590   1.000000
   14        6.775571   1.000000
   15        6.996175   1.000000
   16        7.068142   1.000000
   17        7.852121   1.000000
   18        7.983746   1.000000
   19        8.141706   1.000000
   20        8.573000   1.017240
   21        9.064245   0.031454
   22        9.504837  -0.000138
   23       13.832607  -0.000000
   24       14.092539  -0.000000
   25       15.623578   0.000000
   26       16.096328   0.000000
   27       20.175930   0.000000
   28       21.636815   0.000000
   29       22.304171   0.000000
   30       22.440036   0.000000
 
  0.2000000E+00  0.2000000E+00  0.4000000E+00  0.6400000E-01
    1        2.578387   1.000000
    2        3.589430   1.000000
    3        4.142657   1.000000
    4        4.518043   1.000000
    5        4.598856   1.000000
    6        4.919205   1.000000
    7        5.175734   1.000000
    8        5.490287   1.000000
    9        5.632613   1.000000
   10        5.932333   1.000000
   11        6.379154   1.000000
   12        6.485313   1.000000
   13        6.637196   1.000000
   14        6.932021   1.000000
   15        6.947695   1.000000
   16        7.226733   1.000000
   17        7.748773   1.000000
   18        8.016019   1.000000
   19        8.360618   1.000284
   20        8.479389   1.003998
   21        9.210981  -0.029416
   22        9.560017  -0.000028
   23       13.821226  -0.000000
   24       14.040808  -0.000000
   25       15.586153   0.000000
   26       16.195969   0.000000
   27       20.092975   0.000000
   28       21.407728   0.000000
   29       22.264591   0.000000
   30       22.523902   0.000000
 
  0.4000000E+00  0.4000000E+00  0.2000000E+00  0.6400000E-01
    1        3.001125   1.000000
    2        3.557954   1.000000
    3        3.874729   1.000000
    4        4.263726   1.000000
    5        5.078187   1.000000
    6        5.351498   1.000000
    7        5.594488   1.000000
    8        5.770643   1.000000
    9        5.951048   1.000000
   10        6.066521   1.000000
   11        6.289550   1.000000
   12        6.411108   1.000000
   13        6.448103   1.000000
   14        6.455553   1.000000
   15        6.708402   1.000000
   16        6.818604   1.000000
   17        7.385331   1.000000
   18        8.026043   1.000000
   19        8.374763   1.000407
   20        8.770060   0.974658
   21        8.932425   0.443725
   22       10.114807  -0.000000
   23       11.435894  -0.000000
   24       12.654377  -0.000000
   25       15.752261   0.000000
   26       17.514557   0.000000
   27       17.910704   0.000000
   28       19.896733   0.000000
   29       22.871530   0.000000
   30       24.689949   0.000000
 
  0.2000000E+00  0.4000000E+00  0.4000000E+00  0.6400000E-01
    1        2.990265   1.000000
    2        3.585975   1.000000
    3        3.644653   1.000000
    4        4.250445   1.000000
    5        5.077516   1.000000
    6        5.369327   1.000000
    7        5.602172   1.000000
    8        5.819453   1.000000
    9        5.960111   1.000000
   10        6.049534   1.000000
   11        6.312112   1.000000
   12        6.337994   1.000000
   13        6.450317   1.000000
   14        6.489044   1.000000
   15        6.730350   1.000000
   16        6.805795   1.000000
   17        7.456284   1.000000
   18        8.015399   1.000000
   19        8.549853   1.012720
   20        8.733249   1.016137
   21        8.922024   0.487597
   22        9.995639  -0.000000
   23       11.922396  -0.000000
   24       12.831042  -0.000000
   25       15.489924   0.000000
   26       17.069832   0.000000
   27       17.970771   0.000000
   28       19.866243   0.000000
   29       22.947655   0.000000
   30       24.526653   0.000000
 
  0.4000000E+00  0.2000000E+00  0.4000000E+00  0.6400000E-01
    1        2.996705   1.000000
    2        3.590462   1.000000
    3        3.902229   1.000000
    4        4.095138   1.000000
    5        5.038960   1.000000
    6        5.256132   1.000000
    7        5.528844   1.000000
    8        5.994450   1.000000
    9        6.059818   1.000000
   10        6.179600   1.000000
   11        6.284183   1.000000
   12        6.380144   1.000000
   13        6.488850   1.000000
   14        6.539526   1.000000
   15        6.597870   1.000000
   16        6.861274   1.000000
   17        7.513570   1.000000
   18        7.792028   1.000000
   19        8.163596   1.000001
   20        8.921774   0.488652
   21        9.075784   0.014306
   22       10.462601  -0.000000
   23       10.986785  -0.000000
   24       12.574700  -0.000000
   25       15.732679   0.000000
   26       17.573742   0.000000
   27       17.887225   0.000000
   28       19.959785   0.000000
   29       22.747367   0.000000
   30       24.740261   0.000000
 
  0.4000000E+00  0.4000000E+00  0.4000000E+00  0.6400000E-01
    1        2.916581   1.000000
    2        3.023835   1.000000
    3        3.257556   1.000000
    4        3.645102   1.000000
    5        5.453543   1.000000
    6        5.545895   1.000000
    7        5.834382   1.000000
    8        5.924234   1.000000
    9        6.131277   1.000000
   10        6.289964   1.000000
   11        6.394190   1.000000
   12        6.514935   1.000000
   13        6.891429   1.000000
   14        6.995742   1.000000
   15        7.434005   1.000000
   16        7.598537   1.000000
   17        7.863633   1.000000
   18        8.244625   1.000010
   19        8.386851   1.000547
   20        8.771058   0.973120
   21        9.379418  -0.002682
   22       10.300220  -0.000000
   23       10.748624  -0.000000
   24       10.994917  -0.000000
   25       14.923362   0.000000
   26       15.392490   0.000000
   27       16.213500   0.000000
   28       17.714283   0.000000
   29       25.437922   0.000000
   30       25.557428   0.000000
