 vasp.6.2.0 18Jan21 (build Mar 17 2021 09:06:54) complex                        
  
 executed on             LinuxIFC date 2021.06.11  12:20:42
 serial version


--------------------------------------------------------------------------------------------------------


 INCAR:
   ENCUT = 170.000000
   SIGMA = 0.200000
   EDIFF = 1.00e-06
   GGA = PE
   PREC = normal
   IBRION = -1
   ICHARG = 1
   ISMEAR = 1
   KPAR = 1
   NBANDS = 30
   NSW = 0
   NCORE = 1
   LCHARG = .TRUE.

 POTCAR:    PAW_PBE Pd 04Jan2005                  
 POTCAR:    PAW_PBE Ir 06Sep2000                  
 POTCAR:    PAW_PBE Pt 04Feb2005                  
 POTCAR:    PAW_PBE Cu 22Jun2005                  
 POTCAR:    PAW_PBE Pd 04Jan2005                  
   SHA256 =  dd6f6f02930356371984e2b707ff5e456046761dc76b07c1eba30abd15eb3c39 Pd/POTCAR             
   COPYR  = (c) Copyright 04Jan2005 Georg Kresse                                                    
   COPYR  = This file is part of the software VASP. Any use, copying, and all other rights are regul
   COPYR  = If you do not have a valid VASP license, you may not use, copy or distribute this file. 
   VRHFIN =Pd : s1 d9                                                                               
   LEXCH  = PE                                                                                      
   EATOM  =   809.7530 eV,   59.5152 Ry                                                             
                                                                                                    
   TITEL  = PAW_PBE Pd 04Jan2005                                                                    
   LULTRA =        F    use ultrasoft PP ?                                                          
   IUNSCR =        1    unscreen: 0-lin 1-nonlin 2-no                                               
   RPACOR =    2.000    partial core radius                                                         
   POMASS =  106.420; ZVAL   =   10.000    mass and valenz                                          
   RCORE  =    2.600    outmost cutoff radius                                                       
   RWIGS  =    2.710; RWIGS  =    1.434    wigner-seitz radius (au A)                               
   ENMAX  =  250.925; ENMIN  =  188.194 eV                                                          
   ICORE  =        3    local potential                                                             
   LCOR   =        T    correct aug charges                                                         
   LPAW   =        T    paw PP                                                                      
   EAUG   =  416.230                                                                                
   DEXC   =    0.000                                                                                
   RMAX   =    2.653    core radius for proj-oper                                                   
   RAUG   =    1.300    factor for augmentation sphere                                              
   RDEP   =    2.734    radius for radial grids                                                     
   RDEPT  =    2.103    core radius for aug-charge                                                  
                                                                                                    
   Atomic configuration                                                                             
   12 entries                                                                                       
     n  l   j            E        occ.                                                              
     1  0  0.50    -24164.6631   2.0000                                                             
     2  0  0.50     -3530.9218   2.0000                                                             
     2  1  1.50     -3165.6822   6.0000                                                             
     3  0  0.50      -639.4577   2.0000                                                             
     3  1  1.50      -519.4532   6.0000                                                             
     3  2  2.50      -328.9757  10.0000                                                             
     4  0  0.50       -88.7014   2.0000                                                             
     4  1  1.50       -54.4540   6.0000                                                             
     4  2  2.50        -6.6878   9.0000                                                             
     5  0  0.50        -4.3543   1.0000                                                             
     5  1  0.50        -1.3606   0.0000                                                             
     4  3  2.50        -1.3606   0.0000                                                             
   Description                                                                                      
     l       E           TYP  RCUT    TYP  RCUT                                                     
     2     -6.6878251     23  2.400                                                                 
     2     -8.0484077     23  2.400                                                                 
     0     -4.3542939     23  2.400                                                                 
     0      4.3406793     23  2.400                                                                 
     1     -4.0817478     23  2.600                                                                 
     1     15.8380318     23  2.600                                                                 
     3     -4.0817478     23  2.400                                                                 
  local pseudopotential read in
  partial core-charges read in
  partial kinetic energy density read in
  atomic valenz-charges read in
  non local Contribution for L=           2  read in
    real space projection operators read in
  non local Contribution for L=           2  read in
    real space projection operators read in
  non local Contribution for L=           0  read in
    real space projection operators read in
  non local Contribution for L=           0  read in
    real space projection operators read in
  non local Contribution for L=           1  read in
    real space projection operators read in
  non local Contribution for L=           1  read in
    real space projection operators read in
    PAW grid and wavefunctions read in
 
   number of l-projection  operators is LMAX  =           6
   number of lm-projection operators is LMMAX =          18
 
 POTCAR:    PAW_PBE Ir 06Sep2000                  
   SHA256 =  7c6af8d4d487b237782eb51e6f62977b27a1da78c3c96acd1cebefd6c308f120 Ir/POTCAR             
   COPYR  = (c) Copyright 06Sep2000 Georg Kresse                                                    
   COPYR  = This file is part of the software VASP. Any use, copying, and all other rights are regul
   COPYR  = If you do not have a valid VASP license, you may not use, copy or distribute this file. 
   VRHFIN =Ir: s1d8                                                                                 
   LEXCH  = PE                                                                                      
   EATOM  =   560.1833 eV,   41.1723 Ry                                                             
                                                                                                    
   TITEL  = PAW_PBE Ir 06Sep2000                                                                    
   LULTRA =        F    use ultrasoft PP ?                                                          
   IUNSCR =        1    unscreen: 0-lin 1-nonlin 2-no                                               
   RPACOR =    2.250    partial core radius                                                         
   POMASS =  192.220; ZVAL   =    9.000    mass and valenz                                          
   RCORE  =    2.600    outmost cutoff radius                                                       
   RWIGS  =    2.690; RWIGS  =    1.423    wigner-seitz radius (au A)                               
   ENMAX  =  210.864; ENMIN  =  158.148 eV                                                          
   RCLOC  =    1.857    cutoff for local pot                                                        
   LCOR   =        T    correct aug charges                                                         
   LPAW   =        T    paw PP                                                                      
   EAUG   =  318.962                                                                                
   DEXC   =    0.000                                                                                
   RMAX   =    2.667    core radius for proj-oper                                                   
   RAUG   =    1.300    factor for augmentation sphere                                              
   RDEP   =    2.748    radius for radial grids                                                     
   RDEPT  =    2.300    core radius for aug-charge                                                  
                                                                                                    
   Atomic configuration                                                                             
   16 entries                                                                                       
     n  l   j            E        occ.                                                              
     1  0  0.50    -76100.0449   2.0000                                                             
     2  0  0.50    -13308.1683   2.0000                                                             
     2  1  1.50    -11558.0021   6.0000                                                             
     3  0  0.50     -3110.7274   2.0000                                                             
     3  1  1.50     -2599.2109   6.0000                                                             
     3  2  2.50     -2037.1515  10.0000                                                             
     4  0  0.50      -661.6001   2.0000                                                             
     4  1  1.50      -493.8981   6.0000                                                             
     4  2  2.50      -288.1909  10.0000                                                             
     4  3  3.50       -59.5718  14.0000                                                             
     5  0  0.50       -95.3879   2.0000                                                             
     5  1  1.50       -52.2747   6.0000                                                             
     5  2  2.50        -5.4180   8.0000                                                             
     6  0  0.50        -5.5479   1.0000                                                             
     6  1  1.50        -6.8029   0.0000                                                             
     5  3  2.50        -1.3606   0.0000                                                             
   Description                                                                                      
     l       E           TYP  RCUT    TYP  RCUT                                                     
     2     -5.4179967     23  2.600                                                                 
     2     -6.7785793     23  2.600                                                                 
     0     -5.5478636     23  2.600                                                                 
     0      2.2542272     23  2.600                                                                 
     1     -2.7211652     23  2.600                                                                 
     1     20.4087390     23  2.600                                                                 
  local pseudopotential read in
  partial core-charges read in
  partial kinetic energy density read in
  atomic valenz-charges read in
  non local Contribution for L=           2  read in
    real space projection operators read in
  non local Contribution for L=           2  read in
    real space projection operators read in
  non local Contribution for L=           0  read in
    real space projection operators read in
  non local Contribution for L=           0  read in
    real space projection operators read in
  non local Contribution for L=           1  read in
    real space projection operators read in
  non local Contribution for L=           1  read in
    real space projection operators read in
    PAW grid and wavefunctions read in
 
   number of l-projection  operators is LMAX  =           6
   number of lm-projection operators is LMMAX =          18
 
 POTCAR:    PAW_PBE Pt 04Feb2005                  
   SHA256 =  3ed90460adef76debcff1cfb73ee1349b515b1a3db03439735b44de3a8db7dc8 Pt/POTCAR             
   COPYR  = (c) Copyright 04Feb2005 Georg Kresse                                                    
   COPYR  = This file is part of the software VASP. Any use, copying, and all other rights are regul
   COPYR  = If you do not have a valid VASP license, you may not use, copy or distribute this file. 
   VRHFIN =Pt: s1d9                                                                                 
   LEXCH  = PE                                                                                      
   EATOM  =   729.1176 eV,   53.5886 Ry                                                             
                                                                                                    
   TITEL  = PAW_PBE Pt 04Feb2005                                                                    
   LULTRA =        F    use ultrasoft PP ?                                                          
   IUNSCR =        1    unscreen: 0-lin 1-nonlin 2-no                                               
   RPACOR =    2.330    partial core radius                                                         
   POMASS =  195.080; ZVAL   =   10.000    mass and valenz                                          
   RCORE  =    2.600    outmost cutoff radius                                                       
   RWIGS  =    2.750; RWIGS  =    1.455    wigner-seitz radius (au A)                               
   ENMAX  =  230.283; ENMIN  =  172.712 eV                                                          
   ICORE  =        3    local potential                                                             
   LCOR   =        T    correct aug charges                                                         
   LPAW   =        T    paw PP                                                                      
   EAUG   =  358.966                                                                                
   DEXC   =    0.000                                                                                
   RMAX   =    2.658    core radius for proj-oper                                                   
   RAUG   =    1.300    factor for augmentation sphere                                              
   RDEP   =    2.761    radius for radial grids                                                     
   RDEPT  =    2.203    core radius for aug-charge                                                  
                                                                                                    
   Atomic configuration                                                                             
   16 entries                                                                                       
     n  l   j            E        occ.                                                              
     1  0  0.50    -78401.1885   2.0000                                                             
     2  0  0.50    -13770.7750   2.0000                                                             
     2  1  1.50    -11931.0468   6.0000                                                             
     3  0  0.50     -3234.7234   2.0000                                                             
     3  1  1.50     -2699.2216   6.0000                                                             
     3  2  2.50     -2119.5714  10.0000                                                             
     4  0  0.50      -695.1528   2.0000                                                             
     4  1  1.50      -519.6034   6.0000                                                             
     4  2  2.50      -306.6786  10.0000                                                             
     4  3  3.50       -70.1041  14.0000                                                             
     5  0  0.50      -101.7747   2.0000                                                             
     5  1  1.50       -55.9873   6.0000                                                             
     5  2  2.50        -6.1423   9.0000                                                             
     6  0  0.50        -5.6573   1.0000                                                             
     6  1  1.50        -6.8029   0.0000                                                             
     5  3  2.50        -1.3606   0.0000                                                             
   Description                                                                                      
     l       E           TYP  RCUT    TYP  RCUT                                                     
     2     -6.1423404     23  2.500                                                                 
     2     -7.5029230     23  2.500                                                                 
     0     -5.6573207     23  2.500                                                                 
     0      0.7416693     23  2.500                                                                 
     1     -2.7211652     23  2.600                                                                 
     1     20.4087390     23  2.600                                                                 
     3     -1.3605826     23  2.500                                                                 
  local pseudopotential read in
  partial core-charges read in
  partial kinetic energy density read in
  atomic valenz-charges read in
  non local Contribution for L=           2  read in
    real space projection operators read in
  non local Contribution for L=           2  read in
    real space projection operators read in
  non local Contribution for L=           0  read in
    real space projection operators read in
  non local Contribution for L=           0  read in
    real space projection operators read in
  non local Contribution for L=           1  read in
    real space projection operators read in
  non local Contribution for L=           1  read in
    real space projection operators read in
    PAW grid and wavefunctions read in
 
   number of l-projection  operators is LMAX  =           6
   number of lm-projection operators is LMMAX =          18
 
 POTCAR:    PAW_PBE Cu 22Jun2005                  
   SHA256 =  0e71e558f37a4e8407882b4609ceaae59938afaad9ced71dfe8490308a0ab630 Cu/POTCAR             
   COPYR  = (c) Copyright 22Jun2005 Georg Kresse                                                    
   COPYR  = This file is part of the software VASP. Any use, copying, and all other rights are regul
   COPYR  = If you do not have a valid VASP license, you may not use, copy or distribute this file. 
   VRHFIN =Cu: d10 p1                                                                               
   LEXCH  = PE                                                                                      
   EATOM  =  1390.9808 eV,  102.2342 Ry                                                             
                                                                                                    
   TITEL  = PAW_PBE Cu 22Jun2005                                                                    
   LULTRA =        F    use ultrasoft PP ?                                                          
   IUNSCR =        1    unscreen: 0-lin 1-nonlin 2-no                                               
   RPACOR =    2.000    partial core radius                                                         
   POMASS =   63.546; ZVAL   =   11.000    mass and valenz                                          
   RCORE  =    2.300    outmost cutoff radius                                                       
   RWIGS  =    2.200; RWIGS  =    1.164    wigner-seitz radius (au A)                               
   ENMAX  =  295.446; ENMIN  =  221.585 eV                                                          
   ICORE  =        3    local potential                                                             
   LCOR   =        T    correct aug charges                                                         
   LPAW   =        T    paw PP                                                                      
   EAUG   =  586.980                                                                                
   DEXC   =    0.000                                                                                
   RMAX   =    2.344    core radius for proj-oper                                                   
   RAUG   =    1.300    factor for augmentation sphere                                              
   RDEP   =    2.302    radius for radial grids                                                     
   RDEPT  =    1.771    core radius for aug-charge                                                  
                                                                                                    
   Atomic configuration                                                                             
    9 entries                                                                                       
     n  l   j            E        occ.                                                              
     1  0  0.50     -8850.2468   2.0000                                                             
     2  0  0.50     -1062.3498   2.0000                                                             
     2  1  1.50      -916.8226   6.0000                                                             
     3  0  0.50      -114.6929   2.0000                                                             
     3  1  1.50       -72.1325   6.0000                                                             
     3  2  2.50        -5.0394  10.0000                                                             
     4  0  0.50        -4.6097   1.0000                                                             
     4  1  0.50        -4.0817   0.0000                                                             
     4  3  2.50        -1.3606   0.0000                                                             
   Description                                                                                      
     l       E           TYP  RCUT    TYP  RCUT                                                     
     2     -5.0393973     23  2.200                                                                 
     2     10.8846608     23  2.200                                                                 
     0     -4.6097109     23  2.200                                                                 
     0      8.2520465     23  2.200                                                                 
     1     -2.7211652     23  2.200                                                                 
     1     21.7055443     23  2.200                                                                 
     3      2.7211652     23  2.300                                                                 
  local pseudopotential read in
  partial core-charges read in
  partial kinetic energy density read in
  atomic valenz-charges read in
  non local Contribution for L=           2  read in
    real space projection operators read in
  non local Contribution for L=           2  read in
    real space projection operators read in
  non local Contribution for L=           0  read in
    real space projection operators read in
  non local Contribution for L=           0  read in
    real space projection operators read in
  non local Contribution for L=           1  read in
    real space projection operators read in
  non local Contribution for L=           1  read in
    real space projection operators read in
    PAW grid and wavefunctions read in
 
   number of l-projection  operators is LMAX  =           6
   number of lm-projection operators is LMMAX =          18
 
  PAW_PBE Pd 04Jan2005                  :
 energy of atom  1       EATOM= -809.7530
 kinetic energy error for atom=    2.8439 (will be added to EATOM!!)
  PAW_PBE Ir 06Sep2000                  :
 energy of atom  2       EATOM= -560.1833
 kinetic energy error for atom=    0.5096 (will be added to EATOM!!)
  PAW_PBE Pt 04Feb2005                  :
 energy of atom  3       EATOM= -729.1176
 kinetic energy error for atom=    1.4935 (will be added to EATOM!!)
  PAW_PBE Cu 22Jun2005                  :
 energy of atom  4       EATOM=-1390.9808
 kinetic energy error for atom=    5.4355 (will be added to EATOM!!)
 
 
 POSCAR: Pd Ir Pt Cu
  positions in cartesian coordinates
  No initial velocities read in
 exchange correlation table for  LEXCH =        8
   RHO(1)=    0.500       N(1)  =     2000
   RHO(2)=  100.500       N(2)  =     4000
 


--------------------------------------------------------------------------------------------------------


 ion  position               nearest neighbor table
   1  0.000  0.000  0.000-   2 2.73   3 2.73   4 2.73   3 2.73   4 2.73   2 2.73   4 2.73   4 2.73
                             2 2.73   3 2.73   3 2.73   2 2.73
   2  0.500  0.500  0.000-   1 2.73   3 2.73   4 2.73   3 2.73   4 2.73   1 2.73   3 2.73   3 2.73
                             1 2.73   4 2.73   4 2.73   1 2.73
   3  0.500  0.000  0.500-   1 2.73   2 2.73   4 2.73   1 2.73   2 2.73   2 2.73   4 2.73   2 2.73
                             1 2.73   4 2.73   1 2.73   4 2.73
   4  0.000  0.500  0.500-   1 2.73   2 2.73   3 2.73   1 2.73   2 2.73   1 2.73   3 2.73   1 2.73
                             2 2.73   3 2.73   2 2.73   3 2.73
 
  LATTYP: Found a simple cubic cell.
 ALAT       =     3.8660000000
  
  Lattice vectors:
  
 A1 = (   3.8660000000,   0.0000000000,   0.0000000000)
 A2 = (   0.0000000000,   3.8660000000,   0.0000000000)
 A3 = (   0.0000000000,   0.0000000000,   3.8660000000)


Analysis of symmetry for initial positions (statically):
=====================================================================
 Subroutine PRICEL returns:
 Original cell was already a primitive cell.
 

 Routine SETGRP: Setting up the symmetry group for a 
 simple cubic supercell.


 Subroutine GETGRP returns: Found  8 space group operations
 (whereof  8 operations were pure point group operations)
 out of a pool of 48 trial point group operations.


The static configuration has the point symmetry D_2h.


Analysis of symmetry for dynamics (positions and initial velocities):
=====================================================================
 Subroutine PRICEL returns:
 Original cell was already a primitive cell.
 

 Routine SETGRP: Setting up the symmetry group for a 
 simple cubic supercell.


 Subroutine GETGRP returns: Found  8 space group operations
 (whereof  8 operations were pure point group operations)
 out of a pool of 48 trial point group operations.


The dynamic configuration has the point symmetry D_2h.


 Subroutine INISYM returns: Found  8 space group operations
 (whereof  8 operations are pure point group operations),
 and found     1 'primitive' translations


----------------------------------------------------------------------------------------

                                     Primitive cell                                     

  volume of cell :      57.7811

  direct lattice vectors                    reciprocal lattice vectors
     3.866000000  0.000000000  0.000000000     0.258665287  0.000000000  0.000000000
     0.000000000  3.866000000  0.000000000     0.000000000  0.258665287  0.000000000
     0.000000000  0.000000000  3.866000000     0.000000000  0.000000000  0.258665287

  length of vectors
     3.866000000  3.866000000  3.866000000     0.258665287  0.258665287  0.258665287

  position of ions in fractional coordinates (direct lattice)
     0.000000000  0.000000000  0.000000000
     0.500000000  0.500000000  0.000000000
     0.500000000  0.000000000  0.500000000
     0.000000000  0.500000000  0.500000000

  ion indices of the primitive-cell ions
   primitive index   ion index
                 1           1
                 2           2
                 3           3
                 4           4

----------------------------------------------------------------------------------------

 
 
 KPOINTS: KPOINTS created by Atomic Simulation Env

Automatic generation of k-mesh.
 Grid dimensions read from file:
 generate k-points for:    5    5    5

 Generating k-lattice:

  Cartesian coordinates                     Fractional coordinates (reciprocal lattice)
     0.051733057  0.000000000  0.000000000     0.200000000  0.000000000  0.000000000
     0.000000000  0.051733057  0.000000000     0.000000000  0.200000000  0.000000000
     0.000000000  0.000000000  0.051733057     0.000000000  0.000000000  0.200000000

  Length of vectors
     0.051733057  0.051733057  0.051733057

  Shift w.r.t. Gamma in fractional coordinates (k-lattice)
     0.000000000  0.000000000  0.000000000

 
 Subroutine IBZKPT returns following result:
 ===========================================
 
 Found     27 irreducible k-points:
 
 Following reciprocal coordinates:
            Coordinates               Weight
  0.000000  0.000000  0.000000      1.000000
  0.200000  0.000000  0.000000      2.000000
  0.000000  0.200000  0.000000      2.000000
  0.000000  0.000000  0.200000      2.000000
  0.400000  0.000000  0.000000      2.000000
  0.000000  0.400000  0.000000      2.000000
  0.000000  0.000000  0.400000      2.000000
  0.200000  0.200000  0.000000      4.000000
  0.000000  0.200000  0.200000      4.000000
  0.200000  0.000000  0.200000      4.000000
  0.400000  0.200000  0.000000      4.000000
  0.000000  0.400000  0.200000      4.000000
  0.200000  0.000000  0.400000      4.000000
 -0.200000  0.400000  0.000000      4.000000
 -0.400000  0.000000  0.200000      4.000000
  0.000000  0.200000  0.400000      4.000000
  0.400000  0.400000  0.000000      4.000000
  0.000000  0.400000  0.400000      4.000000
  0.400000  0.000000  0.400000      4.000000
  0.200000  0.200000  0.200000      8.000000
  0.400000  0.200000  0.200000      8.000000
  0.200000  0.400000  0.200000      8.000000
  0.200000  0.200000  0.400000      8.000000
  0.400000  0.400000  0.200000      8.000000
  0.200000  0.400000  0.400000      8.000000
  0.400000  0.200000  0.400000      8.000000
  0.400000  0.400000  0.400000      8.000000
 
 Following cartesian coordinates:
            Coordinates               Weight
  0.000000  0.000000  0.000000      1.000000
  0.051733  0.000000  0.000000      2.000000
  0.000000  0.051733  0.000000      2.000000
  0.000000  0.000000  0.051733      2.000000
  0.103466  0.000000  0.000000      2.000000
  0.000000  0.103466  0.000000      2.000000
  0.000000  0.000000  0.103466      2.000000
  0.051733  0.051733  0.000000      4.000000
  0.000000  0.051733  0.051733      4.000000
  0.051733  0.000000  0.051733      4.000000
  0.103466  0.051733  0.000000      4.000000
  0.000000  0.103466  0.051733      4.000000
  0.051733  0.000000  0.103466      4.000000
 -0.051733  0.103466  0.000000      4.000000
 -0.103466  0.000000  0.051733      4.000000
  0.000000  0.051733  0.103466      4.000000
  0.103466  0.103466  0.000000      4.000000
  0.000000  0.103466  0.103466      4.000000
  0.103466  0.000000  0.103466      4.000000
  0.051733  0.051733  0.051733      8.000000
  0.103466  0.051733  0.051733      8.000000
  0.051733  0.103466  0.051733      8.000000
  0.051733  0.051733  0.103466      8.000000
  0.103466  0.103466  0.051733      8.000000
  0.051733  0.103466  0.103466      8.000000
  0.103466  0.051733  0.103466      8.000000
  0.103466  0.103466  0.103466      8.000000
 


--------------------------------------------------------------------------------------------------------




 Dimension of arrays:
   k-points           NKPTS =     27   k-points in BZ     NKDIM =     27   number of bands    NBANDS=     30
   number of dos      NEDOS =    301   number of ions     NIONS =      4
   non local maximal  LDIM  =      6   non local SUM 2l+1 LMDIM =     18
   total plane-waves  NPLWV =   1728
   max r-space proj   IRMAX =      1   max aug-charges    IRDMAX=   2362
   dimension x,y,z NGX =    12 NGY =   12 NGZ =   12
   dimension x,y,z NGXF=    24 NGYF=   24 NGZF=   24
   support grid    NGXF=    24 NGYF=   24 NGZF=   24
   ions per type =               1   1   1   1
   NGX,Y,Z   is equivalent  to a cutoff of   5.16,  5.16,  5.16 a.u.
   NGXF,Y,Z  is equivalent  to a cutoff of  10.32, 10.32, 10.32 a.u.

 SYSTEM =  unknown system                          
 POSCAR =  Pd Ir Pt Cu                             

 Startparameter for this run:
   NWRITE =      2    write-flag & timer
   PREC   = normal    normal or accurate (medium, high low for compatibility)
   ISTART =      1    job   : 0-new  1-cont  2-samecut
   ICHARG =      1    charge: 1-file 2-atom 10-const
   ISPIN  =      1    spin polarized calculation?
   LNONCOLLINEAR =      F non collinear calculations
   LSORBIT =      F    spin-orbit coupling
   INIWAV =      1    electr: 0-lowe 1-rand  2-diag
   LASPH  =      F    aspherical Exc in radial PAW
   METAGGA=      F    non-selfconsistent MetaGGA calc.

 Electronic Relaxation 1
   ENCUT  =  170.0 eV  12.49 Ry    3.53 a.u.   4.11  4.11  4.11*2*pi/ulx,y,z
   ENINI  =  170.0     initial cutoff
   ENAUG  =  587.0 eV  augmentation charge cutoff
   NELM   =     60;   NELMIN=  2; NELMDL=  0     # of ELM steps 
   EDIFF  = 0.1E-05   stopping-criterion for ELM
   LREAL  =      F    real-space projection
   NLSPLINE    = F    spline interpolate recip. space projectors
   LCOMPAT=      F    compatible to vasp.4.4
   GGA_COMPAT  = T    GGA compatible to vasp.4.4-vasp.4.6
   LMAXPAW     = -100 max onsite density
   LMAXMIX     =    2 max onsite mixed and CHGCAR
   VOSKOWN=      0    Vosko Wilk Nusair interpolation
   ROPT   =    0.00000   0.00000   0.00000   0.00000
 Ionic relaxation
   EDIFFG = 0.1E-04   stopping-criterion for IOM
   NSW    =      0    number of steps for IOM
   NBLOCK =      1;   KBLOCK =      1    inner block; outer block 
   IBRION =     -1    ionic relax: 0-MD 1-quasi-New 2-CG
   NFREE  =      0    steps in history (QN), initial steepest desc. (CG)
   ISIF   =      2    stress and relaxation
   IWAVPR =      0    prediction:  0-non 1-charg 2-wave 3-comb
   ISYM   =      2    0-nonsym 1-usesym 2-fastsym
   LCORR  =      T    Harris-Foulkes like correction to forces

   POTIM  = 0.5000    time-step for ionic-motion
   TEIN   =    0.0    initial temperature
   TEBEG  =    0.0;   TEEND  =   0.0 temperature during run
   SMASS  =  -3.00    Nose mass-parameter (am)
   estimated Nose-frequenzy (Omega)   =  0.10E-29 period in steps = 0.13E+47 mass=  -0.342E-27a.u.
   SCALEE = 1.0000    scale energy and forces
   NPACO  =    256;   APACO  = 16.0  distance and # of slots for P.C.
   PSTRESS=    0.0 pullay stress

  Mass of Ions in am
   POMASS = 106.42192.22195.08 63.55
  Ionic Valenz
   ZVAL   =  10.00  9.00 10.00 11.00
  Atomic Wigner-Seitz radii
   RWIGS  =  -1.00 -1.00 -1.00 -1.00
  virtual crystal weights 
   VCA    =   1.00  1.00  1.00  1.00
   NELECT =      40.0000    total number of electrons
   NUPDOWN=      -1.0000    fix difference up-down

 DOS related values:
   EMIN   =  10.00;   EMAX   =-10.00  energy-range for DOS
   EFERMI =   0.00
   ISMEAR =     1;   SIGMA  =   0.20  broadening in eV -4-tet -1-fermi 0-gaus

 Electronic relaxation 2 (details)
   IALGO  =     38    algorithm
   LDIAG  =      T    sub-space diagonalisation (order eigenvalues)
   LSUBROT=      F    optimize rotation matrix (better conditioning)
   TURBO    =      0    0=normal 1=particle mesh
   IRESTART =      0    0=no restart 2=restart with 2 vectors
   NREBOOT  =      0    no. of reboots
   NMIN     =      0    reboot dimension
   EREF     =   0.00    reference energy to select bands
   IMIX   =      4    mixing-type and parameters
     AMIX     =   0.40;   BMIX     =  1.00
     AMIX_MAG =   1.60;   BMIX_MAG =  1.00
     AMIN     =   0.10
     WC   =   100.;   INIMIX=   1;  MIXPRE=   1;  MAXMIX= -45

 Intra band minimization:
   WEIMIN = 0.0000     energy-eigenvalue tresh-hold
   EBREAK =  0.83E-08  absolut break condition
   DEPER  =   0.30     relativ break condition  

   TIME   =   0.40     timestep for ELM

  volume/ion in A,a.u.               =      14.45        97.48
  Fermi-wavevector in a.u.,A,eV,Ry     =   1.448215  2.736729 28.535854  2.097326
  Thomas-Fermi vector in A             =   2.566081
 
 Write flags
   LWAVE        =      T    write WAVECAR
   LDOWNSAMPLE  =      F    k-point downsampling of WAVECAR
   LCHARG       =      T    write CHGCAR
   LVTOT        =      F    write LOCPOT, total local potential
   LVHAR        =      F    write LOCPOT, Hartree potential only
   LELF         =      F    write electronic localiz. function (ELF)
   LORBIT       =      0    0 simple, 1 ext, 2 COOP (PROOUT), +10 PAW based schemes


 Dipole corrections
   LMONO  =      F    monopole corrections only (constant potential shift)
   LDIPOL =      F    correct potential (dipole corrections)
   IDIPOL =      0    1-x, 2-y, 3-z, 4-all directions 
   EPSILON=  1.0000000 bulk dielectric constant

 Exchange correlation treatment:
   GGA     =    PE    GGA type
   LEXCH   =     8    internal setting for exchange type
   VOSKOWN=      0    Vosko Wilk Nusair interpolation
   LHFCALC =     F    Hartree Fock is set to
   LHFONE  =     F    Hartree Fock one center treatment
   AEXX    =    0.0000 exact exchange contribution

 Linear response parameters
   LEPSILON=     F    determine dielectric tensor
   LRPA    =     F    only Hartree local field effects (RPA)
   LNABLA  =     F    use nabla operator in PAW spheres
   LVEL    =     F    velocity operator in full k-point grid
   LINTERFAST=   F  fast interpolation
   KINTER  =     0    interpolate to denser k-point grid
   CSHIFT  =0.1000    complex shift for real part using Kramers Kronig
   OMEGAMAX=  -1.0    maximum frequency
   DEG_THRESHOLD= 0.2000000E-02 threshold for treating states as degnerate
   RTIME   =   -0.100 relaxation time in fs
  (WPLASMAI=    0.000 imaginary part of plasma frequency in eV, 0.658/RTIME)
   DFIELD  = 0.0000000 0.0000000 0.0000000 field for delta impulse in time
 
 Orbital magnetization related:
   ORBITALMAG=     F  switch on orbital magnetization
   LCHIMAG   =     F  perturbation theory with respect to B field
   DQ        =  0.001000  dq finite difference perturbation B field
   LLRAUG    =     F  two centre corrections for induced B field



--------------------------------------------------------------------------------------------------------


 Static calculation
 charge density and potential will be updated during run
 non-spin polarized calculation
 Variant of blocked Davidson
 Davidson routine will perform the subspace rotation
 perform sub-space diagonalisation
    after iterative eigenvector-optimisation
 modified Broyden-mixing scheme, WC =      100.0
 initial mixing is a Kerker type mixing with AMIX =  0.4000 and BMIX =      1.0000
 Hartree-type preconditioning will be used
 using additional bands           10
 reciprocal scheme for non local part
 use partial core corrections
 calculate Harris-corrections to forces 
   (improved forces if not selfconsistent)
 use gradient corrections 
 use of overlap-Matrix (Vanderbilt PP)
 Methfessel and Paxton  Order N= 1 SIGMA  =   0.20


--------------------------------------------------------------------------------------------------------


  energy-cutoff  :      170.00
  volume of cell :       57.78
      direct lattice vectors                 reciprocal lattice vectors
     3.866000000  0.000000000  0.000000000     0.258665287  0.000000000  0.000000000
     0.000000000  3.866000000  0.000000000     0.000000000  0.258665287  0.000000000
     0.000000000  0.000000000  3.866000000     0.000000000  0.000000000  0.258665287

  length of vectors
     3.866000000  3.866000000  3.866000000     0.258665287  0.258665287  0.258665287


 
 old parameters found on file WAVECAR:
  energy-cutoff  :      170.00
  volume of cell :       57.78
      direct lattice vectors                 reciprocal lattice vectors
     3.866000000  0.000000000  0.000000000     0.258665287  0.000000000  0.000000000
     0.000000000  3.866000000  0.000000000     0.000000000  0.258665287  0.000000000
     0.000000000  0.000000000  3.866000000     0.000000000  0.000000000  0.258665287

  length of vectors

 
 k-points in units of 2pi/SCALE and weight: KPOINTS created by Atomic Simulation Env
   0.00000000  0.00000000  0.00000000       0.008
   0.05173306  0.00000000  0.00000000       0.016
   0.00000000  0.05173306  0.00000000       0.016
   0.00000000  0.00000000  0.05173306       0.016
   0.10346611  0.00000000  0.00000000       0.016
   0.00000000  0.10346611  0.00000000       0.016
   0.00000000  0.00000000  0.10346611       0.016
   0.05173306  0.05173306  0.00000000       0.032
   0.00000000  0.05173306  0.05173306       0.032
   0.05173306  0.00000000  0.05173306       0.032
   0.10346611  0.05173306  0.00000000       0.032
   0.00000000  0.10346611  0.05173306       0.032
   0.05173306  0.00000000  0.10346611       0.032
  -0.05173306  0.10346611  0.00000000       0.032
  -0.10346611  0.00000000  0.05173306       0.032
   0.00000000  0.05173306  0.10346611       0.032
   0.10346611  0.10346611  0.00000000       0.032
   0.00000000  0.10346611  0.10346611       0.032
   0.10346611  0.00000000  0.10346611       0.032
   0.05173306  0.05173306  0.05173306       0.064
   0.10346611  0.05173306  0.05173306       0.064
   0.05173306  0.10346611  0.05173306       0.064
   0.05173306  0.05173306  0.10346611       0.064
   0.10346611  0.10346611  0.05173306       0.064
   0.05173306  0.10346611  0.10346611       0.064
   0.10346611  0.05173306  0.10346611       0.064
   0.10346611  0.10346611  0.10346611       0.064
 
 k-points in reciprocal lattice and weights: KPOINTS created by Atomic Simulation Env
   0.00000000  0.00000000  0.00000000       0.008
   0.20000000  0.00000000  0.00000000       0.016
   0.00000000  0.20000000  0.00000000       0.016
   0.00000000  0.00000000  0.20000000       0.016
   0.40000000  0.00000000  0.00000000       0.016
   0.00000000  0.40000000  0.00000000       0.016
   0.00000000  0.00000000  0.40000000       0.016
   0.20000000  0.20000000  0.00000000       0.032
   0.00000000  0.20000000  0.20000000       0.032
   0.20000000  0.00000000  0.20000000       0.032
   0.40000000  0.20000000  0.00000000       0.032
   0.00000000  0.40000000  0.20000000       0.032
   0.20000000  0.00000000  0.40000000       0.032
  -0.20000000  0.40000000  0.00000000       0.032
  -0.40000000  0.00000000  0.20000000       0.032
   0.00000000  0.20000000  0.40000000       0.032
   0.40000000  0.40000000  0.00000000       0.032
   0.00000000  0.40000000  0.40000000       0.032
   0.40000000  0.00000000  0.40000000       0.032
   0.20000000  0.20000000  0.20000000       0.064
   0.40000000  0.20000000  0.20000000       0.064
   0.20000000  0.40000000  0.20000000       0.064
   0.20000000  0.20000000  0.40000000       0.064
   0.40000000  0.40000000  0.20000000       0.064
   0.20000000  0.40000000  0.40000000       0.064
   0.40000000  0.20000000  0.40000000       0.064
   0.40000000  0.40000000  0.40000000       0.064
 
 position of ions in fractional coordinates (direct lattice) 
   0.00000000  0.00000000  0.00000000
   0.50000000  0.50000000  0.00000000
   0.50000000  0.00000000  0.50000000
   0.00000000  0.50000000  0.50000000
 
 position of ions in cartesian coordinates  (Angst):
   0.00000000  0.00000000  0.00000000
   1.93300000  1.93300000  0.00000000
   1.93300000  0.00000000  1.93300000
   0.00000000  1.93300000  1.93300000
 


--------------------------------------------------------------------------------------------------------


 k-point   1 :   0.0000 0.0000 0.0000  plane waves:     257
 k-point   2 :   0.2000 0.0000 0.0000  plane waves:     284
 k-point   3 :   0.0000 0.2000 0.0000  plane waves:     284
 k-point   4 :   0.0000 0.0000 0.2000  plane waves:     284
 k-point   5 :   0.4000 0.0000 0.0000  plane waves:     292
 k-point   6 :   0.0000 0.4000 0.0000  plane waves:     292
 k-point   7 :   0.0000 0.0000 0.4000  plane waves:     292
 k-point   8 :   0.2000 0.2000 0.0000  plane waves:     292
 k-point   9 :   0.0000 0.2000 0.2000  plane waves:     292
 k-point  10 :   0.2000 0.0000 0.2000  plane waves:     292
 k-point  11 :   0.4000 0.2000 0.0000  plane waves:     287
 k-point  12 :   0.0000 0.4000 0.2000  plane waves:     287
 k-point  13 :   0.2000 0.0000 0.4000  plane waves:     287
 k-point  14 :  -0.2000 0.4000 0.0000  plane waves:     287
 k-point  15 :  -0.4000 0.0000 0.2000  plane waves:     287
 k-point  16 :   0.0000 0.2000 0.4000  plane waves:     287
 k-point  17 :   0.4000 0.4000 0.0000  plane waves:     294
 k-point  18 :   0.0000 0.4000 0.4000  plane waves:     294
 k-point  19 :   0.4000 0.0000 0.4000  plane waves:     294
 k-point  20 :   0.2000 0.2000 0.2000  plane waves:     293
 k-point  21 :   0.4000 0.2000 0.2000  plane waves:     290
 k-point  22 :   0.2000 0.4000 0.2000  plane waves:     290
 k-point  23 :   0.2000 0.2000 0.4000  plane waves:     290
 k-point  24 :   0.4000 0.4000 0.2000  plane waves:     295
 k-point  25 :   0.2000 0.4000 0.4000  plane waves:     295
 k-point  26 :   0.4000 0.2000 0.4000  plane waves:     295
 k-point  27 :   0.4000 0.4000 0.4000  plane waves:     295

 maximum number of plane-waves:       295
 maximum index in each direction: 
   IXMAX=    4   IYMAX=    4   IZMAX=    4
   IXMIN=   -4   IYMIN=   -4   IZMIN=   -4


 total amount of memory used by VASP MPI-rank0    40555. kBytes
=======================================================================

   base      :      30000. kBytes
   nonl-proj :       4606. kBytes
   grid      :       1131. kBytes
   one-center:         62. kBytes
   wavefun   :       4756. kBytes
 
     INWAV:  cpu time    0.0058: real time    0.0058
 Broyden mixing: mesh for mixing (old mesh)
   NGX =  9   NGY =  9   NGZ =  9
  (NGX  = 24   NGY  = 24   NGZ  = 24)
  gives a total of    729 points

 initial charge density was supplied:
 number of electron      39.9998612 magnetization 
 keeping initial charge density in first step


--------------------------------------------------------------------------------------------------------


 Maximum index for augmentation-charges         2103 (set IRDMAX)


--------------------------------------------------------------------------------------------------------


 First call to EWALD:  gamma=   0.458
 Maximum number of real-space cells 3x 3x 3
 Maximum number of reciprocal cells 3x 3x 3

    FEWALD:  cpu time    0.0009: real time    0.0009


--------------------------------------- Iteration      1(   1)  ---------------------------------------


    POTLOK:  cpu time    0.0036: real time    0.0036
    SETDIJ:  cpu time    0.0037: real time    0.0037
     EDDAV:  cpu time    0.1855: real time    0.2060
       DOS:  cpu time    0.0024: real time    0.0024
    CHARGE:  cpu time    0.0102: real time    0.0102
    MIXING:  cpu time    0.0001: real time    0.0001
    --------------------------------------------
      LOOP:  cpu time    0.2055: real time    0.2260

 eigenvalue-minimisations  :  1874
 total energy-change (2. order) :-0.1439091E+02  (-0.6238116E-03)
 number of electron      39.9998609 magnetization 
 augmentation part       16.4495385 magnetization 

 Broyden mixing:
  rms(total) = 0.10343E-01    rms(broyden)= 0.96733E-02
  rms(prec ) = 0.18912E-01
  weight for this iteration     100.00

 Free energy of the ion-electron system (eV)
  ---------------------------------------------------
  alpha Z        PSCENC =       244.65455147
  Ewald energy   TEWEN  =     -3423.86860972
  -Hartree energ DENC   =      -584.88159046
  -exchange      EXHF   =         0.00000000
  -V(xc)+E(xc)   XCENC  =         1.09567479
  PAW double counting   =      4258.44385271    -4230.15440519
  entropy T*S    EENTRO =         0.00015587
  eigenvalues    EBANDS =       240.56728534
  atomic energy  EATOM  =      3479.75217177
  Solvation  Ediel_sol  =         0.00000000
  ---------------------------------------------------
  free energy    TOTEN  =       -14.39091342 eV

  energy without entropy =      -14.39106929  energy(sigma->0) =      -14.39096537


--------------------------------------------------------------------------------------------------------




--------------------------------------- Iteration      1(   2)  ---------------------------------------


    POTLOK:  cpu time    0.0035: real time    0.0035
    SETDIJ:  cpu time    0.0036: real time    0.0036
     EDDAV:  cpu time    0.1710: real time    0.1710
       DOS:  cpu time    0.0024: real time    0.0024
    CHARGE:  cpu time    0.0100: real time    0.0100
    MIXING:  cpu time    0.0002: real time    0.0002
    --------------------------------------------
      LOOP:  cpu time    0.1907: real time    0.1907

 eigenvalue-minimisations  :  1862
 total energy-change (2. order) : 0.2569506E-01  (-0.8268291E-03)
 number of electron      39.9998611 magnetization 
 augmentation part       16.4491943 magnetization 

 Broyden mixing:
  rms(total) = 0.13622E-01    rms(broyden)= 0.13162E-01
  rms(prec ) = 0.36489E-01
  weight for this iteration     100.00

 eigenvalues of (default mixing * dielectric matrix)
  average eigenvalue GAMMA=   0.4246
  0.4246

 Free energy of the ion-electron system (eV)
  ---------------------------------------------------
  alpha Z        PSCENC =       244.65455147
  Ewald energy   TEWEN  =     -3423.86860972
  -Hartree energ DENC   =      -584.90841260
  -exchange      EXHF   =         0.00000000
  -V(xc)+E(xc)   XCENC  =         1.09872441
  PAW double counting   =      4258.57771666    -4230.34513752
  entropy T*S    EENTRO =        -0.00086919
  eigenvalues    EBANDS =       240.67464636
  atomic energy  EATOM  =      3479.75217177
  Solvation  Ediel_sol  =         0.00000000
  ---------------------------------------------------
  free energy    TOTEN  =       -14.36521836 eV

  energy without entropy =      -14.36434917  energy(sigma->0) =      -14.36492863


--------------------------------------------------------------------------------------------------------




--------------------------------------- Iteration      1(   3)  ---------------------------------------


    POTLOK:  cpu time    0.0034: real time    0.0034
    SETDIJ:  cpu time    0.0036: real time    0.0036
     EDDAV:  cpu time    0.1888: real time    0.1888
       DOS:  cpu time    0.0027: real time    0.0027
    CHARGE:  cpu time    0.0104: real time    0.0104
    MIXING:  cpu time    0.0002: real time    0.0002
    --------------------------------------------
      LOOP:  cpu time    0.2091: real time    0.2091

 eigenvalue-minimisations  :  1966
 total energy-change (2. order) : 0.3697613E-03  (-0.5901342E-04)
 number of electron      39.9998612 magnetization 
 augmentation part       16.4508359 magnetization 

 Broyden mixing:
  rms(total) = 0.47495E-02    rms(broyden)= 0.47389E-02
  rms(prec ) = 0.92728E-02
  weight for this iteration     100.00

 eigenvalues of (default mixing * dielectric matrix)
  average eigenvalue GAMMA=   0.4583
  0.4583  0.4583

 Free energy of the ion-electron system (eV)
  ---------------------------------------------------
  alpha Z        PSCENC =       244.65455147
  Ewald energy   TEWEN  =     -3423.86860972
  -Hartree energ DENC   =      -584.87275552
  -exchange      EXHF   =         0.00000000
  -V(xc)+E(xc)   XCENC  =         1.09624824
  PAW double counting   =      4258.54722768    -4230.28264762
  entropy T*S    EENTRO =        -0.00077653
  eigenvalues    EBANDS =       240.60974165
  atomic energy  EATOM  =      3479.75217177
  Solvation  Ediel_sol  =         0.00000000
  ---------------------------------------------------
  free energy    TOTEN  =       -14.36484860 eV

  energy without entropy =      -14.36407207  energy(sigma->0) =      -14.36458976


--------------------------------------------------------------------------------------------------------




--------------------------------------- Iteration      1(   4)  ---------------------------------------


    POTLOK:  cpu time    0.0035: real time    0.0035
    SETDIJ:  cpu time    0.0038: real time    0.0038
     EDDAV:  cpu time    0.1667: real time    0.1667
       DOS:  cpu time    0.0023: real time    0.0023
    CHARGE:  cpu time    0.0110: real time    0.0162
    MIXING:  cpu time    0.0002: real time    0.0002
    --------------------------------------------
      LOOP:  cpu time    0.1875: real time    0.1927

 eigenvalue-minimisations  :  1812
 total energy-change (2. order) : 0.4500980E-05  (-0.1960537E-05)
 number of electron      39.9998612 magnetization 
 augmentation part       16.4503365 magnetization 

 Broyden mixing:
  rms(total) = 0.39054E-02    rms(broyden)= 0.39047E-02
  rms(prec ) = 0.75946E-02
  weight for this iteration     100.00

 eigenvalues of (default mixing * dielectric matrix)
  average eigenvalue GAMMA=   0.4795
  0.5526  0.5526  0.3332

 Free energy of the ion-electron system (eV)
  ---------------------------------------------------
  alpha Z        PSCENC =       244.65455147
  Ewald energy   TEWEN  =     -3423.86860972
  -Hartree energ DENC   =      -584.88652167
  -exchange      EXHF   =         0.00000000
  -V(xc)+E(xc)   XCENC  =         1.09653568
  PAW double counting   =      4258.52291050    -4230.26039601
  entropy T*S    EENTRO =        -0.00079121
  eigenvalues    EBANDS =       240.62530510
  atomic energy  EATOM  =      3479.75217177
  Solvation  Ediel_sol  =         0.00000000
  ---------------------------------------------------
  free energy    TOTEN  =       -14.36484410 eV

  energy without entropy =      -14.36405289  energy(sigma->0) =      -14.36458036


--------------------------------------------------------------------------------------------------------




--------------------------------------- Iteration      1(   5)  ---------------------------------------


    POTLOK:  cpu time    0.0036: real time    0.0036
    SETDIJ:  cpu time    0.0036: real time    0.0036
     EDDAV:  cpu time    0.1134: real time    0.1134
       DOS:  cpu time    0.0024: real time    0.0024
    CHARGE:  cpu time    0.0101: real time    0.0101
    MIXING:  cpu time    0.0003: real time    0.0003
    --------------------------------------------
      LOOP:  cpu time    0.1334: real time    0.1334

 eigenvalue-minimisations  :  1050
 total energy-change (2. order) : 0.1347938E-05  (-0.1069807E-06)
 number of electron      39.9998612 magnetization 
 augmentation part       16.4505188 magnetization 

 Broyden mixing:
  rms(total) = 0.34718E-02    rms(broyden)= 0.34717E-02
  rms(prec ) = 0.68298E-02
  weight for this iteration     100.00

 eigenvalues of (default mixing * dielectric matrix)
  average eigenvalue GAMMA=   0.4834
  0.6346  0.6346  0.3323  0.3323

 Free energy of the ion-electron system (eV)
  ---------------------------------------------------
  alpha Z        PSCENC =       244.65455147
  Ewald energy   TEWEN  =     -3423.86860972
  -Hartree energ DENC   =      -584.88039701
  -exchange      EXHF   =         0.00000000
  -V(xc)+E(xc)   XCENC  =         1.09618644
  PAW double counting   =      4258.51429651    -4230.24941000
  entropy T*S    EENTRO =        -0.00077948
  eigenvalues    EBANDS =       240.61714728
  atomic energy  EATOM  =      3479.75217177
  Solvation  Ediel_sol  =         0.00000000
  ---------------------------------------------------
  free energy    TOTEN  =       -14.36484275 eV

  energy without entropy =      -14.36406327  energy(sigma->0) =      -14.36458292


--------------------------------------------------------------------------------------------------------




--------------------------------------- Iteration      1(   6)  ---------------------------------------


    POTLOK:  cpu time    0.0034: real time    0.0034
    SETDIJ:  cpu time    0.0041: real time    0.0041
     EDDAV:  cpu time    0.1125: real time    0.1125
       DOS:  cpu time    0.0024: real time    0.0024
    --------------------------------------------
      LOOP:  cpu time    0.1224: real time    0.1224

 eigenvalue-minimisations  :   972
 total energy-change (2. order) : 0.3480700E-06  (-0.7323099E-07)
 number of electron      39.9998612 magnetization 
 augmentation part       16.4505188 magnetization 

 Free energy of the ion-electron system (eV)
  ---------------------------------------------------
  alpha Z        PSCENC =       244.65455147
  Ewald energy   TEWEN  =     -3423.86860972
  -Hartree energ DENC   =      -584.88107422
  -exchange      EXHF   =         0.00000000
  -V(xc)+E(xc)   XCENC  =         1.09608566
  PAW double counting   =      4258.51288232    -4230.24748790
  entropy T*S    EENTRO =        -0.00078024
  eigenvalues    EBANDS =       240.61741848
  atomic energy  EATOM  =      3479.75217177
  Solvation  Ediel_sol  =         0.00000000
  ---------------------------------------------------
  free energy    TOTEN  =       -14.36484240 eV

  energy without entropy =      -14.36406216  energy(sigma->0) =      -14.36458232


--------------------------------------------------------------------------------------------------------




 average (electrostatic) potential at core
  the test charge radii are     1.1199  1.2793  1.2059  0.9430
  (the norm of the test charge is              1.0000)
       1 -72.9132       2 -49.2039       3 -65.5891       4 -63.3610
 
 
 
 E-fermi :   8.9191     XC(G=0): -13.0821     alpha+bet :-15.1862

 Fermi energy:         8.9190923745

 k-point     1 :       0.0000    0.0000    0.0000
  band No.  band energies     occupation 
      1       0.1596      2.00000
      2       2.6707      2.00000
      3       3.6160      2.00000
      4       3.6961      2.00000
      5       3.8320      2.00000
      6       3.9773      2.00000
      7       4.2121      2.00000
      8       6.4885      2.00000
      9       6.5411      2.00000
     10       6.8139      2.00000
     11       7.6594      2.00000
     12       7.7971      2.00000
     13       8.4295      2.00291
     14       8.7548      1.99062
     15       8.9564      0.69010
     16       9.3402     -0.01120
     17       9.5636     -0.00005
     18       9.7014     -0.00000
     19       9.9600     -0.00000
     20      10.3129     -0.00000
     21      10.8774     -0.00000
     22      11.4792     -0.00000
     23      11.4945     -0.00000
     24      11.5022     -0.00000
     25      18.1241      0.00000
     26      18.3701      0.00000
     27      19.9467      0.00000
     28      20.3761      0.00000
     29      20.5386      0.00000
     30      20.8075      0.00000

 k-point     2 :       0.2000    0.0000    0.0000
  band No.  band energies     occupation 
      1       0.6144      2.00000
      2       2.8592      2.00000
      3       3.6668      2.00000
      4       3.7491      2.00000
      5       3.7785      2.00000
      6       3.8850      2.00000
      7       4.4207      2.00000
      8       6.2510      2.00000
      9       6.4274      2.00000
     10       6.5791      2.00000
     11       7.2868      2.00000
     12       7.3032      2.00000
     13       7.3632      2.00000
     14       7.6401      2.00000
     15       7.7464      2.00000
     16       7.8078      2.00000
     17       8.6447      2.06550
     18       8.9704      0.58159
     19       9.1086     -0.03760
     20       9.3150     -0.01707
     21       9.7457     -0.00000
     22      10.6789     -0.00000
     23      13.1662     -0.00000
     24      13.1722     -0.00000
     25      17.9443      0.00000
     26      18.0105      0.00000
     27      20.4695      0.00000
     28      20.5252      0.00000
     29      20.6698      0.00000
     30      21.1468      0.00000

 k-point     3 :       0.0000    0.2000    0.0000
  band No.  band energies     occupation 
      1       0.6776      2.00000
      2       2.8860      2.00000
      3       3.7146      2.00000
      4       3.7254      2.00000
      5       3.7426      2.00000
      6       3.8702      2.00000
      7       4.3713      2.00000
      8       6.4058      2.00000
      9       6.4957      2.00000
     10       6.5248      2.00000
     11       7.1056      2.00000
     12       7.2417      2.00000
     13       7.3827      2.00000
     14       7.6540      2.00000
     15       8.0839      2.00000
     16       8.6248      2.05780
     17       8.7253      2.04320
     18       8.8828      1.30156
     19       8.9921      0.42547
     20       9.1343     -0.06268
     21       9.2533     -0.03966
     22       9.7082     -0.00000
     23      13.2875     -0.00000
     24      13.4175     -0.00000
     25      17.4519      0.00000
     26      18.6713      0.00000
     27      20.4013      0.00000
     28      20.4489      0.00000
     29      20.8275      0.00000
     30      21.3970      0.00000

 k-point     4 :       0.0000    0.0000    0.2000
  band No.  band energies     occupation 
      1       0.6795      2.00000
      2       2.8763      2.00000
      3       3.7560      2.00000
      4       3.7788      2.00000
      5       3.8729      2.00000
      6       3.8792      2.00000
      7       4.2070      2.00000
      8       6.1618      2.00000
      9       6.4754      2.00000
     10       6.5999      2.00000
     11       7.0922      2.00000
     12       7.2480      2.00000
     13       7.5477      2.00000
     14       7.7636      2.00000
     15       7.9063      2.00000
     16       8.1333      2.00000
     17       8.4227      2.00251
     18       8.9511      0.73306
     19       9.0751      0.03038
     20       9.0987     -0.02218
     21       9.7325     -0.00000
     22      10.0626     -0.00000
     23      13.2478     -0.00000
     24      13.3846     -0.00000
     25      17.1039      0.00000
     26      18.9534      0.00000
     27      20.5002      0.00000
     28      20.5036      0.00000
     29      20.9035      0.00000
     30      21.3528      0.00000

 k-point     5 :       0.4000    0.0000    0.0000
  band No.  band energies     occupation 
      1       1.6787      2.00000
      2       3.5121      2.00000
      3       3.8503      2.00000
      4       3.9422      2.00000
      5       4.6156      2.00000
      6       4.6735      2.00000
      7       5.2969      2.00000
      8       5.7262      2.00000
      9       5.8282      2.00000
     10       5.9453      2.00000
     11       6.4596      2.00000
     12       6.4873      2.00000
     13       6.7805      2.00000
     14       7.0466      2.00000
     15       7.1987      2.00000
     16       7.2385      2.00000
     17       7.6860      2.00000
     18       7.9649      2.00000
     19       7.9879      2.00000
     20       8.4853      2.00893
     21       9.1252     -0.05607
     22      10.6581     -0.00000
     23      15.6641      0.00000
     24      15.7323      0.00000
     25      17.0001      0.00000
     26      18.0053      0.00000
     27      18.7021      0.00000
     28      18.8131      0.00000
     29      19.4229      0.00000
     30      22.1486      0.00000

 k-point     6 :       0.0000    0.4000    0.0000
  band No.  band energies     occupation 
      1       2.0423      2.00000
      2       3.2741      2.00000
      3       3.8672      2.00000
      4       3.9792      2.00000
      5       4.5359      2.00000
      6       4.5795      2.00000
      7       5.3766      2.00000
      8       5.9265      2.00000
      9       6.0817      2.00000
     10       6.1250      2.00000
     11       6.6320      2.00000
     12       6.6705      2.00000
     13       6.7391      2.00000
     14       6.9995      2.00000
     15       7.4421      2.00000
     16       7.4435      2.00000
     17       7.4545      2.00000
     18       7.8381      2.00000
     19       8.0358      2.00000
     20       8.1581      2.00000
     21       8.7795      1.91818
     22       9.2099     -0.05930
     23      15.9292      0.00000
     24      15.9525      0.00000
     25      16.6599      0.00000
     26      18.4301      0.00000
     27      18.5140      0.00000
     28      18.6624      0.00000
     29      20.6485      0.00000
     30      21.2225      0.00000

 k-point     7 :       0.0000    0.0000    0.4000
  band No.  band energies     occupation 
      1       2.0647      2.00000
      2       3.2657      2.00000
      3       4.0446      2.00000
      4       4.2353      2.00000
      5       4.6321      2.00000
      6       4.6452      2.00000
      7       5.0349      2.00000
      8       5.5747      2.00000
      9       5.8062      2.00000
     10       5.9584      2.00000
     11       6.5624      2.00000
     12       6.5802      2.00000
     13       6.7843      2.00000
     14       6.9596      2.00000
     15       7.2412      2.00000
     16       7.4523      2.00000
     17       7.7060      2.00000
     18       7.7182      2.00000
     19       8.0563      2.00000
     20       8.3133      2.00016
     21       8.6881      2.06926
     22      10.0191     -0.00000
     23      15.8963      0.00000
     24      15.9902      0.00000
     25      16.1976      0.00000
     26      18.4940      0.00000
     27      18.7554      0.00000
     28      18.9676      0.00000
     29      20.2979      0.00000
     30      21.4986      0.00000

 k-point     8 :       0.2000    0.2000    0.0000
  band No.  band energies     occupation 
      1       1.1108      2.00000
      2       3.1239      2.00000
      3       3.7938      2.00000
      4       3.8576      2.00000
      5       3.9711      2.00000
      6       4.0990      2.00000
      7       4.5270      2.00000
      8       6.0145      2.00000
      9       6.3304      2.00000
     10       6.6594      2.00000
     11       6.6632      2.00000
     12       6.9134      2.00000
     13       7.1031      2.00000
     14       7.1538      2.00000
     15       7.4675      2.00000
     16       7.7732      2.00000
     17       8.0280      2.00000
     18       8.6031      2.04799
     19       8.6468      2.06616
     20       8.8570      1.49827
     21       9.6078     -0.00001
     22      10.7456     -0.00000
     23      11.7925     -0.00000
     24      14.5313      0.00000
     25      16.9680      0.00000
     26      19.1745      0.00000
     27      20.0362      0.00000
     28      20.3915      0.00000
     29      21.1387      0.00000
     30      21.7467      0.00000

 k-point     9 :       0.0000    0.2000    0.2000
  band No.  band energies     occupation 
      1       1.1452      2.00000
      2       3.1463      2.00000
      3       3.8309      2.00000
      4       3.8503      2.00000
      5       4.0126      2.00000
      6       4.0664      2.00000
      7       4.4807      2.00000
      8       5.9918      2.00000
      9       6.3887      2.00000
     10       6.5812      2.00000
     11       6.7038      2.00000
     12       7.0376      2.00000
     13       7.0898      2.00000
     14       7.1855      2.00000
     15       7.4779      2.00000
     16       7.7892      2.00000
     17       8.0660      2.00000
     18       8.4618      2.00570
     19       8.5370      2.02111
     20       8.6912      2.06841
     21       9.4572     -0.00095
     22      10.8185     -0.00000
     23      12.1440     -0.00000
     24      14.4249      0.00000
     25      16.8189      0.00000
     26      19.2315      0.00000
     27      19.5589      0.00000
     28      20.9629      0.00000
     29      21.2729      0.00000
     30      21.8584      0.00000

 k-point    10 :       0.2000    0.0000    0.2000
  band No.  band energies     occupation 
      1       1.1107      2.00000
      2       3.1231      2.00000
      3       3.7981      2.00000
      4       3.9483      2.00000
      5       4.0151      2.00000
      6       4.1185      2.00000
      7       4.4387      2.00000
      8       5.8433      2.00000
      9       6.4466      2.00000
     10       6.5827      2.00000
     11       6.7698      2.00000
     12       6.8819      2.00000
     13       6.9997      2.00000
     14       7.1713      2.00000
     15       7.4491      2.00000
     16       7.6185      2.00000
     17       7.8460      2.00000
     18       8.7603      1.97709
     19       8.7849      1.89854
     20       9.0487      0.11931
     21       9.7281     -0.00000
     22      10.9735     -0.00000
     23      11.4495     -0.00000
     24      14.5346      0.00000
     25      16.9249      0.00000
     26      19.0950      0.00000
     27      19.9846      0.00000
     28      20.5301      0.00000
     29      21.2455      0.00000
     30      21.8712      0.00000

 k-point    11 :       0.4000    0.2000    0.0000
  band No.  band energies     occupation 
      1       2.1403      2.00000
      2       3.7733      2.00000
      3       4.1147      2.00000
      4       4.2060      2.00000
      5       4.6995      2.00000
      6       4.7642      2.00000
      7       5.1465      2.00000
      8       5.5999      2.00000
      9       5.6098      2.00000
     10       6.1068      2.00000
     11       6.2384      2.00000
     12       6.5160      2.00000
     13       6.8387      2.00000
     14       7.0538      2.00000
     15       7.1204      2.00000
     16       7.3990      2.00000
     17       7.4685      2.00000
     18       8.1176      2.00000
     19       8.2644      2.00004
     20       8.7938      1.86325
     21       9.3073     -0.01927
     22       9.6111     -0.00001
     23      13.0879     -0.00000
     24      15.2434      0.00000
     25      16.9385      0.00000
     26      18.1323      0.00000
     27      19.6180      0.00000
     28      19.8693      0.00000
     29      21.9399      0.00000
     30      23.1275      0.00000

 k-point    12 :       0.0000    0.4000    0.2000
  band No.  band energies     occupation 
      1       2.3809      2.00000
      2       3.6017      2.00000
      3       4.0299      2.00000
      4       4.2235      2.00000
      5       4.5597      2.00000
      6       4.7257      2.00000
      7       5.3257      2.00000
      8       5.6924      2.00000
      9       5.7098      2.00000
     10       6.2746      2.00000
     11       6.2960      2.00000
     12       6.5948      2.00000
     13       7.0183      2.00000
     14       7.0487      2.00000
     15       7.3044      2.00000
     16       7.3837      2.00000
     17       7.4940      2.00000
     18       8.0097      2.00000
     19       8.1314      2.00000
     20       8.5916      2.04267
     21       8.7969      1.84976
     22       9.1215     -0.05270
     23      13.6184     -0.00000
     24      15.1518      0.00000
     25      16.8248      0.00000
     26      18.4177      0.00000
     27      19.4141      0.00000
     28      19.6865      0.00000
     29      21.7418      0.00000
     30      23.4352      0.00000

 k-point    13 :       0.2000    0.0000    0.4000
  band No.  band energies     occupation 
      1       2.4253      2.00000
      2       3.6068      2.00000
      3       4.2338      2.00000
      4       4.3514      2.00000
      5       4.6286      2.00000
      6       4.8956      2.00000
      7       5.0878      2.00000
      8       5.3487      2.00000
      9       5.4740      2.00000
     10       6.2042      2.00000
     11       6.3964      2.00000
     12       6.5421      2.00000
     13       6.9184      2.00000
     14       7.0772      2.00000
     15       7.1142      2.00000
     16       7.4985      2.00000
     17       7.6517      2.00000
     18       7.8372      2.00000
     19       8.2848      2.00007
     20       8.5397      2.02199
     21       8.9667      0.60967
     22       9.2135     -0.05774
     23      13.4686     -0.00000
     24      15.1986      0.00000
     25      16.9088      0.00000
     26      18.0087      0.00000
     27      19.4116      0.00000
     28      20.2142      0.00000
     29      22.0004      0.00000
     30      23.0340      0.00000

 k-point    14 :      -0.2000    0.4000    0.0000
  band No.  band energies     occupation 
      1       2.4182      2.00000
      2       3.5871      2.00000
      3       4.0786      2.00000
      4       4.2298      2.00000
      5       4.5833      2.00000
      6       4.6988      2.00000
      7       5.3002      2.00000
      8       5.6980      2.00000
      9       5.9103      2.00000
     10       6.2418      2.00000
     11       6.2589      2.00000
     12       6.5064      2.00000
     13       7.0311      2.00000
     14       7.0929      2.00000
     15       7.2606      2.00000
     16       7.4050      2.00000
     17       7.4860      2.00000
     18       8.0487      2.00000
     19       8.2049      2.00001
     20       8.4919      2.01005
     21       8.6811      2.07052
     22       8.9516      0.72906
     23      13.5356     -0.00000
     24      15.2029      0.00000
     25      16.8989      0.00000
     26      18.3800      0.00000
     27      19.3921      0.00000
     28      19.8305      0.00000
     29      22.0360      0.00000
     30      23.0752      0.00000

 k-point    15 :      -0.4000    0.0000    0.2000
  band No.  band energies     occupation 
      1       2.1367      2.00000
      2       3.7981      2.00000
      3       4.0893      2.00000
      4       4.1712      2.00000
      5       4.6305      2.00000
      6       4.8288      2.00000
      7       5.2018      2.00000
      8       5.4837      2.00000
      9       5.4924      2.00000
     10       6.2732      2.00000
     11       6.3585      2.00000
     12       6.5704      2.00000
     13       6.8388      2.00000
     14       7.0362      2.00000
     15       7.1106      2.00000
     16       7.4521      2.00000
     17       7.4781      2.00000
     18       7.9495      2.00000
     19       8.3873      2.00111
     20       8.8317      1.66695
     21       9.2470     -0.04251
     22       9.5609     -0.00006
     23      13.0602     -0.00000
     24      15.2981      0.00000
     25      16.9030      0.00000
     26      18.1013      0.00000
     27      19.5334      0.00000
     28      19.7993      0.00000
     29      22.0286      0.00000
     30      23.0209      0.00000

 k-point    16 :       0.0000    0.2000    0.4000
  band No.  band energies     occupation 
      1       2.3934      2.00000
      2       3.5892      2.00000
      3       4.2328      2.00000
      4       4.4009      2.00000
      5       4.6606      2.00000
      6       4.8198      2.00000
      7       5.0491      2.00000
      8       5.4486      2.00000
      9       5.4738      2.00000
     10       6.0829      2.00000
     11       6.2602      2.00000
     12       6.5765      2.00000
     13       6.9090      2.00000
     14       7.0406      2.00000
     15       7.1665      2.00000
     16       7.4284      2.00000
     17       7.5259      2.00000
     18       8.0821      2.00000
     19       8.2503      2.00002
     20       8.4611      2.00562
     21       9.2219     -0.05404
     22       9.3435     -0.01057
     23      13.5695     -0.00000
     24      15.0893      0.00000
     25      16.8759      0.00000
     26      18.0709      0.00000
     27      19.5135      0.00000
     28      20.1322      0.00000
     29      21.6415      0.00000
     30      23.5045      0.00000

 k-point    17 :       0.4000    0.4000    0.0000
  band No.  band energies     occupation 
      1       3.2632      2.00000
      2       4.1839      2.00000
      3       4.4002      2.00000
      4       4.6379      2.00000
      5       4.8362      2.00000
      6       5.0089      2.00000
      7       5.0744      2.00000
      8       5.1692      2.00000
      9       5.2244      2.00000
     10       5.8028      2.00000
     11       5.9720      2.00000
     12       6.1522      2.00000
     13       6.6530      2.00000
     14       6.7184      2.00000
     15       7.0394      2.00000
     16       7.1192      2.00000
     17       7.2408      2.00000
     18       7.9103      2.00000
     19       8.2017      2.00000
     20       8.3457      2.00039
     21       8.7542      1.99204
     22       9.8694     -0.00000
     23      11.4862     -0.00000
     24      12.9537     -0.00000
     25      18.7889      0.00000
     26      19.0154      0.00000
     27      20.4872      0.00000
     28      21.1967      0.00000
     29      21.2477      0.00000
     30      21.7261      0.00000

 k-point    18 :       0.0000    0.4000    0.4000
  band No.  band energies     occupation 
      1       3.1679      2.00000
      2       3.9465      2.00000
      3       4.3222      2.00000
      4       4.6391      2.00000
      5       4.8496      2.00000
      6       5.0013      2.00000
      7       5.0194      2.00000
      8       5.1810      2.00000
      9       5.3252      2.00000
     10       5.7812      2.00000
     11       6.0874      2.00000
     12       6.2337      2.00000
     13       6.6234      2.00000
     14       6.8442      2.00000
     15       6.9619      2.00000
     16       7.0152      2.00000
     17       7.2043      2.00000
     18       7.8212      2.00000
     19       8.4357      2.00333
     20       8.6059      2.04928
     21       8.8455      1.57840
     22       9.6704     -0.00000
     23      12.0549     -0.00000
     24      13.0023     -0.00000
     25      18.5281      0.00000
     26      18.7172      0.00000
     27      20.4080      0.00000
     28      20.4767      0.00000
     29      21.1377      0.00000
     30      22.1861      0.00000

 k-point    19 :       0.4000    0.0000    0.4000
  band No.  band energies     occupation 
      1       3.2310      2.00000
      2       4.2921      2.00000
      3       4.4127      2.00000
      4       4.4876      2.00000
      5       4.6960      2.00000
      6       4.8490      2.00000
      7       4.9486      2.00000
      8       5.1412      2.00000
      9       5.5229      2.00000
     10       5.9859      2.00000
     11       6.0841      2.00000
     12       6.2589      2.00000
     13       6.5977      2.00000
     14       6.7162      2.00000
     15       7.0433      2.00000
     16       7.1361      2.00000
     17       7.5237      2.00000
     18       7.6744      2.00000
     19       8.0496      2.00000
     20       8.2287      2.00001
     21       8.9938      0.41420
     22      10.2720     -0.00000
     23      11.0015     -0.00000
     24      12.8288     -0.00000
     25      18.7002      0.00000
     26      18.9988      0.00000
     27      20.7243      0.00000
     28      21.0426      0.00000
     29      21.3718      0.00000
     30      21.5565      0.00000

 k-point    20 :       0.2000    0.2000    0.2000
  band No.  band energies     occupation 
      1       1.5175      2.00000
      2       3.3641      2.00000
      3       3.9837      2.00000
      4       4.0364      2.00000
      5       4.1778      2.00000
      6       4.4919      2.00000
      7       4.6293      2.00000
      8       5.6037      2.00000
      9       6.4326      2.00000
     10       6.4713      2.00000
     11       6.5860      2.00000
     12       6.6704      2.00000
     13       6.8971      2.00000
     14       7.0046      2.00000
     15       7.1254      2.00000
     16       7.5008      2.00000
     17       7.7510      2.00000
     18       8.1613      2.00000
     19       8.3995      2.00148
     20       8.6736      2.07091
     21       9.5273     -0.00015
     22      11.7001     -0.00000
     23      12.4494     -0.00000
     24      12.6671     -0.00000
     25      17.6719      0.00000
     26      17.9161      0.00000
     27      18.5906      0.00000
     28      21.1357      0.00000
     29      21.5409      0.00000
     30      21.7570      0.00000

 k-point    21 :       0.4000    0.2000    0.2000
  band No.  band energies     occupation 
      1       2.3697      2.00000
      2       3.7363      2.00000
      3       4.1864      2.00000
      4       4.4682      2.00000
      5       4.5830      2.00000
      6       4.7358      2.00000
      7       5.2952      2.00000
      8       5.4537      2.00000
      9       5.7224      2.00000
     10       5.9840      2.00000
     11       6.4049      2.00000
     12       6.4873      2.00000
     13       6.5332      2.00000
     14       6.8869      2.00000
     15       6.9647      2.00000
     16       7.3607      2.00000
     17       7.5618      2.00000
     18       8.0301      2.00000
     19       8.4443      2.00399
     20       8.6875      2.06942
     21       9.3145     -0.01721
     22       9.6140     -0.00001
     23      13.7929     -0.00000
     24      13.8550     -0.00000
     25      15.5065      0.00000
     26      16.3004      0.00000
     27      20.0876      0.00000
     28      21.5632      0.00000
     29      22.1861      0.00000
     30      22.4301      0.00000

 k-point    22 :       0.2000    0.4000    0.2000
  band No.  band energies     occupation 
      1       2.5704      2.00000
      2       3.5820      2.00000
      3       4.0106      2.00000
      4       4.4069      2.00000
      5       4.6831      2.00000
      6       4.7827      2.00000
      7       5.4858      2.00000
      8       5.5507      2.00000
      9       5.7027      2.00000
     10       6.0489      2.00000
     11       6.4696      2.00000
     12       6.5371      2.00000
     13       6.6896      2.00000
     14       6.7756      2.00000
     15       6.9962      2.00000
     16       7.0681      2.00000
     17       7.8521      2.00000
     18       7.9837      2.00000
     19       8.1417      2.00000
     20       8.5730      2.03448
     21       9.0642      0.06291
     22       9.5048     -0.00028
     23      13.8326     -0.00000
     24      14.0925     -0.00000
     25      15.6236      0.00000
     26      16.0963      0.00000
     27      20.1759      0.00000
     28      21.6368      0.00000
     29      22.3042      0.00000
     30      22.4400      0.00000

 k-point    23 :       0.2000    0.2000    0.4000
  band No.  band energies     occupation 
      1       2.5784      2.00000
      2       3.5894      2.00000
      3       4.1427      2.00000
      4       4.5180      2.00000
      5       4.5989      2.00000
      6       4.9192      2.00000
      7       5.1757      2.00000
      8       5.4903      2.00000
      9       5.6326      2.00000
     10       5.9323      2.00000
     11       6.3792      2.00000
     12       6.4853      2.00000
     13       6.6372      2.00000
     14       6.9320      2.00000
     15       6.9477      2.00000
     16       7.2267      2.00000
     17       7.7488      2.00000
     18       8.0160      2.00000
     19       8.3606      2.00057
     20       8.4794      2.00800
     21       9.2110     -0.05883
     22       9.5600     -0.00006
     23      13.8212     -0.00000
     24      14.0408     -0.00000
     25      15.5862      0.00000
     26      16.1960      0.00000
     27      20.0930      0.00000
     28      21.4077      0.00000
     29      22.2646      0.00000
     30      22.5239      0.00000

 k-point    24 :       0.4000    0.4000    0.2000
  band No.  band energies     occupation 
      1       3.0011      2.00000
      2       3.5580      2.00000
      3       3.8747      2.00000
      4       4.2637      2.00000
      5       5.0782      2.00000
      6       5.3515      2.00000
      7       5.5945      2.00000
      8       5.7706      2.00000
      9       5.9510      2.00000
     10       6.0665      2.00000
     11       6.2895      2.00000
     12       6.4111      2.00000
     13       6.4481      2.00000
     14       6.4556      2.00000
     15       6.7084      2.00000
     16       6.8186      2.00000
     17       7.3853      2.00000
     18       8.0260      2.00000
     19       8.3748      2.00081
     20       8.7701      1.94932
     21       8.9324      0.88745
     22      10.1148     -0.00000
     23      11.4359     -0.00000
     24      12.6544     -0.00000
     25      15.7523      0.00000
     26      17.5146      0.00000
     27      17.9107      0.00000
     28      19.8967      0.00000
     29      22.8715      0.00000
     30      24.6899      0.00000

 k-point    25 :       0.2000    0.4000    0.4000
  band No.  band energies     occupation 
      1       2.9903      2.00000
      2       3.5860      2.00000
      3       3.6447      2.00000
      4       4.2504      2.00000
      5       5.0775      2.00000
      6       5.3693      2.00000
      7       5.6022      2.00000
      8       5.8195      2.00000
      9       5.9601      2.00000
     10       6.0495      2.00000
     11       6.3121      2.00000
     12       6.3380      2.00000
     13       6.4503      2.00000
     14       6.4890      2.00000
     15       6.7304      2.00000
     16       6.8058      2.00000
     17       7.4563      2.00000
     18       8.0154      2.00000
     19       8.5499      2.02544
     20       8.7332      2.03227
     21       8.9220      0.97519
     22       9.9956     -0.00000
     23      11.9224     -0.00000
     24      12.8310     -0.00000
     25      15.4899      0.00000
     26      17.0698      0.00000
     27      17.9708      0.00000
     28      19.8662      0.00000
     29      22.9477      0.00000
     30      24.5267      0.00000

 k-point    26 :       0.4000    0.2000    0.4000
  band No.  band energies     occupation 
      1       2.9967      2.00000
      2       3.5905      2.00000
      3       3.9022      2.00000
      4       4.0951      2.00000
      5       5.0390      2.00000
      6       5.2561      2.00000
      7       5.5288      2.00000
      8       5.9944      2.00000
      9       6.0598      2.00000
     10       6.1796      2.00000
     11       6.2842      2.00000
     12       6.3801      2.00000
     13       6.4889      2.00000
     14       6.5395      2.00000
     15       6.5979      2.00000
     16       6.8613      2.00000
     17       7.5136      2.00000
     18       7.7920      2.00000
     19       8.1636      2.00000
     20       8.9218      0.97730
     21       9.0758      0.02861
     22      10.4626     -0.00000
     23      10.9868     -0.00000
     24      12.5747     -0.00000
     25      15.7327      0.00000
     26      17.5737      0.00000
     27      17.8872      0.00000
     28      19.9598      0.00000
     29      22.7474      0.00000
     30      24.7403      0.00000

 k-point    27 :       0.4000    0.4000    0.4000
  band No.  band energies     occupation 
      1       2.9166      2.00000
      2       3.0238      2.00000
      3       3.2576      2.00000
      4       3.6451      2.00000
      5       5.4535      2.00000
      6       5.5459      2.00000
      7       5.8344      2.00000
      8       5.9242      2.00000
      9       6.1313      2.00000
     10       6.2900      2.00000
     11       6.3942      2.00000
     12       6.5149      2.00000
     13       6.8914      2.00000
     14       6.9957      2.00000
     15       7.4340      2.00000
     16       7.5985      2.00000
     17       7.8636      2.00000
     18       8.2446      2.00002
     19       8.3869      2.00109
     20       8.7711      1.94624
     21       9.3794     -0.00536
     22      10.3002     -0.00000
     23      10.7486     -0.00000
     24      10.9949     -0.00000
     25      14.9234      0.00000
     26      15.3925      0.00000
     27      16.2135      0.00000
     28      17.7143      0.00000
     29      25.4379      0.00000
     30      25.5574      0.00000


--------------------------------------------------------------------------------------------------------


 soft charge-density along one line, spin component           1
         0         1         2         3         4         5         6         7         8         9
x    23.5493    0.0000   -1.2458    0.0000    0.9036    0.0000    0.2419    0.0000   -0.5372    0.0000
x    -0.0151    0.0000    0.0000    0.0000
y    23.5493    0.0000    1.3797    0.0000    0.9534    0.0000   -0.3298   -0.0000   -0.5087    0.0000
y     0.0249    0.0000    0.0000    0.0000
z    23.5493    0.0000    0.3315    0.0000    0.9526    0.0000   -0.1758   -0.0000   -0.5230    0.0000
z     0.0015    0.0000    0.0000    0.0000
 total charge-density along one line
x    39.9999    0.0000    3.7865   -0.0000   10.6984   -0.0000    3.1029   -0.0000    1.2542   -0.0000
x     0.4428   -0.0000    0.0324    0.0000   -0.0177   -0.0000    0.0017   -0.0000    0.0065    0.0000
x     0.0019    0.0000   -0.0012   -0.0000   -0.0018    0.0000
y    39.9999    0.0000   -0.9557    0.0000   10.7941    0.0000   -1.8402    0.0000    1.3180   -0.0000
y    -0.3232    0.0000    0.0158   -0.0000    0.0337   -0.0000   -0.0021   -0.0000   -0.0086    0.0000
y     0.0020   -0.0000    0.0020    0.0000   -0.0017    0.0000
z    39.9999    0.0000   -2.7511    0.0000   10.7610    0.0000   -2.1098    0.0000    1.2740   -0.0000
z    -0.3898   -0.0000    0.0215   -0.0000    0.0222   -0.0000   -0.0002   -0.0000   -0.0070    0.0000
z     0.0020   -0.0000    0.0015    0.0000   -0.0018    0.0000
 
 pseudopotential strength for first ion, spin component:           1
 -3.276   0.000   0.000  -0.000  -0.000  -3.473   0.000   0.000
  0.000  -3.191  -0.000  -0.000  -0.000   0.000  -3.391  -0.000
  0.000  -0.000  -3.200   0.000  -0.009   0.000  -0.000  -3.400
 -0.000  -0.000   0.000  -3.246   0.000  -0.000  -0.000   0.000
 -0.000  -0.000  -0.009   0.000  -3.213  -0.000  -0.000  -0.009
 -3.473   0.000   0.000  -0.000  -0.000  -3.638   0.000   0.000
  0.000  -3.391  -0.000  -0.000  -0.000   0.000  -3.560  -0.000
  0.000  -0.000  -3.400   0.000  -0.009   0.000  -0.000  -3.568
 -0.000  -0.000   0.000  -3.444   0.000  -0.000  -0.000   0.000
 -0.000  -0.000  -0.009   0.000  -3.412  -0.000  -0.000  -0.009
  0.000   0.000  -0.009  -0.000   0.006   0.000   0.000  -0.009
  0.000   0.000  -0.016  -0.000   0.010   0.000   0.000  -0.015
  0.000   0.000   0.000  -0.000   0.000   0.000   0.000   0.000
 -0.000  -0.000   0.000   0.000  -0.000  -0.000  -0.000   0.000
 -0.000  -0.000  -0.000   0.000   0.000  -0.000  -0.000  -0.000
  0.000   0.000   0.000  -0.000   0.000   0.000   0.000   0.000
 -0.000  -0.000   0.000   0.000  -0.000  -0.000  -0.000   0.000
 -0.000  -0.000  -0.000   0.000   0.000  -0.000  -0.000  -0.000
 total augmentation occupancy for first ion, spin component:           1
  2.274   0.000  -0.000   0.000   0.000  -3.039   0.000   0.000   0.000   0.000   0.000   0.000   0.000   0.000   0.000   0.000
  0.000   3.827   0.000   0.000   0.000   0.000  -3.970   0.000   0.000   0.000   0.000   0.000   0.000   0.000   0.000   0.000
  0.000   0.000   2.276   0.000  -0.397   0.000   0.000  -2.483   0.000   0.255   0.331  -0.115   0.000   0.000   0.000   0.000
  0.000  -0.000   0.000   3.081   0.000   0.000  -0.000   0.000  -3.597   0.000   0.000   0.000   0.000   0.000   0.000   0.000
  0.000   0.000  -0.397   0.000   3.052  -0.000   0.000   0.259   0.000  -3.046  -0.610   0.227   0.000   0.000   0.000   0.000
 -3.039   0.000  -0.000   0.000  -0.000   5.539   0.000   0.000   0.000   0.000   0.000   0.000   0.000   0.000   0.000   0.000
  0.000  -3.970   0.000  -0.000   0.000   0.000   6.086   0.000   0.000   0.000   0.000   0.000   0.000   0.000   0.000   0.000
  0.000   0.000  -2.483   0.000   0.259  -0.000   0.000   4.599   0.000  -0.182  -0.275   0.084   0.000   0.000   0.000   0.000
  0.000   0.000   0.000  -3.597   0.000   0.000   0.000   0.000   5.893   0.000   0.000   0.000   0.000   0.000   0.000   0.000
 -0.000   0.000   0.255   0.000  -3.046   0.000   0.000  -0.182   0.000   5.011   0.547  -0.219   0.000   0.000   0.000   0.000
  0.000   0.000   0.331   0.000  -0.610   0.000   0.000  -0.275   0.000   0.547   2.145  -0.459   0.000   0.000   0.000   0.000
  0.000   0.000  -0.115   0.000   0.227   0.000   0.000   0.084   0.000  -0.219  -0.459   0.199   0.000   0.000   0.000   0.000
  0.000   0.000   0.000   0.000   0.000   0.000   0.000   0.000   0.000   0.000   0.000   0.000   0.403   0.000   0.000  -0.080
  0.000   0.000   0.000   0.000   0.000   0.000   0.000   0.000   0.000   0.000   0.000   0.000   0.000   0.404   0.000   0.000
  0.000   0.000   0.000   0.000   0.000   0.000   0.000   0.000   0.000   0.000   0.000   0.000  -0.000   0.000   0.425  -0.000
  0.000   0.000   0.000   0.000   0.000   0.000   0.000   0.000   0.000   0.000   0.000   0.000  -0.080   0.000   0.000   0.029
  0.000   0.000   0.000   0.000   0.000   0.000   0.000   0.000   0.000   0.000   0.000   0.000   0.000  -0.086   0.000   0.000
  0.000   0.000   0.000   0.000   0.000   0.000   0.000   0.000   0.000   0.000   0.000   0.000  -0.000   0.000  -0.062   0.000


------------------------ aborting loop because EDIFF is reached ----------------------------------------


    CHARGE:  cpu time    0.0101: real time    0.0101
    FORLOC:  cpu time    0.0006: real time    0.0006
    FORNL :  cpu time    0.0585: real time    0.0585
    STRESS:  cpu time    0.1062: real time    0.1062
    FORCOR:  cpu time    0.0045: real time    0.0045
    FORHAR:  cpu time    0.0012: real time    0.0012
    MIXING:  cpu time    0.0002: real time    0.0002

  FORCE on cell =-STRESS in cart. coord.  units (eV):
  Direction    XX          YY          ZZ          XY          YZ          ZX
  --------------------------------------------------------------------------------------
  Alpha Z   244.65455   244.65455   244.65455
  Ewald   -1143.04101 -1137.78808 -1143.04101     0.00000     0.00000     0.00000
  Hartree   189.87449   201.44574   193.54066    -0.00000    -0.00000    -0.00000
  E(xc)    -203.15248  -202.97899  -203.09683    -0.00000     0.00000    -0.00000
  Local     159.97816   146.67633   159.43652    -0.00000    -0.00000     0.00000
  n-local  -142.50493  -140.29004  -143.41235     6.35078     8.15022     6.72975
  augment   261.17394   259.34261   260.57921     0.00000    -0.00000     0.00000
  Kinetic   531.56100   526.98907   528.52438     2.13589     2.94213     1.79589
  Fock        0.00000     0.00000     0.00000     0.00000     0.00000     0.00000
  -------------------------------------------------------------------------------------
  Total    -101.45627  -101.94881  -102.81487    -0.00000     0.00000     0.00000
  in kB   -2813.22137 -2826.87870 -2850.89322    -0.00000     0.00000     0.00000
  external pressure =    -2830.33 kB  Pullay stress =        0.00 kB


 VOLUME and BASIS-vectors are now :
 -----------------------------------------------------------------------------
  energy-cutoff  :      170.00
  volume of cell :       57.78
      direct lattice vectors                 reciprocal lattice vectors
     3.866000000  0.000000000  0.000000000     0.258665287  0.000000000  0.000000000
     0.000000000  3.866000000  0.000000000     0.000000000  0.258665287  0.000000000
     0.000000000  0.000000000  3.866000000     0.000000000  0.000000000  0.258665287

  length of vectors
     3.866000000  3.866000000  3.866000000     0.258665287  0.258665287  0.258665287


 FORCES acting on ions
    electron-ion (+dipol)            ewald-force                    non-local-force                 convergence-correction
 -----------------------------------------------------------------------------------------------
   -.113E-12 -.204E-14 -.150E-13   0.892E-14 -.838E-14 -.466E-14   -.955E-25 0.185E-25 -.313E-26   0.150E-12 -.945E-14 -.374E-13
   0.250E-13 0.906E-13 -.248E-13   0.112E-14 0.145E-13 -.285E-14   -.468E-24 0.597E-26 0.429E-26   -.259E-12 -.114E-13 -.142E-13
   0.570E-13 -.899E-14 0.166E-12   -.749E-14 -.139E-13 0.598E-14   -.499E-24 -.201E-26 0.521E-28   -.882E-13 -.611E-15 -.666E-14
   -.252E-12 0.780E-12 0.777E-12   -.120E-14 0.656E-14 0.190E-14   -.295E-24 -.396E-26 0.469E-28   0.365E-12 -.190E-12 -.140E-12
 -----------------------------------------------------------------------------------------------
   -.283E-12 0.860E-12 0.904E-12   0.135E-14 -.120E-14 0.371E-15   -.136E-23 0.185E-25 0.126E-26   0.168E-12 -.212E-12 -.198E-12
 
 
 POSITION                                       TOTAL-FORCE (eV/Angst)
 -----------------------------------------------------------------------------------
      0.00000      0.00000      0.00000        -0.000000      0.000000      0.000000
      1.93300      1.93300      0.00000         0.000000     -0.000000      0.000000
      1.93300      0.00000      1.93300        -0.000000      0.000000     -0.000000
      0.00000      1.93300      1.93300        -0.000000     -0.000000     -0.000000
 -----------------------------------------------------------------------------------
    total drift:                               -0.000000      0.000000      0.000000


--------------------------------------------------------------------------------------------------------



  FREE ENERGIE OF THE ION-ELECTRON SYSTEM (eV)
  ---------------------------------------------------
  free  energy   TOTEN  =       -14.36484240 eV

  energy  without entropy=      -14.36406216  energy(sigma->0) =      -14.36458232
 


--------------------------------------------------------------------------------------------------------


    POTLOK:  cpu time    0.0072: real time    0.0072


--------------------------------------------------------------------------------------------------------


 writing wavefunctions
     LOOP+:  cpu time    1.2569: real time    1.2827
    4ORBIT:  cpu time    0.0000: real time    0.0000

 total amount of memory used by VASP MPI-rank0    40555. kBytes
=======================================================================

   base      :      30000. kBytes
   nonl-proj :       4606. kBytes
   grid      :       1131. kBytes
   one-center:         62. kBytes
   wavefun   :       4756. kBytes
 
  
  
 General timing and accounting informations for this job:
 ========================================================
  
                  Total CPU time used (sec):        1.428
                            User time (sec):        1.396
                          System time (sec):        0.032
                         Elapsed time (sec):        1.446
  
                   Maximum memory used (kb):       48340.
                   Average memory used (kb):          N/A
  
                          Minor page faults:         5690
                          Major page faults:            0
                 Voluntary context switches:           29
