<?xml version="1.0" encoding="ISO-8859-1"?>
<modeling>
 <generator>
  <i name="program" type="string">vasp </i>
  <i name="version" type="string">6.2.0  </i>
  <i name="subversion" type="string">18Jan21 (build Mar 17 2021 09:06:54) complex                          serial </i>
  <i name="platform" type="string">LinuxIFC </i>
  <i name="date" type="string">2021 06 11 </i>
  <i name="time" type="string">12:20:42 </i>
 </generator>
 <incar>
  <i type="string" name="PREC">normal</i>
  <i type="int" name="ICHARG">     1</i>
  <i type="int" name="IBRION">    -1</i>
  <i name="EDIFF">      0.00000100</i>
  <i type="int" name="NSW">     0</i>
  <i name="ENCUT">    170.00000000</i>
  <i type="int" name="NBANDS">    30</i>
  <i type="int" name="ISMEAR">     1</i>
  <i name="SIGMA">      0.20000000</i>
  <i type="logical" name="LCHARG"> T  </i>
  <i type="int" name="KPAR">     1</i>
  <i type="int" name="NCORE">     1</i>
  <i type="string" name="GGA">PE</i>
 </incar>
 <primitive_cell>
  <structure name="primitive_cell" >
   <crystal>
    <varray name="basis" >
     <v>       3.86600000       0.00000000       0.00000000 </v>
     <v>       0.00000000       3.86600000       0.00000000 </v>
     <v>       0.00000000       0.00000000       3.86600000 </v>
    </varray>
    <i name="volume">     57.78106590 </i>
    <varray name="rec_basis" >
     <v>       0.25866529       0.00000000       0.00000000 </v>
     <v>       0.00000000       0.25866529       0.00000000 </v>
     <v>       0.00000000       0.00000000       0.25866529 </v>
    </varray>
   </crystal>
   <varray name="positions" >
    <v>       0.00000000       0.00000000       0.00000000 </v>
    <v>       0.50000000       0.50000000       0.00000000 </v>
    <v>       0.50000000       0.00000000       0.50000000 </v>
    <v>       0.00000000       0.50000000       0.50000000 </v>
   </varray>
  </structure>
  <varray name="primitive_index" >
   <v type="int" >        1 </v>
   <v type="int" >        2 </v>
   <v type="int" >        3 </v>
   <v type="int" >        4 </v>
  </varray>
 </primitive_cell>
 <kpoints>
  <generation param="Monkhorst-Pack">
   <v type="int" name="divisions">       5        5        5 </v>
   <v name="usershift">      0.00000000       0.00000000       0.00000000 </v>
   <v name="genvec1">      0.20000000       0.00000000       0.00000000 </v>
   <v name="genvec2">      0.00000000       0.20000000       0.00000000 </v>
   <v name="genvec3">      0.00000000       0.00000000       0.20000000 </v>
   <v name="shift">      0.00000000       0.00000000       0.00000000 </v>
  </generation>
  <varray name="kpointlist" >
   <v>       0.00000000       0.00000000       0.00000000 </v>
   <v>       0.20000000       0.00000000       0.00000000 </v>
   <v>       0.00000000       0.20000000       0.00000000 </v>
   <v>       0.00000000       0.00000000       0.20000000 </v>
   <v>       0.40000000       0.00000000       0.00000000 </v>
   <v>       0.00000000       0.40000000       0.00000000 </v>
   <v>       0.00000000       0.00000000       0.40000000 </v>
   <v>       0.20000000       0.20000000       0.00000000 </v>
   <v>       0.00000000       0.20000000       0.20000000 </v>
   <v>       0.20000000       0.00000000       0.20000000 </v>
   <v>       0.40000000       0.20000000       0.00000000 </v>
   <v>       0.00000000       0.40000000       0.20000000 </v>
   <v>       0.20000000       0.00000000       0.40000000 </v>
   <v>      -0.20000000       0.40000000       0.00000000 </v>
   <v>      -0.40000000       0.00000000       0.20000000 </v>
   <v>       0.00000000       0.20000000       0.40000000 </v>
   <v>       0.40000000       0.40000000       0.00000000 </v>
   <v>       0.00000000       0.40000000       0.40000000 </v>
   <v>       0.40000000       0.00000000       0.40000000 </v>
   <v>       0.20000000       0.20000000       0.20000000 </v>
   <v>       0.40000000       0.20000000       0.20000000 </v>
   <v>       0.20000000       0.40000000       0.20000000 </v>
   <v>       0.20000000       0.20000000       0.40000000 </v>
   <v>       0.40000000       0.40000000       0.20000000 </v>
   <v>       0.20000000       0.40000000       0.40000000 </v>
   <v>       0.40000000       0.20000000       0.40000000 </v>
   <v>       0.40000000       0.40000000       0.40000000 </v>
  </varray>
  <varray name="weights" >
   <v>       0.00800000 </v>
   <v>       0.01600000 </v>
   <v>       0.01600000 </v>
   <v>       0.01600000 </v>
   <v>       0.01600000 </v>
   <v>       0.01600000 </v>
   <v>       0.01600000 </v>
   <v>       0.03200000 </v>
   <v>       0.03200000 </v>
   <v>       0.03200000 </v>
   <v>       0.03200000 </v>
   <v>       0.03200000 </v>
   <v>       0.03200000 </v>
   <v>       0.03200000 </v>
   <v>       0.03200000 </v>
   <v>       0.03200000 </v>
   <v>       0.03200000 </v>
   <v>       0.03200000 </v>
   <v>       0.03200000 </v>
   <v>       0.06400000 </v>
   <v>       0.06400000 </v>
   <v>       0.06400000 </v>
   <v>       0.06400000 </v>
   <v>       0.06400000 </v>
   <v>       0.06400000 </v>
   <v>       0.06400000 </v>
   <v>       0.06400000 </v>
  </varray>
 </kpoints>
 <parameters>
  <separator name="general" >
   <i type="string" name="SYSTEM">unknown system</i>
   <i type="logical" name="LCOMPAT"> F  </i>
  </separator>
  <separator name="electronic" >
   <i type="string" name="PREC">normal</i>
   <i name="ENMAX">    170.00000000</i>
   <i name="ENAUG">    586.98000000</i>
   <i name="EDIFF">      0.00000100</i>
   <i type="int" name="IALGO">    38</i>
   <i type="int" name="IWAVPR">     0</i>
   <i type="int" name="NBANDS">    30</i>
   <i type="int" name="NBANDSLOW">    -1</i>
   <i type="int" name="NBANDSHIGH">    -1</i>
   <i name="NELECT">     40.00000000</i>
   <i type="int" name="TURBO">     0</i>
   <i type="int" name="IRESTART">     0</i>
   <i type="int" name="NREBOOT">     0</i>
   <i type="int" name="NMIN">     0</i>
   <i name="EREF">      0.00000000</i>
   <separator name="electronic smearing" >
    <i type="int" name="ISMEAR">     1</i>
    <i name="SIGMA">      0.20000000</i>
    <i name="KSPACING">      0.50000000</i>
    <i type="logical" name="KGAMMA"> T  </i>
    <i type="logical" name="KBLOWUP"> T  </i>
   </separator>
   <separator name="electronic projectors" >
    <i type="logical" name="LREAL"> F  </i>
    <v name="ROPT">      0.00000000      0.00000000      0.00000000      0.00000000</v>
    <i type="int" name="LMAXPAW">  -100</i>
    <i type="int" name="LMAXMIX">     2</i>
    <i type="logical" name="NLSPLINE"> F  </i>
   </separator>
   <separator name="electronic startup" >
    <i type="int" name="ISTART">     1</i>
    <i type="int" name="ICHARG">     1</i>
    <i type="int" name="INIWAV">     1</i>
   </separator>
   <separator name="electronic spin" >
    <i type="int" name="ISPIN">     1</i>
    <i type="logical" name="LNONCOLLINEAR"> F  </i>
    <v name="MAGMOM">      1.00000000      1.00000000      1.00000000      1.00000000</v>
    <i name="NUPDOWN">     -1.00000000</i>
    <i type="logical" name="LSORBIT"> F  </i>
    <v name="SAXIS">      0.00000000      0.00000000      1.00000000</v>
    <i type="logical" name="LSPIRAL"> F  </i>
    <v name="QSPIRAL">      0.00000000      0.00000000      0.00000000</v>
    <i type="logical" name="LZEROZ"> F  </i>
   </separator>
   <separator name="electronic exchange-correlation" >
    <i type="logical" name="LASPH"> F  </i>
    <i type="logical" name="LMETAGGA"> F  </i>
   </separator>
   <separator name="electronic convergence" >
    <i type="int" name="NELM">    60</i>
    <i type="int" name="NELMDL">     0</i>
    <i type="int" name="NELMIN">     2</i>
    <i name="ENINI">    170.00000000</i>
    <separator name="electronic convergence detail" >
     <i type="logical" name="LDIAG"> T  </i>
     <i type="logical" name="LSUBROT"> F  </i>
     <i name="WEIMIN">      0.00000000</i>
     <i name="EBREAK">      0.00000001</i>
     <i name="DEPER">      0.30000000</i>
     <i type="int" name="NRMM">     4</i>
     <i name="TIME">      0.40000000</i>
    </separator>
   </separator>
   <separator name="electronic mixer" >
    <i name="AMIX">      0.40000000</i>
    <i name="BMIX">      1.00000000</i>
    <i name="AMIN">      0.10000000</i>
    <i name="AMIX_MAG">      1.60000000</i>
    <i name="BMIX_MAG">      1.00000000</i>
    <separator name="electronic mixer details" >
     <i type="int" name="IMIX">     4</i>
     <i type="logical" name="MIXFIRST"> F  </i>
     <i type="int" name="MAXMIX">   -45</i>
     <i name="WC">    100.00000000</i>
     <i type="int" name="INIMIX">     1</i>
     <i type="int" name="MIXPRE">     1</i>
     <i type="int" name="MREMOVE">     5</i>
    </separator>
   </separator>
   <separator name="electronic dipolcorrection" >
    <i type="logical" name="LDIPOL"> F  </i>
    <i type="logical" name="LMONO"> F  </i>
    <i type="int" name="IDIPOL">     0</i>
    <i name="EPSILON">      1.00000000</i>
    <v name="DIPOL">   -100.00000000   -100.00000000   -100.00000000</v>
    <i name="EFIELD">      0.00000000</i>
   </separator>
  </separator>
  <separator name="grids" >
   <i type="int" name="NGX">    12</i>
   <i type="int" name="NGY">    12</i>
   <i type="int" name="NGZ">    12</i>
   <i type="int" name="NGXF">    24</i>
   <i type="int" name="NGYF">    24</i>
   <i type="int" name="NGZF">    24</i>
   <i type="logical" name="ADDGRID"> F  </i>
  </separator>
  <separator name="ionic" >
   <i type="int" name="NSW">     0</i>
   <i type="int" name="IBRION">    -1</i>
   <i type="int" name="MDALGO">     0</i>
   <i type="int" name="ISIF">     2</i>
   <i name="PSTRESS">      0.00000000</i>
   <i name="EDIFFG">      0.00001000</i>
   <i type="int" name="NFREE">     0</i>
   <i name="POTIM">      0.50000000</i>
   <i name="SMASS">     -3.00000000</i>
   <i name="SCALEE">      1.00000000</i>
  </separator>
  <separator name="ionic md" >
   <i name="TEBEG">      0.00010000</i>
   <i name="TEEND">      0.00010000</i>
   <i type="int" name="NBLOCK">     1</i>
   <i type="int" name="KBLOCK">     1</i>
   <i type="int" name="NPACO">   256</i>
   <i name="APACO">     16.00000000</i>
  </separator>
  <separator name="symmetry" >
   <i type="int" name="ISYM">     2</i>
   <i name="SYMPREC">      0.00001000</i>
  </separator>
  <separator name="dos" >
   <i type="int" name="LORBIT">     0</i>
   <v name="RWIGS">     -1.00000000     -1.00000000     -1.00000000     -1.00000000</v>
   <i type="int" name="NEDOS">   301</i>
   <i name="EMIN">     10.00000000</i>
   <i name="EMAX">    -10.00000000</i>
   <i name="EFERMI">      0.00000000</i>
  </separator>
  <separator name="writing" >
   <i type="int" name="NWRITE">     2</i>
   <i type="logical" name="LWAVE"> T  </i>
   <i type="logical" name="LDOWNSAMPLE"> F  </i>
   <i type="logical" name="LCHARG"> T  </i>
   <i type="logical" name="LPARD"> F  </i>
   <i type="logical" name="LVTOT"> F  </i>
   <i type="logical" name="LVHAR"> F  </i>
   <i type="logical" name="LELF"> F  </i>
   <i type="logical" name="LOPTICS"> F  </i>
   <v name="STM">      0.00000000      0.00000000      0.00000000      0.00000000      0.00000000      0.00000000      0.00000000</v>
  </separator>
  <separator name="performance" >
   <i type="int" name="NPAR">     1</i>
   <i type="int" name="NSIM">     4</i>
   <i type="int" name="NBLK">    -1</i>
   <i type="logical" name="LPLANE"> T  </i>
   <i type="logical" name="LSCALAPACK"> F  </i>
   <i type="logical" name="LSCAAWARE"> F  </i>
   <i type="logical" name="LSCALU"> F  </i>
   <i type="logical" name="LASYNC"> F  </i>
   <i type="logical" name="LORBITALREAL"> F  </i>
  </separator>
  <separator name="miscellaneous" >
   <i type="int" name="IDIOT">     3</i>
   <i type="int" name="PHON_NSTRUCT">    -1</i>
   <i type="logical" name="LMUSIC"> F  </i>
   <v name="POMASS">    106.42000000    192.22000000    195.08000000     63.54600000</v>
   <v name="DARWINR">      0.00000000      0.00000000      0.00000000      0.00000000</v>
   <v name="DARWINV">      1.00000000      1.00000000      1.00000000      1.00000000</v>
   <i type="logical" name="LCORR"> T  </i>
  </separator>
  <i type="logical" name="GGA_COMPAT"> T  </i>
  <i type="logical" name="LBERRY"> F  </i>
  <i type="int" name="ICORELEVEL">     0</i>
  <i type="logical" name="LDAU"> F  </i>
  <i type="int" name="I_CONSTRAINED_M">     0</i>
  <separator name="electronic exchange-correlation" >
   <i type="string" name="GGA">PE</i>
   <i type="int" name="VOSKOWN">     0</i>
   <i type="logical" name="LHFCALC"> F  </i>
   <i type="string" name="PRECFOCK"></i>
   <i type="logical" name="LSYMGRAD"> F  </i>
   <i type="logical" name="LHFONE"> F  </i>
   <i type="logical" name="LRHFCALC"> F  </i>
   <i type="logical" name="LTHOMAS"> F  </i>
   <i type="logical" name="LMODELHF"> F  </i>
   <i type="logical" name="LFOCKACE"> F  </i>
   <i name="ENCUT4O">     -1.00000000</i>
   <i type="int" name="EXXOEP">     0</i>
   <i type="int" name="FOURORBIT">     0</i>
   <i name="AEXX">      0.00000000</i>
   <i name="HFALPHA">      0.00000000</i>
   <i name="MCALPHA">      0.00000000</i>
   <i name="ALDAX">      1.00000000</i>
   <i name="AGGAX">      1.00000000</i>
   <i name="ALDAC">      1.00000000</i>
   <i name="AGGAC">      1.00000000</i>
   <i type="int" name="NKREDX">     1</i>
   <i type="int" name="NKREDY">     1</i>
   <i type="int" name="NKREDZ">     1</i>
   <i type="logical" name="SHIFTRED"> F  </i>
   <i type="logical" name="ODDONLY"> F  </i>
   <i type="logical" name="EVENONLY"> F  </i>
   <i type="int" name="LMAXFOCK">     0</i>
   <i type="int" name="NMAXFOCKAE">     0</i>
   <i type="logical" name="LFOCKAEDFT"> F  </i>
   <i name="HFSCREEN">      0.00000000</i>
   <i name="HFSCREENC">      0.00000000</i>
   <i type="int" name="NBANDSGWLOW">     0</i>
  </separator>
  <separator name="vdW DFT" >
   <i type="logical" name="LUSE_VDW"> F  </i>
   <i name="Zab_VDW">     -0.84910000</i>
   <i name="PARAM1">      0.12340000</i>
   <i name="PARAM2">      1.00000000</i>
   <i name="PARAM3">      0.00000000</i>
  </separator>
  <separator name="model GW" >
   <i type="int" name="MODEL_GW">     0</i>
   <i name="MODEL_EPS0">      8.66715988</i>
   <i name="MODEL_ALPHA">      1.00000000</i>
  </separator>
  <separator name="linear response parameters" >
   <i type="logical" name="LEPSILON"> F  </i>
   <i type="logical" name="LRPA"> F  </i>
   <i type="logical" name="LNABLA"> F  </i>
   <i type="logical" name="LVEL"> F  </i>
   <i type="int" name="KINTER">     0</i>
   <i name="CSHIFT">      0.10000000</i>
   <i name="OMEGAMAX">     -1.00000000</i>
   <i name="DEG_THRESHOLD">      0.00200000</i>
   <i name="RTIME">     -0.10000000</i>
   <i name="WPLASMAI">      0.00000000</i>
   <v name="DFIELD">      0.00000000      0.00000000      0.00000000</v>
   <v name="WPLASMA">      0.00000000      0.00000000      0.00000000      0.00000000      0.00000000      0.00000000      0.00000000      0.00000000      0.00000000</v>
  </separator>
  <separator name="orbital magnetization" >
   <i type="logical" name="NUCIND"> F  </i>
   <v name="MAGPOS">      0.00000000      0.00000000      0.00000000</v>
   <i type="logical" name="LNICSALL"> T  </i>
   <i type="logical" name="ORBITALMAG"> F  </i>
   <i type="logical" name="LMAGBLOCH"> F  </i>
   <i type="logical" name="LCHIMAG"> F  </i>
   <i type="logical" name="LGAUGE"> T  </i>
   <i type="int" name="MAGATOM">     0</i>
   <v name="MAGDIPOL">      0.00000000      0.00000000      0.00000000</v>
   <v name="AVECCONST">      0.00000000      0.00000000      0.00000000</v>
  </separator>
  <separator name="response functions" >
   <i type="logical" name="LFINITE_TEMPERATURE"> F  </i>
   <i type="logical" name="LADDER"> F  </i>
   <i type="logical" name="LRPAFORCE"> F  </i>
   <i type="logical" name="LFXC"> F  </i>
   <i type="logical" name="LHARTREE"> T  </i>
   <i type="int" name="IBSE">     0</i>
   <v type="int" name="KPOINT">    -1     0     0     0</v>
   <i type="logical" name="LTCTC"> F  </i>
   <i type="logical" name="LTCTE"> F  </i>
   <i type="logical" name="LTETE"> F  </i>
   <i type="logical" name="LTRIPLET"> F  </i>
   <i type="logical" name="LFXCEPS"> F  </i>
   <i type="logical" name="LFXHEG"> F  </i>
   <i type="int" name="NATURALO">     2</i>
   <i type="logical" name="LHOLEGF"> F  </i>
   <i type="logical" name="L2ORDER"> F  </i>
   <i type="logical" name="LDMP1"> F  </i>
   <i type="logical" name="LMP2LT"> F  </i>
   <i type="logical" name="LSMP2LT"> F  </i>
   <i type="logical" name="LGWLF"> F  </i>
   <i name="ENCUTGW">     -2.00000000</i>
   <i name="ENCUTGWSOFT">     -2.00000000</i>
   <i name="ENCUTLF">     -1.00000000</i>
   <i type="logical" name="LESF_SPLINES"> F  </i>
   <i type="int" name="LMAXMP2">    -1</i>
   <i name="SCISSOR">      0.00000000</i>
   <i type="int" name="NOMEGA">     0</i>
   <i type="int" name="NOMEGAR">     0</i>
   <i type="int" name="NBANDSGW">    -1</i>
   <i type="int" name="NBANDSO">    -1</i>
   <i type="int" name="NBANDSV">    -1</i>
   <i type="int" name="NELM">     1</i>
   <i type="int" name="NELMHF">     1</i>
   <i type="int" name="DIM">     3</i>
   <i type="int" name="IESPILON">     4</i>
   <i type="int" name="ANTIRES">     0</i>
   <i name="OMEGAMAX">    -30.00000000</i>
   <i name="OMEGAMIN">    -30.00000000</i>
   <i name="OMEGATL">   -200.00000000</i>
   <i type="int" name="OMEGAGRID">     0</i>
   <i name="CSHIFT">     -0.10000000</i>
   <i type="logical" name="LSELFENERGY"> F  </i>
   <i type="logical" name="LSPECTRAL"> F  </i>
   <i type="logical" name="LSPECTRALGW"> F  </i>
   <i type="logical" name="LSINGLES"> F  </i>
   <i type="logical" name="LFERMIGW"> F  </i>
   <i type="logical" name="ODDONLYGW"> F  </i>
   <i type="logical" name="EVENONLYGW"> F  </i>
   <i type="int" name="NKREDLFX">     1</i>
   <i type="int" name="NKREDLFY">     1</i>
   <i type="int" name="NKREDLFZ">     1</i>
   <i type="int" name="MAXMEM">  2800</i>
   <i type="int" name="TELESCOPE">     0</i>
   <i type="int" name="NTAUPAR">    -1</i>
   <i type="int" name="NOMEGAPAR">    -1</i>
   <i name="DAMP_NEWTON">      0.80000001</i>
   <i name="LAMBDA">      1.00000000</i>
  </separator>
  <separator name="External order field" >
   <i name="OFIELD_KAPPA">      0.00000000</i>
   <v name="OFIELD_K">      0.00000000      0.00000000      0.00000000</v>
   <i name="OFIELD_Q6_NEAR">      0.00000000</i>
   <i name="OFIELD_Q6_FAR">      0.00000000</i>
   <i name="OFIELD_A">      0.00000000</i>
  </separator>
 </parameters>
 <atominfo>
  <atoms>       4 </atoms>
  <types>       4 </types>
  <array name="atoms" >
   <dimension dim="1">ion</dimension>
   <field type="string">element</field>
   <field type="int">atomtype</field>
   <set>
    <rc><c>Pd</c><c>   1</c></rc>
    <rc><c>Ir</c><c>   2</c></rc>
    <rc><c>Pt</c><c>   3</c></rc>
    <rc><c>Cu</c><c>   4</c></rc>
   </set>
  </array>
  <array name="atomtypes" >
   <dimension dim="1">type</dimension>
   <field type="int">atomspertype</field>
   <field type="string">element</field>
   <field>mass</field>
   <field>valence</field>
   <field type="string">pseudopotential</field>
   <set>
    <rc><c>   1</c><c>Pd</c><c>    106.42000000</c><c>     10.00000000</c><c>  PAW_PBE Pd 04Jan2005                  </c></rc>
    <rc><c>   1</c><c>Ir</c><c>    192.22000000</c><c>      9.00000000</c><c>  PAW_PBE Ir 06Sep2000                  </c></rc>
    <rc><c>   1</c><c>Pt</c><c>    195.08000000</c><c>     10.00000000</c><c>  PAW_PBE Pt 04Feb2005                  </c></rc>
    <rc><c>   1</c><c>Cu</c><c>     63.54600000</c><c>     11.00000000</c><c>  PAW_PBE Cu 22Jun2005                  </c></rc>
   </set>
  </array>
 </atominfo>
 <structure name="initialpos" >
  <crystal>
   <varray name="basis" >
    <v>       3.86600000       0.00000000       0.00000000 </v>
    <v>       0.00000000       3.86600000       0.00000000 </v>
    <v>       0.00000000       0.00000000       3.86600000 </v>
   </varray>
   <i name="volume">     57.78106590 </i>
   <varray name="rec_basis" >
    <v>       0.25866529       0.00000000       0.00000000 </v>
    <v>       0.00000000       0.25866529       0.00000000 </v>
    <v>       0.00000000       0.00000000       0.25866529 </v>
   </varray>
  </crystal>
  <varray name="positions" >
   <v>       0.00000000       0.00000000       0.00000000 </v>
   <v>       0.50000000       0.50000000       0.00000000 </v>
   <v>       0.50000000       0.00000000       0.50000000 </v>
   <v>       0.00000000       0.50000000       0.50000000 </v>
  </varray>
 </structure>
 <calculation>
  <scstep>
   <time name="dav">    0.19    0.21</time>
   <time name="total">    0.21    0.23</time>
   <energy>
    <i name="alphaZ">    244.65455147 </i>
    <i name="ewald">  -3423.86860972 </i>
    <i name="hartreedc">   -584.88159046 </i>
    <i name="XCdc">      1.09567479 </i>
    <i name="pawpsdc">   4258.44385271 </i>
    <i name="pawaedc">  -4230.15440519 </i>
    <i name="eentropy">      0.00015587 </i>
    <i name="bandstr">    240.56728534 </i>
    <i name="atom">   3479.75217177 </i>
    <i name="e_fr_energy">    -14.39091342 </i>
    <i name="e_wo_entrp">    -14.39106929 </i>
    <i name="e_0_energy">    -14.39096537 </i>
   </energy>
  </scstep>
  <scstep>
   <time name="dav">    0.17    0.17</time>
   <time name="total">    0.19    0.19</time>
   <energy>
    <i name="e_fr_energy">    -14.36521836 </i>
    <i name="e_wo_entrp">    -14.36434917 </i>
    <i name="e_0_energy">    -14.36492863 </i>
   </energy>
  </scstep>
  <scstep>
   <time name="dav">    0.19    0.19</time>
   <time name="total">    0.21    0.21</time>
   <energy>
    <i name="e_fr_energy">    -14.36484860 </i>
    <i name="e_wo_entrp">    -14.36407207 </i>
    <i name="e_0_energy">    -14.36458976 </i>
   </energy>
  </scstep>
  <scstep>
   <time name="dav">    0.17    0.17</time>
   <time name="total">    0.19    0.19</time>
   <energy>
    <i name="e_fr_energy">    -14.36484410 </i>
    <i name="e_wo_entrp">    -14.36405289 </i>
    <i name="e_0_energy">    -14.36458036 </i>
   </energy>
  </scstep>
  <scstep>
   <time name="dav">    0.11    0.11</time>
   <time name="total">    0.13    0.13</time>
   <energy>
    <i name="e_fr_energy">    -14.36484275 </i>
    <i name="e_wo_entrp">    -14.36406327 </i>
    <i name="e_0_energy">    -14.36458292 </i>
   </energy>
  </scstep>
  <scstep>
   <time name="dav">    0.11    0.11</time>
   <time name="total">    0.12    0.12</time>
   <energy>
    <i name="alphaZ">    244.65455147 </i>
    <i name="ewald">  -3423.86860972 </i>
    <i name="hartreedc">   -584.88107422 </i>
    <i name="XCdc">      1.09608566 </i>
    <i name="pawpsdc">   4258.51288232 </i>
    <i name="pawaedc">  -4230.24748790 </i>
    <i name="eentropy">     -0.00078024 </i>
    <i name="bandstr">    240.61741848 </i>
    <i name="atom">   3479.75217177 </i>
    <i name="e_fr_energy">    -14.36484240 </i>
    <i name="e_wo_entrp">    -14.36406216 </i>
    <i name="e_0_energy">    -14.36458232 </i>
   </energy>
  </scstep>
  <structure>
   <crystal>
    <varray name="basis" >
     <v>       3.86600000       0.00000000       0.00000000 </v>
     <v>       0.00000000       3.86600000       0.00000000 </v>
     <v>       0.00000000       0.00000000       3.86600000 </v>
    </varray>
    <i name="volume">     57.78106590 </i>
    <varray name="rec_basis" >
     <v>       0.25866529       0.00000000       0.00000000 </v>
     <v>       0.00000000       0.25866529       0.00000000 </v>
     <v>       0.00000000       0.00000000       0.25866529 </v>
    </varray>
   </crystal>
   <varray name="positions" >
    <v>       0.00000000       0.00000000       0.00000000 </v>
    <v>       0.50000000       0.50000000       0.00000000 </v>
    <v>       0.50000000       0.00000000       0.50000000 </v>
    <v>       0.00000000       0.50000000       0.50000000 </v>
   </varray>
  </structure>
  <varray name="forces" >
   <v>      -0.00000000       0.00000000       0.00000000 </v>
   <v>       0.00000000      -0.00000000       0.00000000 </v>
   <v>      -0.00000000       0.00000000      -0.00000000 </v>
   <v>      -0.00000000      -0.00000000      -0.00000000 </v>
  </varray>
  <varray name="stress" >
   <v>   -2813.22136740       0.00000000       0.00000000 </v>
   <v>      -0.00000000   -2826.87869784       0.00000000 </v>
   <v>       0.00000000       0.00000000   -2850.89321942 </v>
  </varray>
  <energy>
   <i name="e_fr_energy">    -14.36484240 </i>
   <i name="e_wo_entrp">    -14.36406216 </i>
   <i name="e_0_energy">    -14.36458232 </i>
  </energy>
  <time name="totalsc">    1.26    1.28</time>
  <eigenvalues>
   <array>
    <dimension dim="1">band</dimension>
    <dimension dim="2">kpoint</dimension>
    <dimension dim="3">spin</dimension>
    <field>eigene</field>
    <field>occ</field>
    <set>
     <set comment="spin 1">
      <set comment="kpoint 1">
       <r>    0.1596    1.0000 </r>
       <r>    2.6707    1.0000 </r>
       <r>    3.6160    1.0000 </r>
       <r>    3.6961    1.0000 </r>
       <r>    3.8320    1.0000 </r>
       <r>    3.9773    1.0000 </r>
       <r>    4.2121    1.0000 </r>
       <r>    6.4885    1.0000 </r>
       <r>    6.5411    1.0000 </r>
       <r>    6.8139    1.0000 </r>
       <r>    7.6594    1.0000 </r>
       <r>    7.7971    1.0000 </r>
       <r>    8.4295    1.0015 </r>
       <r>    8.7548    0.9953 </r>
       <r>    8.9564    0.3450 </r>
       <r>    9.3402   -0.0056 </r>
       <r>    9.5636   -0.0000 </r>
       <r>    9.7014   -0.0000 </r>
       <r>    9.9600   -0.0000 </r>
       <r>   10.3129   -0.0000 </r>
       <r>   10.8774   -0.0000 </r>
       <r>   11.4792   -0.0000 </r>
       <r>   11.4945   -0.0000 </r>
       <r>   11.5022   -0.0000 </r>
       <r>   18.1241    0.0000 </r>
       <r>   18.3701    0.0000 </r>
       <r>   19.9467    0.0000 </r>
       <r>   20.3761    0.0000 </r>
       <r>   20.5386    0.0000 </r>
       <r>   20.8075    0.0000 </r>
      </set>
      <set comment="kpoint 2">
       <r>    0.6144    1.0000 </r>
       <r>    2.8592    1.0000 </r>
       <r>    3.6668    1.0000 </r>
       <r>    3.7491    1.0000 </r>
       <r>    3.7785    1.0000 </r>
       <r>    3.8850    1.0000 </r>
       <r>    4.4207    1.0000 </r>
       <r>    6.2510    1.0000 </r>
       <r>    6.4274    1.0000 </r>
       <r>    6.5791    1.0000 </r>
       <r>    7.2868    1.0000 </r>
       <r>    7.3032    1.0000 </r>
       <r>    7.3632    1.0000 </r>
       <r>    7.6401    1.0000 </r>
       <r>    7.7464    1.0000 </r>
       <r>    7.8078    1.0000 </r>
       <r>    8.6447    1.0328 </r>
       <r>    8.9704    0.2908 </r>
       <r>    9.1086   -0.0188 </r>
       <r>    9.3150   -0.0085 </r>
       <r>    9.7457   -0.0000 </r>
       <r>   10.6789   -0.0000 </r>
       <r>   13.1662   -0.0000 </r>
       <r>   13.1722   -0.0000 </r>
       <r>   17.9443    0.0000 </r>
       <r>   18.0105    0.0000 </r>
       <r>   20.4695    0.0000 </r>
       <r>   20.5252    0.0000 </r>
       <r>   20.6698    0.0000 </r>
       <r>   21.1468    0.0000 </r>
      </set>
      <set comment="kpoint 3">
       <r>    0.6776    1.0000 </r>
       <r>    2.8860    1.0000 </r>
       <r>    3.7146    1.0000 </r>
       <r>    3.7254    1.0000 </r>
       <r>    3.7426    1.0000 </r>
       <r>    3.8702    1.0000 </r>
       <r>    4.3713    1.0000 </r>
       <r>    6.4058    1.0000 </r>
       <r>    6.4957    1.0000 </r>
       <r>    6.5248    1.0000 </r>
       <r>    7.1056    1.0000 </r>
       <r>    7.2417    1.0000 </r>
       <r>    7.3827    1.0000 </r>
       <r>    7.6540    1.0000 </r>
       <r>    8.0839    1.0000 </r>
       <r>    8.6248    1.0289 </r>
       <r>    8.7253    1.0216 </r>
       <r>    8.8828    0.6508 </r>
       <r>    8.9921    0.2127 </r>
       <r>    9.1343   -0.0313 </r>
       <r>    9.2533   -0.0198 </r>
       <r>    9.7082   -0.0000 </r>
       <r>   13.2875   -0.0000 </r>
       <r>   13.4175   -0.0000 </r>
       <r>   17.4519    0.0000 </r>
       <r>   18.6713    0.0000 </r>
       <r>   20.4013    0.0000 </r>
       <r>   20.4489    0.0000 </r>
       <r>   20.8275    0.0000 </r>
       <r>   21.3970    0.0000 </r>
      </set>
      <set comment="kpoint 4">
       <r>    0.6795    1.0000 </r>
       <r>    2.8763    1.0000 </r>
       <r>    3.7560    1.0000 </r>
       <r>    3.7788    1.0000 </r>
       <r>    3.8729    1.0000 </r>
       <r>    3.8792    1.0000 </r>
       <r>    4.2070    1.0000 </r>
       <r>    6.1618    1.0000 </r>
       <r>    6.4754    1.0000 </r>
       <r>    6.5999    1.0000 </r>
       <r>    7.0922    1.0000 </r>
       <r>    7.2480    1.0000 </r>
       <r>    7.5477    1.0000 </r>
       <r>    7.7636    1.0000 </r>
       <r>    7.9063    1.0000 </r>
       <r>    8.1333    1.0000 </r>
       <r>    8.4227    1.0013 </r>
       <r>    8.9511    0.3665 </r>
       <r>    9.0751    0.0152 </r>
       <r>    9.0987   -0.0111 </r>
       <r>    9.7325   -0.0000 </r>
       <r>   10.0626   -0.0000 </r>
       <r>   13.2478   -0.0000 </r>
       <r>   13.3846   -0.0000 </r>
       <r>   17.1039    0.0000 </r>
       <r>   18.9534    0.0000 </r>
       <r>   20.5002    0.0000 </r>
       <r>   20.5036    0.0000 </r>
       <r>   20.9035    0.0000 </r>
       <r>   21.3528    0.0000 </r>
      </set>
      <set comment="kpoint 5">
       <r>    1.6787    1.0000 </r>
       <r>    3.5121    1.0000 </r>
       <r>    3.8503    1.0000 </r>
       <r>    3.9422    1.0000 </r>
       <r>    4.6156    1.0000 </r>
       <r>    4.6735    1.0000 </r>
       <r>    5.2969    1.0000 </r>
       <r>    5.7262    1.0000 </r>
       <r>    5.8282    1.0000 </r>
       <r>    5.9453    1.0000 </r>
       <r>    6.4596    1.0000 </r>
       <r>    6.4873    1.0000 </r>
       <r>    6.7805    1.0000 </r>
       <r>    7.0466    1.0000 </r>
       <r>    7.1987    1.0000 </r>
       <r>    7.2385    1.0000 </r>
       <r>    7.6860    1.0000 </r>
       <r>    7.9649    1.0000 </r>
       <r>    7.9879    1.0000 </r>
       <r>    8.4853    1.0045 </r>
       <r>    9.1252   -0.0280 </r>
       <r>   10.6581   -0.0000 </r>
       <r>   15.6641    0.0000 </r>
       <r>   15.7323    0.0000 </r>
       <r>   17.0001    0.0000 </r>
       <r>   18.0053    0.0000 </r>
       <r>   18.7021    0.0000 </r>
       <r>   18.8131    0.0000 </r>
       <r>   19.4229    0.0000 </r>
       <r>   22.1486    0.0000 </r>
      </set>
      <set comment="kpoint 6">
       <r>    2.0423    1.0000 </r>
       <r>    3.2741    1.0000 </r>
       <r>    3.8672    1.0000 </r>
       <r>    3.9792    1.0000 </r>
       <r>    4.5359    1.0000 </r>
       <r>    4.5795    1.0000 </r>
       <r>    5.3766    1.0000 </r>
       <r>    5.9265    1.0000 </r>
       <r>    6.0817    1.0000 </r>
       <r>    6.1250    1.0000 </r>
       <r>    6.6320    1.0000 </r>
       <r>    6.6705    1.0000 </r>
       <r>    6.7391    1.0000 </r>
       <r>    6.9995    1.0000 </r>
       <r>    7.4421    1.0000 </r>
       <r>    7.4435    1.0000 </r>
       <r>    7.4545    1.0000 </r>
       <r>    7.8381    1.0000 </r>
       <r>    8.0358    1.0000 </r>
       <r>    8.1581    1.0000 </r>
       <r>    8.7795    0.9591 </r>
       <r>    9.2099   -0.0297 </r>
       <r>   15.9292    0.0000 </r>
       <r>   15.9525    0.0000 </r>
       <r>   16.6599    0.0000 </r>
       <r>   18.4301    0.0000 </r>
       <r>   18.5140    0.0000 </r>
       <r>   18.6624    0.0000 </r>
       <r>   20.6485    0.0000 </r>
       <r>   21.2225    0.0000 </r>
      </set>
      <set comment="kpoint 7">
       <r>    2.0647    1.0000 </r>
       <r>    3.2657    1.0000 </r>
       <r>    4.0446    1.0000 </r>
       <r>    4.2353    1.0000 </r>
       <r>    4.6321    1.0000 </r>
       <r>    4.6452    1.0000 </r>
       <r>    5.0349    1.0000 </r>
       <r>    5.5747    1.0000 </r>
       <r>    5.8062    1.0000 </r>
       <r>    5.9584    1.0000 </r>
       <r>    6.5624    1.0000 </r>
       <r>    6.5802    1.0000 </r>
       <r>    6.7843    1.0000 </r>
       <r>    6.9596    1.0000 </r>
       <r>    7.2412    1.0000 </r>
       <r>    7.4523    1.0000 </r>
       <r>    7.7060    1.0000 </r>
       <r>    7.7182    1.0000 </r>
       <r>    8.0563    1.0000 </r>
       <r>    8.3133    1.0001 </r>
       <r>    8.6881    1.0346 </r>
       <r>   10.0191   -0.0000 </r>
       <r>   15.8963    0.0000 </r>
       <r>   15.9902    0.0000 </r>
       <r>   16.1976    0.0000 </r>
       <r>   18.4940    0.0000 </r>
       <r>   18.7554    0.0000 </r>
       <r>   18.9676    0.0000 </r>
       <r>   20.2979    0.0000 </r>
       <r>   21.4986    0.0000 </r>
      </set>
      <set comment="kpoint 8">
       <r>    1.1108    1.0000 </r>
       <r>    3.1239    1.0000 </r>
       <r>    3.7938    1.0000 </r>
       <r>    3.8576    1.0000 </r>
       <r>    3.9711    1.0000 </r>
       <r>    4.0990    1.0000 </r>
       <r>    4.5270    1.0000 </r>
       <r>    6.0145    1.0000 </r>
       <r>    6.3304    1.0000 </r>
       <r>    6.6594    1.0000 </r>
       <r>    6.6632    1.0000 </r>
       <r>    6.9134    1.0000 </r>
       <r>    7.1031    1.0000 </r>
       <r>    7.1538    1.0000 </r>
       <r>    7.4675    1.0000 </r>
       <r>    7.7732    1.0000 </r>
       <r>    8.0280    1.0000 </r>
       <r>    8.6031    1.0240 </r>
       <r>    8.6468    1.0331 </r>
       <r>    8.8570    0.7491 </r>
       <r>    9.6078   -0.0000 </r>
       <r>   10.7456   -0.0000 </r>
       <r>   11.7925   -0.0000 </r>
       <r>   14.5313    0.0000 </r>
       <r>   16.9680    0.0000 </r>
       <r>   19.1745    0.0000 </r>
       <r>   20.0362    0.0000 </r>
       <r>   20.3915    0.0000 </r>
       <r>   21.1387    0.0000 </r>
       <r>   21.7467    0.0000 </r>
      </set>
      <set comment="kpoint 9">
       <r>    1.1452    1.0000 </r>
       <r>    3.1463    1.0000 </r>
       <r>    3.8309    1.0000 </r>
       <r>    3.8503    1.0000 </r>
       <r>    4.0126    1.0000 </r>
       <r>    4.0664    1.0000 </r>
       <r>    4.4807    1.0000 </r>
       <r>    5.9918    1.0000 </r>
       <r>    6.3887    1.0000 </r>
       <r>    6.5812    1.0000 </r>
       <r>    6.7038    1.0000 </r>
       <r>    7.0376    1.0000 </r>
       <r>    7.0898    1.0000 </r>
       <r>    7.1855    1.0000 </r>
       <r>    7.4779    1.0000 </r>
       <r>    7.7892    1.0000 </r>
       <r>    8.0660    1.0000 </r>
       <r>    8.4618    1.0028 </r>
       <r>    8.5370    1.0106 </r>
       <r>    8.6912    1.0342 </r>
       <r>    9.4572   -0.0005 </r>
       <r>   10.8185   -0.0000 </r>
       <r>   12.1440   -0.0000 </r>
       <r>   14.4249    0.0000 </r>
       <r>   16.8189    0.0000 </r>
       <r>   19.2315    0.0000 </r>
       <r>   19.5589    0.0000 </r>
       <r>   20.9629    0.0000 </r>
       <r>   21.2729    0.0000 </r>
       <r>   21.8584    0.0000 </r>
      </set>
      <set comment="kpoint 10">
       <r>    1.1107    1.0000 </r>
       <r>    3.1231    1.0000 </r>
       <r>    3.7981    1.0000 </r>
       <r>    3.9483    1.0000 </r>
       <r>    4.0151    1.0000 </r>
       <r>    4.1185    1.0000 </r>
       <r>    4.4387    1.0000 </r>
       <r>    5.8433    1.0000 </r>
       <r>    6.4466    1.0000 </r>
       <r>    6.5827    1.0000 </r>
       <r>    6.7698    1.0000 </r>
       <r>    6.8819    1.0000 </r>
       <r>    6.9997    1.0000 </r>
       <r>    7.1713    1.0000 </r>
       <r>    7.4491    1.0000 </r>
       <r>    7.6185    1.0000 </r>
       <r>    7.8460    1.0000 </r>
       <r>    8.7603    0.9885 </r>
       <r>    8.7849    0.9493 </r>
       <r>    9.0487    0.0597 </r>
       <r>    9.7281   -0.0000 </r>
       <r>   10.9735   -0.0000 </r>
       <r>   11.4495   -0.0000 </r>
       <r>   14.5346    0.0000 </r>
       <r>   16.9249    0.0000 </r>
       <r>   19.0950    0.0000 </r>
       <r>   19.9846    0.0000 </r>
       <r>   20.5301    0.0000 </r>
       <r>   21.2455    0.0000 </r>
       <r>   21.8712    0.0000 </r>
      </set>
      <set comment="kpoint 11">
       <r>    2.1403    1.0000 </r>
       <r>    3.7733    1.0000 </r>
       <r>    4.1147    1.0000 </r>
       <r>    4.2060    1.0000 </r>
       <r>    4.6995    1.0000 </r>
       <r>    4.7642    1.0000 </r>
       <r>    5.1465    1.0000 </r>
       <r>    5.5999    1.0000 </r>
       <r>    5.6098    1.0000 </r>
       <r>    6.1068    1.0000 </r>
       <r>    6.2384    1.0000 </r>
       <r>    6.5160    1.0000 </r>
       <r>    6.8387    1.0000 </r>
       <r>    7.0538    1.0000 </r>
       <r>    7.1204    1.0000 </r>
       <r>    7.3990    1.0000 </r>
       <r>    7.4685    1.0000 </r>
       <r>    8.1176    1.0000 </r>
       <r>    8.2644    1.0000 </r>
       <r>    8.7938    0.9316 </r>
       <r>    9.3073   -0.0096 </r>
       <r>    9.6111   -0.0000 </r>
       <r>   13.0879   -0.0000 </r>
       <r>   15.2434    0.0000 </r>
       <r>   16.9385    0.0000 </r>
       <r>   18.1323    0.0000 </r>
       <r>   19.6180    0.0000 </r>
       <r>   19.8693    0.0000 </r>
       <r>   21.9399    0.0000 </r>
       <r>   23.1275    0.0000 </r>
      </set>
      <set comment="kpoint 12">
       <r>    2.3809    1.0000 </r>
       <r>    3.6017    1.0000 </r>
       <r>    4.0299    1.0000 </r>
       <r>    4.2235    1.0000 </r>
       <r>    4.5597    1.0000 </r>
       <r>    4.7257    1.0000 </r>
       <r>    5.3257    1.0000 </r>
       <r>    5.6924    1.0000 </r>
       <r>    5.7098    1.0000 </r>
       <r>    6.2746    1.0000 </r>
       <r>    6.2960    1.0000 </r>
       <r>    6.5948    1.0000 </r>
       <r>    7.0183    1.0000 </r>
       <r>    7.0487    1.0000 </r>
       <r>    7.3044    1.0000 </r>
       <r>    7.3837    1.0000 </r>
       <r>    7.4940    1.0000 </r>
       <r>    8.0097    1.0000 </r>
       <r>    8.1314    1.0000 </r>
       <r>    8.5916    1.0213 </r>
       <r>    8.7969    0.9249 </r>
       <r>    9.1215   -0.0264 </r>
       <r>   13.6184   -0.0000 </r>
       <r>   15.1518    0.0000 </r>
       <r>   16.8248    0.0000 </r>
       <r>   18.4177    0.0000 </r>
       <r>   19.4141    0.0000 </r>
       <r>   19.6865    0.0000 </r>
       <r>   21.7418    0.0000 </r>
       <r>   23.4352    0.0000 </r>
      </set>
      <set comment="kpoint 13">
       <r>    2.4253    1.0000 </r>
       <r>    3.6068    1.0000 </r>
       <r>    4.2338    1.0000 </r>
       <r>    4.3514    1.0000 </r>
       <r>    4.6286    1.0000 </r>
       <r>    4.8956    1.0000 </r>
       <r>    5.0878    1.0000 </r>
       <r>    5.3487    1.0000 </r>
       <r>    5.4740    1.0000 </r>
       <r>    6.2042    1.0000 </r>
       <r>    6.3964    1.0000 </r>
       <r>    6.5421    1.0000 </r>
       <r>    6.9184    1.0000 </r>
       <r>    7.0772    1.0000 </r>
       <r>    7.1142    1.0000 </r>
       <r>    7.4985    1.0000 </r>
       <r>    7.6517    1.0000 </r>
       <r>    7.8372    1.0000 </r>
       <r>    8.2848    1.0000 </r>
       <r>    8.5397    1.0110 </r>
       <r>    8.9667    0.3048 </r>
       <r>    9.2135   -0.0289 </r>
       <r>   13.4686   -0.0000 </r>
       <r>   15.1986    0.0000 </r>
       <r>   16.9088    0.0000 </r>
       <r>   18.0087    0.0000 </r>
       <r>   19.4116    0.0000 </r>
       <r>   20.2142    0.0000 </r>
       <r>   22.0004    0.0000 </r>
       <r>   23.0340    0.0000 </r>
      </set>
      <set comment="kpoint 14">
       <r>    2.4182    1.0000 </r>
       <r>    3.5871    1.0000 </r>
       <r>    4.0786    1.0000 </r>
       <r>    4.2298    1.0000 </r>
       <r>    4.5833    1.0000 </r>
       <r>    4.6988    1.0000 </r>
       <r>    5.3002    1.0000 </r>
       <r>    5.6980    1.0000 </r>
       <r>    5.9103    1.0000 </r>
       <r>    6.2418    1.0000 </r>
       <r>    6.2589    1.0000 </r>
       <r>    6.5064    1.0000 </r>
       <r>    7.0311    1.0000 </r>
       <r>    7.0929    1.0000 </r>
       <r>    7.2606    1.0000 </r>
       <r>    7.4050    1.0000 </r>
       <r>    7.4860    1.0000 </r>
       <r>    8.0487    1.0000 </r>
       <r>    8.2049    1.0000 </r>
       <r>    8.4919    1.0050 </r>
       <r>    8.6811    1.0353 </r>
       <r>    8.9516    0.3645 </r>
       <r>   13.5356   -0.0000 </r>
       <r>   15.2029    0.0000 </r>
       <r>   16.8989    0.0000 </r>
       <r>   18.3800    0.0000 </r>
       <r>   19.3921    0.0000 </r>
       <r>   19.8305    0.0000 </r>
       <r>   22.0360    0.0000 </r>
       <r>   23.0752    0.0000 </r>
      </set>
      <set comment="kpoint 15">
       <r>    2.1367    1.0000 </r>
       <r>    3.7981    1.0000 </r>
       <r>    4.0893    1.0000 </r>
       <r>    4.1712    1.0000 </r>
       <r>    4.6305    1.0000 </r>
       <r>    4.8288    1.0000 </r>
       <r>    5.2018    1.0000 </r>
       <r>    5.4837    1.0000 </r>
       <r>    5.4924    1.0000 </r>
       <r>    6.2732    1.0000 </r>
       <r>    6.3585    1.0000 </r>
       <r>    6.5704    1.0000 </r>
       <r>    6.8388    1.0000 </r>
       <r>    7.0362    1.0000 </r>
       <r>    7.1106    1.0000 </r>
       <r>    7.4521    1.0000 </r>
       <r>    7.4781    1.0000 </r>
       <r>    7.9495    1.0000 </r>
       <r>    8.3873    1.0006 </r>
       <r>    8.8317    0.8335 </r>
       <r>    9.2470   -0.0213 </r>
       <r>    9.5609   -0.0000 </r>
       <r>   13.0602   -0.0000 </r>
       <r>   15.2981    0.0000 </r>
       <r>   16.9030    0.0000 </r>
       <r>   18.1013    0.0000 </r>
       <r>   19.5334    0.0000 </r>
       <r>   19.7993    0.0000 </r>
       <r>   22.0286    0.0000 </r>
       <r>   23.0209    0.0000 </r>
      </set>
      <set comment="kpoint 16">
       <r>    2.3934    1.0000 </r>
       <r>    3.5892    1.0000 </r>
       <r>    4.2328    1.0000 </r>
       <r>    4.4009    1.0000 </r>
       <r>    4.6606    1.0000 </r>
       <r>    4.8198    1.0000 </r>
       <r>    5.0491    1.0000 </r>
       <r>    5.4486    1.0000 </r>
       <r>    5.4738    1.0000 </r>
       <r>    6.0829    1.0000 </r>
       <r>    6.2602    1.0000 </r>
       <r>    6.5765    1.0000 </r>
       <r>    6.9090    1.0000 </r>
       <r>    7.0406    1.0000 </r>
       <r>    7.1665    1.0000 </r>
       <r>    7.4284    1.0000 </r>
       <r>    7.5259    1.0000 </r>
       <r>    8.0821    1.0000 </r>
       <r>    8.2503    1.0000 </r>
       <r>    8.4611    1.0028 </r>
       <r>    9.2219   -0.0270 </r>
       <r>    9.3435   -0.0053 </r>
       <r>   13.5695   -0.0000 </r>
       <r>   15.0893    0.0000 </r>
       <r>   16.8759    0.0000 </r>
       <r>   18.0709    0.0000 </r>
       <r>   19.5135    0.0000 </r>
       <r>   20.1322    0.0000 </r>
       <r>   21.6415    0.0000 </r>
       <r>   23.5045    0.0000 </r>
      </set>
      <set comment="kpoint 17">
       <r>    3.2632    1.0000 </r>
       <r>    4.1839    1.0000 </r>
       <r>    4.4002    1.0000 </r>
       <r>    4.6379    1.0000 </r>
       <r>    4.8362    1.0000 </r>
       <r>    5.0089    1.0000 </r>
       <r>    5.0744    1.0000 </r>
       <r>    5.1692    1.0000 </r>
       <r>    5.2244    1.0000 </r>
       <r>    5.8028    1.0000 </r>
       <r>    5.9720    1.0000 </r>
       <r>    6.1522    1.0000 </r>
       <r>    6.6530    1.0000 </r>
       <r>    6.7184    1.0000 </r>
       <r>    7.0394    1.0000 </r>
       <r>    7.1192    1.0000 </r>
       <r>    7.2408    1.0000 </r>
       <r>    7.9103    1.0000 </r>
       <r>    8.2017    1.0000 </r>
       <r>    8.3457    1.0002 </r>
       <r>    8.7542    0.9960 </r>
       <r>    9.8694   -0.0000 </r>
       <r>   11.4862   -0.0000 </r>
       <r>   12.9537   -0.0000 </r>
       <r>   18.7889    0.0000 </r>
       <r>   19.0154    0.0000 </r>
       <r>   20.4872    0.0000 </r>
       <r>   21.1967    0.0000 </r>
       <r>   21.2477    0.0000 </r>
       <r>   21.7261    0.0000 </r>
      </set>
      <set comment="kpoint 18">
       <r>    3.1679    1.0000 </r>
       <r>    3.9465    1.0000 </r>
       <r>    4.3222    1.0000 </r>
       <r>    4.6391    1.0000 </r>
       <r>    4.8496    1.0000 </r>
       <r>    5.0013    1.0000 </r>
       <r>    5.0194    1.0000 </r>
       <r>    5.1810    1.0000 </r>
       <r>    5.3252    1.0000 </r>
       <r>    5.7812    1.0000 </r>
       <r>    6.0874    1.0000 </r>
       <r>    6.2337    1.0000 </r>
       <r>    6.6234    1.0000 </r>
       <r>    6.8442    1.0000 </r>
       <r>    6.9619    1.0000 </r>
       <r>    7.0152    1.0000 </r>
       <r>    7.2043    1.0000 </r>
       <r>    7.8212    1.0000 </r>
       <r>    8.4357    1.0017 </r>
       <r>    8.6059    1.0246 </r>
       <r>    8.8455    0.7892 </r>
       <r>    9.6704   -0.0000 </r>
       <r>   12.0549   -0.0000 </r>
       <r>   13.0023   -0.0000 </r>
       <r>   18.5281    0.0000 </r>
       <r>   18.7172    0.0000 </r>
       <r>   20.4080    0.0000 </r>
       <r>   20.4767    0.0000 </r>
       <r>   21.1377    0.0000 </r>
       <r>   22.1861    0.0000 </r>
      </set>
      <set comment="kpoint 19">
       <r>    3.2310    1.0000 </r>
       <r>    4.2921    1.0000 </r>
       <r>    4.4127    1.0000 </r>
       <r>    4.4876    1.0000 </r>
       <r>    4.6960    1.0000 </r>
       <r>    4.8490    1.0000 </r>
       <r>    4.9486    1.0000 </r>
       <r>    5.1412    1.0000 </r>
       <r>    5.5229    1.0000 </r>
       <r>    5.9859    1.0000 </r>
       <r>    6.0841    1.0000 </r>
       <r>    6.2589    1.0000 </r>
       <r>    6.5977    1.0000 </r>
       <r>    6.7162    1.0000 </r>
       <r>    7.0433    1.0000 </r>
       <r>    7.1361    1.0000 </r>
       <r>    7.5237    1.0000 </r>
       <r>    7.6744    1.0000 </r>
       <r>    8.0496    1.0000 </r>
       <r>    8.2287    1.0000 </r>
       <r>    8.9938    0.2071 </r>
       <r>   10.2720   -0.0000 </r>
       <r>   11.0015   -0.0000 </r>
       <r>   12.8288   -0.0000 </r>
       <r>   18.7002    0.0000 </r>
       <r>   18.9988    0.0000 </r>
       <r>   20.7243    0.0000 </r>
       <r>   21.0426    0.0000 </r>
       <r>   21.3718    0.0000 </r>
       <r>   21.5565    0.0000 </r>
      </set>
      <set comment="kpoint 20">
       <r>    1.5175    1.0000 </r>
       <r>    3.3641    1.0000 </r>
       <r>    3.9837    1.0000 </r>
       <r>    4.0364    1.0000 </r>
       <r>    4.1778    1.0000 </r>
       <r>    4.4919    1.0000 </r>
       <r>    4.6293    1.0000 </r>
       <r>    5.6037    1.0000 </r>
       <r>    6.4326    1.0000 </r>
       <r>    6.4713    1.0000 </r>
       <r>    6.5860    1.0000 </r>
       <r>    6.6704    1.0000 </r>
       <r>    6.8971    1.0000 </r>
       <r>    7.0046    1.0000 </r>
       <r>    7.1254    1.0000 </r>
       <r>    7.5008    1.0000 </r>
       <r>    7.7510    1.0000 </r>
       <r>    8.1613    1.0000 </r>
       <r>    8.3995    1.0007 </r>
       <r>    8.6736    1.0355 </r>
       <r>    9.5273   -0.0001 </r>
       <r>   11.7001   -0.0000 </r>
       <r>   12.4494   -0.0000 </r>
       <r>   12.6671   -0.0000 </r>
       <r>   17.6719    0.0000 </r>
       <r>   17.9161    0.0000 </r>
       <r>   18.5906    0.0000 </r>
       <r>   21.1357    0.0000 </r>
       <r>   21.5409    0.0000 </r>
       <r>   21.7570    0.0000 </r>
      </set>
      <set comment="kpoint 21">
       <r>    2.3697    1.0000 </r>
       <r>    3.7363    1.0000 </r>
       <r>    4.1864    1.0000 </r>
       <r>    4.4682    1.0000 </r>
       <r>    4.5830    1.0000 </r>
       <r>    4.7358    1.0000 </r>
       <r>    5.2952    1.0000 </r>
       <r>    5.4537    1.0000 </r>
       <r>    5.7224    1.0000 </r>
       <r>    5.9840    1.0000 </r>
       <r>    6.4049    1.0000 </r>
       <r>    6.4873    1.0000 </r>
       <r>    6.5332    1.0000 </r>
       <r>    6.8869    1.0000 </r>
       <r>    6.9647    1.0000 </r>
       <r>    7.3607    1.0000 </r>
       <r>    7.5618    1.0000 </r>
       <r>    8.0301    1.0000 </r>
       <r>    8.4443    1.0020 </r>
       <r>    8.6875    1.0347 </r>
       <r>    9.3145   -0.0086 </r>
       <r>    9.6140   -0.0000 </r>
       <r>   13.7929   -0.0000 </r>
       <r>   13.8550   -0.0000 </r>
       <r>   15.5065    0.0000 </r>
       <r>   16.3004    0.0000 </r>
       <r>   20.0876    0.0000 </r>
       <r>   21.5632    0.0000 </r>
       <r>   22.1861    0.0000 </r>
       <r>   22.4301    0.0000 </r>
      </set>
      <set comment="kpoint 22">
       <r>    2.5704    1.0000 </r>
       <r>    3.5820    1.0000 </r>
       <r>    4.0106    1.0000 </r>
       <r>    4.4069    1.0000 </r>
       <r>    4.6831    1.0000 </r>
       <r>    4.7827    1.0000 </r>
       <r>    5.4858    1.0000 </r>
       <r>    5.5507    1.0000 </r>
       <r>    5.7027    1.0000 </r>
       <r>    6.0489    1.0000 </r>
       <r>    6.4696    1.0000 </r>
       <r>    6.5371    1.0000 </r>
       <r>    6.6896    1.0000 </r>
       <r>    6.7756    1.0000 </r>
       <r>    6.9962    1.0000 </r>
       <r>    7.0681    1.0000 </r>
       <r>    7.8521    1.0000 </r>
       <r>    7.9837    1.0000 </r>
       <r>    8.1417    1.0000 </r>
       <r>    8.5730    1.0172 </r>
       <r>    9.0642    0.0315 </r>
       <r>    9.5048   -0.0001 </r>
       <r>   13.8326   -0.0000 </r>
       <r>   14.0925   -0.0000 </r>
       <r>   15.6236    0.0000 </r>
       <r>   16.0963    0.0000 </r>
       <r>   20.1759    0.0000 </r>
       <r>   21.6368    0.0000 </r>
       <r>   22.3042    0.0000 </r>
       <r>   22.4400    0.0000 </r>
      </set>
      <set comment="kpoint 23">
       <r>    2.5784    1.0000 </r>
       <r>    3.5894    1.0000 </r>
       <r>    4.1427    1.0000 </r>
       <r>    4.5180    1.0000 </r>
       <r>    4.5989    1.0000 </r>
       <r>    4.9192    1.0000 </r>
       <r>    5.1757    1.0000 </r>
       <r>    5.4903    1.0000 </r>
       <r>    5.6326    1.0000 </r>
       <r>    5.9323    1.0000 </r>
       <r>    6.3792    1.0000 </r>
       <r>    6.4853    1.0000 </r>
       <r>    6.6372    1.0000 </r>
       <r>    6.9320    1.0000 </r>
       <r>    6.9477    1.0000 </r>
       <r>    7.2267    1.0000 </r>
       <r>    7.7488    1.0000 </r>
       <r>    8.0160    1.0000 </r>
       <r>    8.3606    1.0003 </r>
       <r>    8.4794    1.0040 </r>
       <r>    9.2110   -0.0294 </r>
       <r>    9.5600   -0.0000 </r>
       <r>   13.8212   -0.0000 </r>
       <r>   14.0408   -0.0000 </r>
       <r>   15.5862    0.0000 </r>
       <r>   16.1960    0.0000 </r>
       <r>   20.0930    0.0000 </r>
       <r>   21.4077    0.0000 </r>
       <r>   22.2646    0.0000 </r>
       <r>   22.5239    0.0000 </r>
      </set>
      <set comment="kpoint 24">
       <r>    3.0011    1.0000 </r>
       <r>    3.5580    1.0000 </r>
       <r>    3.8747    1.0000 </r>
       <r>    4.2637    1.0000 </r>
       <r>    5.0782    1.0000 </r>
       <r>    5.3515    1.0000 </r>
       <r>    5.5945    1.0000 </r>
       <r>    5.7706    1.0000 </r>
       <r>    5.9510    1.0000 </r>
       <r>    6.0665    1.0000 </r>
       <r>    6.2895    1.0000 </r>
       <r>    6.4111    1.0000 </r>
       <r>    6.4481    1.0000 </r>
       <r>    6.4556    1.0000 </r>
       <r>    6.7084    1.0000 </r>
       <r>    6.8186    1.0000 </r>
       <r>    7.3853    1.0000 </r>
       <r>    8.0260    1.0000 </r>
       <r>    8.3748    1.0004 </r>
       <r>    8.7701    0.9747 </r>
       <r>    8.9324    0.4437 </r>
       <r>   10.1148   -0.0000 </r>
       <r>   11.4359   -0.0000 </r>
       <r>   12.6544   -0.0000 </r>
       <r>   15.7523    0.0000 </r>
       <r>   17.5146    0.0000 </r>
       <r>   17.9107    0.0000 </r>
       <r>   19.8967    0.0000 </r>
       <r>   22.8715    0.0000 </r>
       <r>   24.6899    0.0000 </r>
      </set>
      <set comment="kpoint 25">
       <r>    2.9903    1.0000 </r>
       <r>    3.5860    1.0000 </r>
       <r>    3.6447    1.0000 </r>
       <r>    4.2504    1.0000 </r>
       <r>    5.0775    1.0000 </r>
       <r>    5.3693    1.0000 </r>
       <r>    5.6022    1.0000 </r>
       <r>    5.8195    1.0000 </r>
       <r>    5.9601    1.0000 </r>
       <r>    6.0495    1.0000 </r>
       <r>    6.3121    1.0000 </r>
       <r>    6.3380    1.0000 </r>
       <r>    6.4503    1.0000 </r>
       <r>    6.4890    1.0000 </r>
       <r>    6.7304    1.0000 </r>
       <r>    6.8058    1.0000 </r>
       <r>    7.4563    1.0000 </r>
       <r>    8.0154    1.0000 </r>
       <r>    8.5499    1.0127 </r>
       <r>    8.7332    1.0161 </r>
       <r>    8.9220    0.4876 </r>
       <r>    9.9956   -0.0000 </r>
       <r>   11.9224   -0.0000 </r>
       <r>   12.8310   -0.0000 </r>
       <r>   15.4899    0.0000 </r>
       <r>   17.0698    0.0000 </r>
       <r>   17.9708    0.0000 </r>
       <r>   19.8662    0.0000 </r>
       <r>   22.9477    0.0000 </r>
       <r>   24.5267    0.0000 </r>
      </set>
      <set comment="kpoint 26">
       <r>    2.9967    1.0000 </r>
       <r>    3.5905    1.0000 </r>
       <r>    3.9022    1.0000 </r>
       <r>    4.0951    1.0000 </r>
       <r>    5.0390    1.0000 </r>
       <r>    5.2561    1.0000 </r>
       <r>    5.5288    1.0000 </r>
       <r>    5.9944    1.0000 </r>
       <r>    6.0598    1.0000 </r>
       <r>    6.1796    1.0000 </r>
       <r>    6.2842    1.0000 </r>
       <r>    6.3801    1.0000 </r>
       <r>    6.4889    1.0000 </r>
       <r>    6.5395    1.0000 </r>
       <r>    6.5979    1.0000 </r>
       <r>    6.8613    1.0000 </r>
       <r>    7.5136    1.0000 </r>
       <r>    7.7920    1.0000 </r>
       <r>    8.1636    1.0000 </r>
       <r>    8.9218    0.4887 </r>
       <r>    9.0758    0.0143 </r>
       <r>   10.4626   -0.0000 </r>
       <r>   10.9868   -0.0000 </r>
       <r>   12.5747   -0.0000 </r>
       <r>   15.7327    0.0000 </r>
       <r>   17.5737    0.0000 </r>
       <r>   17.8872    0.0000 </r>
       <r>   19.9598    0.0000 </r>
       <r>   22.7474    0.0000 </r>
       <r>   24.7403    0.0000 </r>
      </set>
      <set comment="kpoint 27">
       <r>    2.9166    1.0000 </r>
       <r>    3.0238    1.0000 </r>
       <r>    3.2576    1.0000 </r>
       <r>    3.6451    1.0000 </r>
       <r>    5.4535    1.0000 </r>
       <r>    5.5459    1.0000 </r>
       <r>    5.8344    1.0000 </r>
       <r>    5.9242    1.0000 </r>
       <r>    6.1313    1.0000 </r>
       <r>    6.2900    1.0000 </r>
       <r>    6.3942    1.0000 </r>
       <r>    6.5149    1.0000 </r>
       <r>    6.8914    1.0000 </r>
       <r>    6.9957    1.0000 </r>
       <r>    7.4340    1.0000 </r>
       <r>    7.5985    1.0000 </r>
       <r>    7.8636    1.0000 </r>
       <r>    8.2446    1.0000 </r>
       <r>    8.3869    1.0005 </r>
       <r>    8.7711    0.9731 </r>
       <r>    9.3794   -0.0027 </r>
       <r>   10.3002   -0.0000 </r>
       <r>   10.7486   -0.0000 </r>
       <r>   10.9949   -0.0000 </r>
       <r>   14.9234    0.0000 </r>
       <r>   15.3925    0.0000 </r>
       <r>   16.2135    0.0000 </r>
       <r>   17.7143    0.0000 </r>
       <r>   25.4379    0.0000 </r>
       <r>   25.5574    0.0000 </r>
      </set>
     </set>
    </set>
   </array>
  </eigenvalues>
  <separator name="orbital magnetization" >
   <v name="MAGDIPOLOUT">      0.00000000      0.00000000      0.00000000</v>
  </separator>
  <dos>
   <i name="efermi">      8.91909237 </i>
   <total>
    <array>
     <dimension dim="1">gridpoints</dimension>
     <dimension dim="2">spin</dimension>
     <field>energy</field>
     <field>total</field>
     <field>integrated</field>
     <set>
      <set comment="spin 1">
       <r>    -1.8404     0.0000     0.0000 </r>
       <r>    -1.7424     0.0000     0.0000 </r>
       <r>    -1.6444     0.0000     0.0000 </r>
       <r>    -1.5465     0.0000     0.0000 </r>
       <r>    -1.4485    -0.0000    -0.0000 </r>
       <r>    -1.3505    -0.0000    -0.0000 </r>
       <r>    -1.2525    -0.0000    -0.0000 </r>
       <r>    -1.1545    -0.0000    -0.0000 </r>
       <r>    -1.0565    -0.0000    -0.0000 </r>
       <r>    -0.9585    -0.0000    -0.0000 </r>
       <r>    -0.8605    -0.0000    -0.0000 </r>
       <r>    -0.7625    -0.0000    -0.0000 </r>
       <r>    -0.6645    -0.0000    -0.0000 </r>
       <r>    -0.5665    -0.0000    -0.0000 </r>
       <r>    -0.4685    -0.0000    -0.0000 </r>
       <r>    -0.3705    -0.0001    -0.0000 </r>
       <r>    -0.2725    -0.0007    -0.0001 </r>
       <r>    -0.1746    -0.0025    -0.0003 </r>
       <r>    -0.0766    -0.0025    -0.0006 </r>
       <r>     0.0214     0.0128     0.0007 </r>
       <r>     0.1194     0.0469     0.0053 </r>
       <r>     0.2174     0.0614     0.0113 </r>
       <r>     0.3154     0.0273     0.0140 </r>
       <r>     0.4134    -0.0042     0.0136 </r>
       <r>     0.5114     0.0680     0.0202 </r>
       <r>     0.6094     0.2595     0.0456 </r>
       <r>     0.7074     0.3678     0.0817 </r>
       <r>     0.8054     0.2264     0.1039 </r>
       <r>     0.9034     0.0542     0.1092 </r>
       <r>     1.0014     0.2049     0.1293 </r>
       <r>     1.0994     0.6140     0.1894 </r>
       <r>     1.1973     0.7307     0.2610 </r>
       <r>     1.2953     0.3962     0.2999 </r>
       <r>     1.3933     0.1887     0.3184 </r>
       <r>     1.4913     0.3828     0.3559 </r>
       <r>     1.5893     0.5489     0.4096 </r>
       <r>     1.6873     0.3928     0.4481 </r>
       <r>     1.7853     0.1265     0.4605 </r>
       <r>     1.8833     0.0114     0.4617 </r>
       <r>     1.9813     0.1680     0.4781 </r>
       <r>     2.0793     0.4975     0.5269 </r>
       <r>     2.1773     0.6936     0.5948 </r>
       <r>     2.2753     0.8698     0.6801 </r>
       <r>     2.3733     1.3852     0.8158 </r>
       <r>     2.4713     1.8324     0.9954 </r>
       <r>     2.5692     1.6725     1.1593 </r>
       <r>     2.6672     1.0259     1.2598 </r>
       <r>     2.7652     0.5276     1.3115 </r>
       <r>     2.8632     1.0197     1.4114 </r>
       <r>     2.9612     2.3192     1.6387 </r>
       <r>     3.0592     3.1050     1.9429 </r>
       <r>     3.1572     2.8873     2.2259 </r>
       <r>     3.2552     2.2871     2.4500 </r>
       <r>     3.3532     1.6294     2.6097 </r>
       <r>     3.4512     1.6814     2.7744 </r>
       <r>     3.5492     3.4095     3.1085 </r>
       <r>     3.6472     5.4101     3.6387 </r>
       <r>     3.7452     5.8721     4.2141 </r>
       <r>     3.8432     5.6906     4.7718 </r>
       <r>     3.9411     6.0190     5.3616 </r>
       <r>     4.0391     6.6856     6.0167 </r>
       <r>     4.1371     7.1536     6.7177 </r>
       <r>     4.2351     6.7598     7.3801 </r>
       <r>     4.3331     5.5822     7.9271 </r>
       <r>     4.4311     5.0572     8.4227 </r>
       <r>     4.5291     5.9284     9.0037 </r>
       <r>     4.6271     6.9722     9.6869 </r>
       <r>     4.7251     6.6747    10.3410 </r>
       <r>     4.8231     5.1281    10.8435 </r>
       <r>     4.9211     3.9100    11.2266 </r>
       <r>     5.0191     4.0136    11.6199 </r>
       <r>     5.1171     4.6473    12.0753 </r>
       <r>     5.2151     4.7693    12.5427 </r>
       <r>     5.3130     4.8295    13.0159 </r>
       <r>     5.4110     5.7334    13.5778 </r>
       <r>     5.5090     7.1265    14.2761 </r>
       <r>     5.6070     7.5156    15.0126 </r>
       <r>     5.7050     6.4808    15.6477 </r>
       <r>     5.8030     5.5412    16.1907 </r>
       <r>     5.9010     6.0433    16.7829 </r>
       <r>     5.9990     7.3353    17.5017 </r>
       <r>     6.0970     7.6207    18.2485 </r>
       <r>     6.1950     7.2025    18.9543 </r>
       <r>     6.2930     8.3635    19.7738 </r>
       <r>     6.3910    11.5304    20.9037 </r>
       <r>     6.4890    14.3200    22.3070 </r>
       <r>     6.5870    14.0445    23.6832 </r>
       <r>     6.6849    11.1172    24.7726 </r>
       <r>     6.7829     8.7014    25.6253 </r>
       <r>     6.8809     8.7820    26.4859 </r>
       <r>     6.9789    10.3901    27.5040 </r>
       <r>     7.0769    10.9103    28.5732 </r>
       <r>     7.1749     8.9532    29.4505 </r>
       <r>     7.2729     6.3740    30.0751 </r>
       <r>     7.3709     6.0884    30.6718 </r>
       <r>     7.4689     7.5321    31.4098 </r>
       <r>     7.5669     7.4482    32.1397 </r>
       <r>     7.6649     5.7347    32.7017 </r>
       <r>     7.7629     4.9166    33.1835 </r>
       <r>     7.8609     5.2638    33.6993 </r>
       <r>     7.9589     5.9605    34.2834 </r>
       <r>     8.0568     6.7290    34.9428 </r>
       <r>     8.1548     6.6375    35.5932 </r>
       <r>     8.2528     5.6875    36.1505 </r>
       <r>     8.3508     5.2997    36.6699 </r>
       <r>     8.4488     5.6841    37.2269 </r>
       <r>     8.5468     5.8702    37.8021 </r>
       <r>     8.6448     5.9281    38.3830 </r>
       <r>     8.7428     6.1822    38.9888 </r>
       <r>     8.8408     6.0190    39.5786 </r>
       <r>     8.9388     5.2988    40.0979 </r>
       <r>     9.0368     4.5218    40.5410 </r>
       <r>     9.1348     3.8844    40.9216 </r>
       <r>     9.2328     3.4377    41.2585 </r>
       <r>     9.3308     3.0845    41.5608 </r>
       <r>     9.4287     2.8632    41.8413 </r>
       <r>     9.5267     3.1091    42.1460 </r>
       <r>     9.6247     3.2999    42.4694 </r>
       <r>     9.7227     2.5619    42.7204 </r>
       <r>     9.8207     1.3917    42.8568 </r>
       <r>     9.9187     0.8602    42.9411 </r>
       <r>    10.0167     1.0311    43.0421 </r>
       <r>    10.1147     1.2053    43.1602 </r>
       <r>    10.2127     1.1391    43.2719 </r>
       <r>    10.3107     1.0756    43.3773 </r>
       <r>    10.4087     0.9676    43.4721 </r>
       <r>    10.5067     0.7155    43.5422 </r>
       <r>    10.6047     0.5976    43.6008 </r>
       <r>    10.7027     0.8650    43.6855 </r>
       <r>    10.8006     1.2506    43.8081 </r>
       <r>    10.8986     1.5471    43.9597 </r>
       <r>    10.9966     1.7363    44.1298 </r>
       <r>    11.0946     1.3351    44.2607 </r>
       <r>    11.1926     0.4603    44.3058 </r>
       <r>    11.2906     0.1041    44.3160 </r>
       <r>    11.3886     0.5872    44.3735 </r>
       <r>    11.4866     1.1447    44.4857 </r>
       <r>    11.5846     1.0934    44.5928 </r>
       <r>    11.6826     0.8168    44.6729 </r>
       <r>    11.7806     0.7798    44.7493 </r>
       <r>    11.8786     0.8275    44.8304 </r>
       <r>    11.9766     0.8106    44.9098 </r>
       <r>    12.0746     0.7051    44.9789 </r>
       <r>    12.1725     0.4823    45.0262 </r>
       <r>    12.2705     0.2320    45.0489 </r>
       <r>    12.3685     0.2410    45.0725 </r>
       <r>    12.4665     0.6554    45.1367 </r>
       <r>    12.5645     1.2558    45.2598 </r>
       <r>    12.6625     1.6437    45.4209 </r>
       <r>    12.7605     1.5770    45.5754 </r>
       <r>    12.8585     1.3013    45.7029 </r>
       <r>    12.9565     1.1551    45.8161 </r>
       <r>    13.0545     1.1250    45.9264 </r>
       <r>    13.1525     0.9992    46.0243 </r>
       <r>    13.2505     0.7401    46.0968 </r>
       <r>    13.3485     0.5993    46.1555 </r>
       <r>    13.4465     0.7311    46.2272 </r>
       <r>    13.5444     0.9148    46.3168 </r>
       <r>    13.6424     1.0020    46.4150 </r>
       <r>    13.7404     1.3871    46.5509 </r>
       <r>    13.8384     1.9973    46.7466 </r>
       <r>    13.9364     1.9828    46.9409 </r>
       <r>    14.0344     1.4554    47.0836 </r>
       <r>    14.1324     0.9831    47.1799 </r>
       <r>    14.2304     0.4897    47.2279 </r>
       <r>    14.3284     0.1891    47.2464 </r>
       <r>    14.4264     0.3683    47.2825 </r>
       <r>    14.5244     0.6549    47.3467 </r>
       <r>    14.6224     0.5579    47.4014 </r>
       <r>    14.7204     0.2234    47.4232 </r>
       <r>    14.8184     0.1524    47.4382 </r>
       <r>    14.9163     0.3937    47.4768 </r>
       <r>    15.0143     0.6468    47.5401 </r>
       <r>    15.1123     0.9228    47.6306 </r>
       <r>    15.2103     1.2491    47.7530 </r>
       <r>    15.3083     1.3836    47.8886 </r>
       <r>    15.4063     1.4908    48.0346 </r>
       <r>    15.5043     1.8753    48.2184 </r>
       <r>    15.6023     2.2621    48.4401 </r>
       <r>    15.7003     2.2433    48.6599 </r>
       <r>    15.7983     1.7311    48.8295 </r>
       <r>    15.8963     1.0364    48.9311 </r>
       <r>    15.9943     0.7419    49.0038 </r>
       <r>    16.0923     1.0998    49.1116 </r>
       <r>    16.1903     1.7057    49.2787 </r>
       <r>    16.2882     1.7579    49.4510 </r>
       <r>    16.3862     1.0324    49.5522 </r>
       <r>    16.4842     0.2360    49.5753 </r>
       <r>    16.5822    -0.0759    49.5679 </r>
       <r>    16.6802     0.0944    49.5771 </r>
       <r>    16.7782     0.8073    49.6562 </r>
       <r>    16.8762     1.9049    49.8429 </r>
       <r>    16.9742     2.4574    50.0837 </r>
       <r>    17.0722     1.9081    50.2707 </r>
       <r>    17.1702     0.8736    50.3563 </r>
       <r>    17.2682     0.1410    50.3701 </r>
       <r>    17.3662     0.0435    50.3744 </r>
       <r>    17.4642     0.5534    50.4286 </r>
       <r>    17.5622     1.2492    50.5510 </r>
       <r>    17.6601     1.5637    50.7042 </r>
       <r>    17.7581     1.5486    50.8560 </r>
       <r>    17.8561     1.9251    51.0446 </r>
       <r>    17.9541     2.6662    51.3059 </r>
       <r>    18.0521     2.6636    51.5669 </r>
       <r>    18.1501     1.6699    51.7306 </r>
       <r>    18.2481     0.6792    51.7971 </r>
       <r>    18.3461     0.4857    51.8447 </r>
       <r>    18.4441     0.9378    51.9366 </r>
       <r>    18.5421     1.4373    52.0774 </r>
       <r>    18.6401     1.7154    52.2455 </r>
       <r>    18.7381     1.6755    52.4097 </r>
       <r>    18.8361     1.2899    52.5361 </r>
       <r>    18.9341     0.9658    52.6308 </r>
       <r>    19.0320     0.9766    52.7265 </r>
       <r>    19.1300     0.9843    52.8229 </r>
       <r>    19.2280     0.8322    52.9045 </r>
       <r>    19.3260     0.8554    52.9883 </r>
       <r>    19.4240     1.2098    53.1068 </r>
       <r>    19.5220     1.4724    53.2511 </r>
       <r>    19.6200     1.3006    53.3786 </r>
       <r>    19.7180     1.1248    53.4888 </r>
       <r>    19.8160     1.5880    53.6444 </r>
       <r>    19.9140     2.4134    53.8809 </r>
       <r>    20.0120     2.8292    54.1582 </r>
       <r>    20.1100     2.6859    54.4213 </r>
       <r>    20.2080     2.0963    54.6268 </r>
       <r>    20.3060     1.4907    54.7728 </r>
       <r>    20.4039     1.5814    54.9278 </r>
       <r>    20.5019     1.9751    55.1214 </r>
       <r>    20.5999     1.7169    55.2896 </r>
       <r>    20.6979     1.0271    55.3902 </r>
       <r>    20.7959     0.5945    55.4485 </r>
       <r>    20.8939     0.5120    55.4987 </r>
       <r>    20.9919     0.7724    55.5744 </r>
       <r>    21.0899     1.4511    55.7165 </r>
       <r>    21.1879     2.1445    55.9267 </r>
       <r>    21.2859     2.2394    56.1461 </r>
       <r>    21.3839     1.9450    56.3367 </r>
       <r>    21.4819     1.9574    56.5286 </r>
       <r>    21.5799     2.3489    56.7587 </r>
       <r>    21.6779     2.5876    57.0123 </r>
       <r>    21.7758     2.3471    57.2423 </r>
       <r>    21.8738     1.8180    57.4204 </r>
       <r>    21.9718     1.4103    57.5587 </r>
       <r>    22.0698     1.3355    57.6895 </r>
       <r>    22.1678     1.5586    57.8423 </r>
       <r>    22.2658     1.8688    58.0254 </r>
       <r>    22.3638     1.9913    58.2205 </r>
       <r>    22.4618     1.8413    58.4009 </r>
       <r>    22.5598     1.3469    58.5329 </r>
       <r>    22.6578     0.7667    58.6081 </r>
       <r>    22.7558     0.6716    58.6739 </r>
       <r>    22.8538     1.0644    58.7782 </r>
       <r>    22.9518     1.4937    58.9245 </r>
       <r>    23.0498     1.5645    59.0778 </r>
       <r>    23.1477     1.1141    59.1870 </r>
       <r>    23.2457     0.4662    59.2327 </r>
       <r>    23.3437     0.1872    59.2510 </r>
       <r>    23.4417     0.3471    59.2851 </r>
       <r>    23.5397     0.4641    59.3305 </r>
       <r>    23.6377     0.2844    59.3584 </r>
       <r>    23.7357     0.0569    59.3640 </r>
       <r>    23.8337    -0.0217    59.3619 </r>
       <r>    23.9317    -0.0151    59.3604 </r>
       <r>    24.0297    -0.0051    59.3599 </r>
       <r>    24.1277    -0.0099    59.3589 </r>
       <r>    24.2257    -0.0291    59.3561 </r>
       <r>    24.3237    -0.0198    59.3541 </r>
       <r>    24.4217     0.1376    59.3676 </r>
       <r>    24.5196     0.4913    59.4157 </r>
       <r>    24.6176     0.9119    59.5051 </r>
       <r>    24.7156     1.1614    59.6189 </r>
       <r>    24.8136     0.9459    59.7116 </r>
       <r>    24.9116     0.3902    59.7498 </r>
       <r>    25.0096     0.0096    59.7508 </r>
       <r>    25.1076    -0.0756    59.7434 </r>
       <r>    25.2056    -0.0559    59.7379 </r>
       <r>    25.3036     0.0825    59.7460 </r>
       <r>    25.4016     0.4558    59.7907 </r>
       <r>    25.4996     0.8482    59.8738 </r>
       <r>    25.5976     0.8384    59.9559 </r>
       <r>    25.6956     0.4386    59.9989 </r>
       <r>    25.7936     0.0770    60.0065 </r>
       <r>    25.8915    -0.0359    60.0029 </r>
       <r>    25.9895    -0.0235    60.0006 </r>
       <r>    26.0875    -0.0057    60.0001 </r>
       <r>    26.1855    -0.0007    60.0000 </r>
       <r>    26.2835    -0.0001    60.0000 </r>
       <r>    26.3815    -0.0000    60.0000 </r>
       <r>    26.4795    -0.0000    60.0000 </r>
       <r>    26.5775    -0.0000    60.0000 </r>
       <r>    26.6755    -0.0000    60.0000 </r>
       <r>    26.7735    -0.0000    60.0000 </r>
       <r>    26.8715    -0.0000    60.0000 </r>
       <r>    26.9695     0.0000    60.0000 </r>
       <r>    27.0675     0.0000    60.0000 </r>
       <r>    27.1655     0.0000    60.0000 </r>
       <r>    27.2634     0.0000    60.0000 </r>
       <r>    27.3614     0.0000    60.0000 </r>
       <r>    27.4594     0.0000    60.0000 </r>
       <r>    27.5574     0.0000    60.0000 </r>
      </set>
     </set>
    </array>
   </total>
  </dos>
 </calculation>
 <structure name="finalpos" >
  <crystal>
   <varray name="basis" >
    <v>       3.86600000       0.00000000       0.00000000 </v>
    <v>       0.00000000       3.86600000       0.00000000 </v>
    <v>       0.00000000       0.00000000       3.86600000 </v>
   </varray>
   <i name="volume">     57.78106590 </i>
   <varray name="rec_basis" >
    <v>       0.25866529       0.00000000       0.00000000 </v>
    <v>       0.00000000       0.25866529       0.00000000 </v>
    <v>       0.00000000       0.00000000       0.25866529 </v>
   </varray>
  </crystal>
  <varray name="positions" >
   <v>       0.00000000       0.00000000       0.00000000 </v>
   <v>       0.50000000       0.50000000       0.00000000 </v>
   <v>       0.50000000       0.00000000       0.50000000 </v>
   <v>       0.00000000       0.50000000       0.50000000 </v>
  </varray>
 </structure>
</modeling>
