unknown system                          
   1.00000000000000     
     2.236800    0.000000    0.000000
    -1.118400    1.937126    0.000000
     0.000000    0.000000    3.896640
   Fe
     2
Direct
  0.000000  0.000000  0.000000
  0.333333  0.666667  0.500000
 
   20   20   32
 0.14159731277E+03 0.13473993579E+03 0.11616272820E+03 0.90837527073E+02 0.64476333550E+02
 0.41619000943E+02 0.24842106604E+02 0.14762155674E+02 0.10281791327E+02 0.90587180493E+01
 0.87873524254E+01 0.90587420646E+01 0.10281811671E+02 0.14762155618E+02 0.24842103690E+02
 0.41619022025E+02 0.64476375682E+02 0.90837558517E+02 0.11616272889E+03 0.13473992208E+03
 0.13474249504E+03 0.13473993179E+03 0.12205416225E+03 0.10024168927E+03 0.74702612459E+02
 0.50545571487E+02 0.31265373372E+02 0.18407136548E+02 0.11691862185E+02 0.93311202662E+01
 0.87713341334E+01 0.87712502806E+01 0.93310394061E+01 0.11691846021E+02 0.18406699106E+02
 0.31264243663E+02 0.50544873553E+02 0.74704413093E+02 0.10024665487E+03 0.12205990396E+03
 0.11616651859E+03 0.12202813997E+03 0.11616272014E+03 0.10024168662E+03 0.78460488457E+02
 0.55721954449E+02 0.36026668620E+02 0.21707706375E+02 0.13306433597E+02 0.97363026202E+01
 0.87656444722E+01 0.85023227188E+01 0.87654835690E+01 0.97363902301E+01 0.13306569651E+02
 0.21706968346E+02 0.36024910591E+02 0.55720883453E+02 0.78462231903E+02 0.10024603443E+03
 0.90835767826E+02 0.10017403918E+03 0.10017463552E+03 0.90837518943E+02 0.74702608255E+02
 0.55721954172E+02 0.37785058583E+02 0.23670278323E+02 0.14599249658E+02 0.10193678798E+02
 0.87685364017E+01 0.82922541542E+01 0.82921529620E+01 0.87685309115E+01 0.10194176271E+02
 0.14599975775E+02 0.23670297926E+02 0.37783684449E+02 0.55719480739E+02 0.74700049440E+02
 0.64470816376E+02 0.74608710303E+02 0.78330370977E+02 0.74613027364E+02 0.64476328051E+02
 0.50545572037E+02 0.36026676420E+02 0.23670283599E+02 0.15093436468E+02 0.10501312820E+02
 0.87864021030E+01 0.81577601215E+01 0.79316983789E+01 0.81576450632E+01 0.87864000003E+01
 0.10501957176E+02 0.15095063470E+02 0.23672088616E+02 0.36026680194E+02 0.50542300590E+02
 0.41618293767E+02 0.50466718412E+02 0.55582547565E+02 0.55583946788E+02 0.50469280937E+02
 0.41619004750E+02 0.31265385327E+02 0.21707719525E+02 0.14599252934E+02 0.10501312056E+02
 0.87985603493E+01 0.80949481247E+01 0.77167182365E+01 0.77167013887E+01 0.80946209147E+01
 0.87978448226E+01 0.10501228918E+02 0.14601038207E+02 0.21710890009E+02 0.31267544885E+02
 0.24845893394E+02 0.31233156548E+02 0.35942651642E+02 0.37676529241E+02 0.35940930077E+02
 0.31229904049E+02 0.24842118850E+02 0.18407151656E+02 0.13306440617E+02 0.10193677429E+02
 0.87864016148E+01 0.80949467150E+01 0.76466859634E+01 0.74935170230E+01 0.76468386606E+01
 0.80943158495E+01 0.87846303976E+01 0.10191962388E+02 0.13306569651E+02 0.18409695263E+02
 0.14762170822E+02 0.18418229015E+02 0.21703857956E+02 0.23646755251E+02 0.23644998499E+02
 0.21700004037E+02 0.18415276860E+02 0.14762167756E+02 0.11691871371E+02 0.97363019447E+01
 0.87685328216E+01 0.81577552437E+01 0.77167103953E+01 0.74935142474E+01 0.74939250120E+01
 0.77174448506E+01 0.81576602671E+01 0.87667250174E+01 0.97331816213E+01 0.11689288261E+02
 0.10277866850E+02 0.11723918064E+02 0.13359762015E+02 0.14658544957E+02 0.15152204806E+02
 0.14657495135E+02 0.13359770147E+02 0.11726468618E+02 0.10281798150E+02 0.93311197123E+01
 0.87656361830E+01 0.82922452611E+01 0.79316878310E+01 0.77166951914E+01 0.76468410811E+01
 0.77174464946E+01 0.79333128639E+01 0.82939436522E+01 0.87656386867E+01 0.93284664427E+01
 0.90586421212E+01 0.93709255951E+01 0.98127674636E+01 0.10297472494E+02 0.10619309352E+02
 0.10620015300E+02 0.10299641107E+02 0.98159441018E+01 0.93734839400E+01 0.90587150499E+01
 0.87713228964E+01 0.85023113728E+01 0.82921453177E+01 0.81576400964E+01 0.80946234655E+01
 0.80943198101E+01 0.81576601781E+01 0.82939449010E+01 0.85056160672E+01 0.87739231874E+01
 0.87911421292E+01 0.88170435224E+01 0.88501605259E+01 0.88871963793E+01 0.89299147530E+01
 0.89519619726E+01 0.89316388206E+01 0.88889671929E+01 0.88500167760E+01 0.88143971052E+01
 0.87873417313E+01 0.87712401579E+01 0.87654810652E+01 0.87685308206E+01 0.87864016148E+01
 0.87978492961E+01 0.87846325003E+01 0.87667285066E+01 0.87656444722E+01 0.87739243018E+01
 0.90586393907E+01 0.88170428082E+01 0.85910722609E+01 0.84188431635E+01 0.83144186323E+01
 0.82692065119E+01 0.82695026185E+01 0.83143940474E+01 0.84170705732E+01 0.85878230757E+01
 0.88144929687E+01 0.90587363348E+01 0.93310410537E+01 0.97363958072E+01 0.10194179280E+02
 0.10501961655E+02 0.10501234162E+02 0.10191966766E+02 0.97331878739E+01 0.93284686442E+01
 0.10277864634E+02 0.93709243507E+01 0.88501605603E+01 0.84188411336E+01 0.80943139063E+01
 0.79044086060E+01 0.78433690975E+01 0.79036832540E+01 0.80927148930E+01 0.84171492318E+01
 0.88501537651E+01 0.93735838834E+01 0.10281816279E+02 0.11691856167E+02 0.13306577606E+02
 0.14599981192E+02 0.15095069082E+02 0.14601040348E+02 0.13306570586E+02 0.11689289222E+02
 0.14762171686E+02 0.11723918065E+02 0.98127663211E+01 0.88871911350E+01 0.83144130120E+01
 0.79044078419E+01 0.76984988009E+01 0.76981072727E+01 0.79036992659E+01 0.83144887179E+01
 0.88889339761E+01 0.98158281465E+01 0.11726484630E+02 0.14762168564E+02 0.18406712452E+02
 0.21706975255E+02 0.23670299611E+02 0.23672085025E+02 0.21710883768E+02 0.18409693499E+02
 0.24845896308E+02 0.18418231281E+02 0.13359760233E+02 0.10297466678E+02 0.89299075088E+01
 0.82692043674E+01 0.78433712173E+01 0.76981087069E+01 0.78432321084E+01 0.82698300659E+01
 0.89316388206E+01 0.10299135057E+02 0.13359615029E+02 0.18415698169E+02 0.24842118850E+02
 0.31264250963E+02 0.36024906817E+02 0.37783673999E+02 0.36026668620E+02 0.31267540230E+02
 0.41618295662E+02 0.31233161169E+02 0.21703859244E+02 0.14658542653E+02 0.10619304518E+02
 0.89519584849E+01 0.82695035422E+01 0.79036865493E+01 0.79037033253E+01 0.82698331340E+01
 0.89526844582E+01 0.10619409963E+02 0.14656789854E+02 0.21700724522E+02 0.31231032523E+02
 0.41619027727E+02 0.50544866756E+02 0.55720868763E+02 0.55719466325E+02 0.50542293243E+02
 0.64470815852E+02 0.50466725497E+02 0.35942660044E+02 0.23646759831E+02 0.15152203304E+02
 0.10620009799E+02 0.89316355030E+01 0.83143970001E+01 0.80927229012E+01 0.83144972909E+01
 0.89316427472E+01 0.10619409296E+02 0.15150631930E+02 0.23644983295E+02 0.35942658072E+02
 0.50470009195E+02 0.64476369660E+02 0.74704398945E+02 0.78462216452E+02 0.74700039495E+02
 0.90835766299E+02 0.74608720156E+02 0.55582563204E+02 0.37676540767E+02 0.23644999057E+02
 0.14657487160E+02 0.10299633558E+02 0.88889679206E+01 0.84170803598E+01 0.84171610482E+01
 0.88889399482E+01 0.10299133324E+02 0.14656784183E+02 0.23644979273E+02 0.37677866822E+02
 0.55584979304E+02 0.74611266590E+02 0.90837548859E+02 0.10024664080E+03 0.10024602301E+03
 0.11616651791E+03 0.10017405083E+03 0.78330389234E+02 0.55583961543E+02 0.35940932050E+02
 0.21699994850E+02 0.13359760233E+02 0.98159414459E+01 0.88500235712E+01 0.85878344894E+01
 0.88501605259E+01 0.98158266331E+01 0.13359606897E+02 0.21700714047E+02 0.35942651642E+02
 0.55584978420E+02 0.78328601374E+02 0.10016968572E+03 0.11616272014E+03 0.12205989433E+03
 0.13474249521E+03 0.12202814997E+03 0.10017465051E+03 0.74613040356E+02 0.50469284923E+02
 0.31229896462E+02 0.18415265750E+02 0.11726461479E+02 0.93734837763E+01 0.88144047240E+01
 0.88145013017E+01 0.93735849641E+01 0.11726477489E+02 0.18415684793E+02 0.31231020315E+02
 0.50470006096E+02 0.74611269729E+02 0.10016968906E+03 0.12202238714E+03 0.13473991825E+03
 0.13348290106E+03 0.12702495544E+03 0.10951868540E+03 0.85631341086E+02 0.60755710383E+02
 0.39213169954E+02 0.23472282758E+02 0.14107261691E+02 0.10019153166E+02 0.89119487036E+01
 0.86448585547E+01 0.89119733592E+01 0.10019174937E+02 0.14107263122E+02 0.23472279735E+02
 0.39213188438E+02 0.60755748740E+02 0.85631370111E+02 0.10951868612E+03 0.12702494275E+03
 0.12702734987E+03 0.12702495158E+03 0.11506958065E+03 0.94497033199E+02 0.70393555913E+02
 0.47604324964E+02 0.29469164038E+02 0.17461600606E+02 0.11278216052E+02 0.91498632917E+01
 0.86181836142E+01 0.86180998617E+01 0.91497828016E+01 0.11278214935E+02 0.17461224752E+02
 0.29468139505E+02 0.47603684342E+02 0.70395234223E+02 0.94501669325E+02 0.11507494920E+03
 0.10952223297E+03 0.11505024572E+03 0.10951867775E+03 0.94497030748E+02 0.73935515004E+02
 0.52474694234E+02 0.33925909641E+02 0.20516545067E+02 0.12737683989E+02 0.94958131028E+01
 0.86062710813E+01 0.83489340220E+01 0.86061041855E+01 0.94958851945E+01 0.12737824521E+02
 0.20515880635E+02 0.33924279691E+02 0.52473686564E+02 0.73937132826E+02 0.94501092653E+02
 0.85629701235E+02 0.94447079380E+02 0.94447633772E+02 0.85631333501E+02 0.70393551904E+02
 0.52474693917E+02 0.35573614364E+02 0.22338390225E+02 0.13914721409E+02 0.98926435054E+01
 0.86049796618E+01 0.81418288453E+01 0.81417274680E+01 0.86049588534E+01 0.98930925693E+01
 0.13915387333E+02 0.22338396111E+02 0.35572316356E+02 0.52472371652E+02 0.70391158231E+02
 0.60750560879E+02 0.70327969962E+02 0.73844365934E+02 0.70332003016E+02 0.60755705207E+02
 0.47604325389E+02 0.33925917096E+02 0.22338395271E+02 0.14366099943E+02 0.10162474789E+02
 0.86149627292E+01 0.80106069708E+01 0.77923409668E+01 0.80105070565E+01 0.86149610587E+01
 0.10163059704E+02 0.14367594128E+02 0.22340064987E+02 0.33925920699E+02 0.47601277225E+02
 0.39212520484E+02 0.47559716025E+02 0.52390690861E+02 0.52392002471E+02 0.47562113655E+02
 0.39213173558E+02 0.29469175395E+02 0.20516557598E+02 0.13914724340E+02 0.10162473974E+02
 0.86231193816E+01 0.79497085233E+01 0.75855038003E+01 0.75855022302E+01 0.79494301706E+01
 0.86224650039E+01 0.10162391750E+02 0.13916388254E+02 0.20519532378E+02 0.29471214577E+02
 0.23475826588E+02 0.29471580280E+02 0.33904103707E+02 0.35537858471E+02 0.33902506711E+02
 0.29468549903E+02 0.23472294294E+02 0.17461614889E+02 0.12737690437E+02 0.98926420230E+01
 0.86149624408E+01 0.79497073116E+01 0.75183645363E+01 0.73717155112E+01 0.75185233388E+01
 0.79491371543E+01 0.86133200505E+01 0.98910487557E+01 0.12737824521E+02 0.17464006807E+02
 0.14107263159E+02 0.17504621028E+02 0.20573476227E+02 0.22393076760E+02 0.22391439190E+02
 0.20569886529E+02 0.17501878223E+02 0.14107272968E+02 0.11278224652E+02 0.94958123387E+01
 0.86049764509E+01 0.80106026286E+01 0.75854963305E+01 0.73717128373E+01 0.73720904115E+01
 0.75861702220E+01 0.80105070941E+01 0.86032899401E+01 0.94929013684E+01 0.11275807856E+02
 0.10015466906E+02 0.11339125222E+02 0.12846948420E+02 0.14049892477E+02 0.14508172369E+02
 0.14048903940E+02 0.12846956022E+02 0.11341523982E+02 0.10019159602E+02 0.91498627667E+01
 0.86062632662E+01 0.81418206748E+01 0.77923310247E+01 0.75854962928E+01 0.75185257147E+01
 0.75861717545E+01 0.77938207966E+01 0.81433963436E+01 0.86062653638E+01 0.91473756847E+01
 0.89118731299E+01 0.92162827929E+01 0.96238969234E+01 0.10068065348E+02 0.10363351654E+02
 0.10363999759E+02 0.10070069187E+02 0.96268528854E+01 0.92186763261E+01 0.89119459095E+01
 0.86181729054E+01 0.83489234013E+01 0.81417204456E+01 0.80105023617E+01 0.79494326029E+01
 0.79491407984E+01 0.80105067415E+01 0.81433974916E+01 0.83520180397E+01 0.86206072079E+01
 0.86484054076E+01 0.86893734830E+01 0.87400831358E+01 0.87925000424E+01 0.88403391722E+01
 0.88629162093E+01 0.88419385132E+01 0.87941381511E+01 0.87399351985E+01 0.86868927672E+01
 0.86448483841E+01 0.86180902793E+01 0.86061020878E+01 0.86049588854E+01 0.86149624408E+01
 0.86224690306E+01 0.86133217210E+01 0.86032931830E+01 0.86062710813E+01 0.86206083343E+01
 0.89118704612E+01 0.86893728077E+01 0.84861824146E+01 0.83360525609E+01 0.82487487048E+01
 0.82127408484E+01 0.82130245554E+01 0.82487380762E+01 0.83343998975E+01 0.84831411783E+01
 0.86869886128E+01 0.89119678963E+01 0.91497845242E+01 0.94958906188E+01 0.98930952034E+01
 0.10163063686E+02 0.10162396546E+02 0.98910528722E+01 0.94929075568E+01 0.91473779323E+01
 0.10015464796E+02 0.92162816399E+01 0.87400832619E+01 0.83360506037E+01 0.80361265361E+01
 0.78627707057E+01 0.78075107427E+01 0.78621169879E+01 0.80346573800E+01 0.83344781400E+01
 0.87400767163E+01 0.92187765554E+01 0.10019179263E+02 0.11278224614E+02 0.12737831954E+02
 0.13915392294E+02 0.14367599433E+02 0.13916390285E+02 0.12737825507E+02 0.11275808935E+02
 0.14107264146E+02 0.11339125289E+02 0.96238958842E+01 0.87924949666E+01 0.82487432383E+01
 0.78627699948E+01 0.76702966877E+01 0.76699369298E+01 0.78621194427E+01 0.82488187735E+01
 0.87941180932E+01 0.96267502013E+01 0.11341526437E+02 0.14107275385E+02 0.17461237497E+02
 0.20515887189E+02 0.22338397726E+02 0.22340061556E+02 0.20519526401E+02 0.17464005268E+02
 0.23475829611E+02 0.17504623246E+02 0.12846946628E+02 0.10068059681E+02 0.88403321715E+01
 0.82127388625E+01 0.78075128420E+01 0.76699382635E+01 0.78073692250E+01 0.82133071919E+01
 0.88419385132E+01 0.10069608079E+02 0.12846794843E+02 0.17502239140E+02 0.23472294294E+02
 0.29468146562E+02 0.33924276088E+02 0.35572306368E+02 0.33925909641E+02 0.29471210276E+02
 0.39212522447E+02 0.29471584678E+02 0.20573477277E+02 0.14049890162E+02 0.10363347048E+02
 0.88629129607E+01 0.82130254906E+01 0.78621200329E+01 0.78621231986E+01 0.82133101130E+01
 0.88635813195E+01 0.10363452482E+02 0.14048256433E+02 0.20570534074E+02 0.29469572348E+02
 0.39213194005E+02 0.47603677882E+02 0.52473672549E+02 0.52472357952E+02 0.47601270340E+02
 0.60750560381E+02 0.47559722712E+02 0.33904111595E+02 0.22393081069E+02 0.14508170975E+02
 0.10363994556E+02 0.88419353201E+01 0.82487407835E+01 0.80346649053E+01 0.82488269472E+01
 0.88419423208E+01 0.10363451884E+02 0.14506730399E+02 0.22391439152E+02 0.33904109860E+02
 0.47562781609E+02 0.60755743066E+02 0.70395220780E+02 0.73937118153E+02 0.70391148796E+02
 0.85629699698E+02 0.70327979299E+02 0.52390705760E+02 0.35537869450E+02 0.22391439680E+02
 0.14048896280E+02 0.10070061948E+02 0.87941388097E+01 0.83344092154E+01 0.83344894151E+01
 0.87941238275E+01 0.10069606507E+02 0.14048251089E+02 0.22391435334E+02 0.35539124921E+02
 0.52392975905E+02 0.70330361628E+02 0.85631360988E+02 0.94501655925E+02 0.94501081704E+02
 0.10952223226E+03 0.94447090515E+02 0.73844383373E+02 0.52392016498E+02 0.33902508446E+02
 0.20569877644E+02 0.12846946628E+02 0.96268504653E+01 0.87399417442E+01 0.84831520459E+01
 0.87400831358E+01 0.96267488204E+01 0.12846787241E+02 0.20570524139E+02 0.33904103707E+02
 0.52392975033E+02 0.73842724926E+02 0.94443012770E+02 0.10951867775E+03 0.11507493989E+03
 0.12702735003E+03 0.11505025534E+03 0.94447648053E+02 0.70332015275E+02 0.47562117299E+02
 0.29468542584E+02 0.17501867779E+02 0.11341517422E+02 0.92186762274E+01 0.86868999778E+01
 0.86869964986E+01 0.92187776097E+01 0.11341519810E+02 0.17502226479E+02 0.29469560630E+02
 0.47562778567E+02 0.70330364549E+02 0.94443015917E+02 0.11504486734E+03 0.12702493905E+03
 0.11187983042E+03 0.10647395491E+03 0.91797328354E+02 0.71732064033E+02 0.50836066618E+02
 0.32838969720E+02 0.19893897530E+02 0.12437508285E+02 0.93608363518E+01 0.85110584356E+01
 0.82587001971E+01 0.85110832438E+01 0.93608598366E+01 0.12437512341E+02 0.19893894262E+02
 0.32838982344E+02 0.50836096124E+02 0.71732087246E+02 0.91797329126E+02 0.10647394475E+03
 0.10647590627E+03 0.10647395144E+03 0.96446784476E+02 0.79162877105E+02 0.58894002276E+02
 0.39785394059E+02 0.24743112536E+02 0.15022031026E+02 0.10238497742E+02 0.86808218505E+01
 0.82049953181E+01 0.82049128339E+01 0.86807429334E+01 0.10238533334E+02 0.15021812806E+02
 0.24742363404E+02 0.39784904996E+02 0.58895353538E+02 0.79166629951E+02 0.96451150715E+02
 0.91800223010E+02 0.96445513409E+02 0.91797321871E+02 0.79162875213E+02 0.61857336289E+02
 0.43830764295E+02 0.28378149284E+02 0.17420461224E+02 0.11295269456E+02 0.88891170416E+01
 0.81749895934E+01 0.79365672475E+01 0.81748111082E+01 0.88891507571E+01 0.11295419732E+02
 0.17419988676E+02 0.28376859605E+02 0.43829927363E+02 0.61858618981E+02 0.79166169852E+02
 0.71730743967E+02 0.79160451421E+02 0.79160893725E+02 0.71732057972E+02 0.58893998803E+02
 0.43830763859E+02 0.29727016034E+02 0.18864638573E+02 0.12167871332E+02 0.91365163854E+01
 0.81627870973E+01 0.77364398523E+01 0.77363400948E+01 0.81627300839E+01 0.91368403785E+01
 0.12168379008E+02 0.18864609940E+02 0.29725924501E+02 0.43828849021E+02 0.58892048737E+02
 0.50831902936E+02 0.58903840970E+02 0.61870124228E+02 0.58907111731E+02 0.50836062327E+02
 0.39785394112E+02 0.28378155789E+02 0.18864642985E+02 0.12506106009E+02 0.93109253164E+01
 0.81601820038E+01 0.76121696409E+01 0.74162848030E+01 0.76121087216E+01 0.81601814640E+01
 0.93113545065E+01 0.12507249440E+02 0.18865953219E+02 0.28378158910E+02 0.39782943474E+02
 0.32838472927E+02 0.39830961205E+02 0.43893066654E+02 0.43894142208E+02 0.39832915499E+02
 0.32838972731E+02 0.24743122235E+02 0.17420472056E+02 0.12167873329E+02 0.93109243704E+01
 0.81606695861E+01 0.75551137518E+01 0.72303083333E+01 0.72303440073E+01 0.75549590104E+01
 0.81601748362E+01 0.93108450900E+01 0.12169212870E+02 0.17422919713E+02 0.24744834343E+02
 0.19896788146E+02 0.24835327605E+02 0.28518383426E+02 0.29881091772E+02 0.28517118542E+02
 0.24832891778E+02 0.19893907092E+02 0.15022043043E+02 0.11295274367E+02 0.91365146005E+01
 0.81601822531E+01 0.75551130674E+01 0.71704724206E+01 0.70415288289E+01 0.71706431195E+01
 0.75547003859E+01 0.81588821599E+01 0.91352463076E+01 0.11295419732E+02 0.15024025121E+02
 0.12437475421E+02 0.15146269801E+02 0.17632881690E+02 0.19119968525E+02 0.19118650151E+02
 0.17629999079E+02 0.15144085923E+02 0.12437517365E+02 0.10238504767E+02 0.88891160467E+01
 0.81627848863E+01 0.76121667291E+01 0.72303018610E+01 0.70415264303E+01 0.70418165408E+01
 0.72308165040E+01 0.76120718018E+01 0.81614237248E+01 0.88867660560E+01 0.10236534892E+02
 0.93577929692E+01 0.10371354749E+02 0.11544660897E+02 0.12493674305E+02 0.12857685970E+02
 0.12492851798E+02 0.11544667055E+02 0.10373343028E+02 0.93608417517E+01 0.86808214334E+01
 0.81749830720E+01 0.77364336168E+01 0.74162764805E+01 0.72303387808E+01 0.71706454038E+01
 0.72308177498E+01 0.74174111239E+01 0.77376833737E+01 0.81749840915E+01 0.86787814112E+01
 0.85109843585E+01 0.88124825163E+01 0.91439281194E+01 0.94879056251E+01 0.97154624046E+01
 0.97159574933E+01 0.94894714833E+01 0.91462939402E+01 0.88144330279E+01 0.85110562402E+01
 0.82049860625E+01 0.79365585709E+01 0.77363347315E+01 0.76121047636E+01 0.75549611606E+01
 0.75547032207E+01 0.76120707556E+01 0.77376842458E+01 0.79390877538E+01 0.82069732415E+01
 0.82615940812E+01 0.83378752391E+01 0.84279559750E+01 0.85162821832E+01 0.85822974555E+01
 0.86078510325E+01 0.85835642329E+01 0.85175671735E+01 0.84277991844E+01 0.83358405491E+01
 0.82586914826E+01 0.82049047112E+01 0.81748100887E+01 0.81627304325E+01 0.81601822531E+01
 0.81601777036E+01 0.81588826997E+01 0.81614262844E+01 0.81749895934E+01 0.82069743743E+01
 0.85109818347E+01 0.83378746726E+01 0.81901653661E+01 0.80913943791E+01 0.80424224116E+01
 0.80264898628E+01 0.80267389520E+01 0.80424469493E+01 0.80900629910E+01 0.81876830654E+01
 0.83359346840E+01 0.85110785246E+01 0.86807448325E+01 0.88891557278E+01 0.91368419935E+01
 0.93113571860E+01 0.93108487155E+01 0.91352497074E+01 0.88867720215E+01 0.86787837274E+01
 0.93577911084E+01 0.88124816069E+01 0.84279563766E+01 0.80913926309E+01 0.78499571784E+01
 0.77147896089E+01 0.76726452613E+01 0.77143236195E+01 0.78488321110E+01 0.80901395919E+01
 0.84279505436E+01 0.88145319132E+01 0.93608633757E+01 0.10238541687E+02 0.11295425726E+02
 0.12168382746E+02 0.12507253954E+02 0.12169214610E+02 0.11295420815E+02 0.10236536220E+02
 0.12437476691E+02 0.10371354987E+02 0.91439273994E+01 0.85162776053E+01 0.80424173869E+01
 0.77147890495E+01 0.75542663702E+01 0.75539906431E+01 0.77142920251E+01 0.80424919558E+01
 0.85175812339E+01 0.91462266492E+01 0.10373311433E+02 0.12437522691E+02 0.15021823845E+02
 0.17419994234E+02 0.18864611390E+02 0.18865950258E+02 0.17422914440E+02 0.15024024142E+02
 0.19896791414E+02 0.15146271875E+02 0.11544659101E+02 0.94879004150E+01 0.85822911485E+01
 0.80264883232E+01 0.76726472981E+01 0.75539917071E+01 0.76724939020E+01 0.80269054198E+01
 0.85835642329E+01 0.94891295292E+01 0.11544494072E+02 0.15144292072E+02 0.19893907092E+02
 0.24742369750E+02 0.28376856485E+02 0.29725915824E+02 0.28378149284E+02 0.24744830990E+02
 0.32838475053E+02 0.24835331361E+02 0.17632882094E+02 0.12493671997E+02 0.97154584613E+01
 0.86078484595E+01 0.80267399216E+01 0.77143259767E+01 0.77142949418E+01 0.80269079290E+01
 0.86083632336E+01 0.97155617115E+01 0.12492357131E+02 0.17630456826E+02 0.24833637237E+02
 0.32838987480E+02 0.39784899445E+02 0.43829915248E+02 0.43828837341E+02 0.39782937870E+02
 0.50831902496E+02 0.39830966754E+02 0.28518389881E+02 0.19119972109E+02 0.12857684908E+02
 0.97159531285E+01 0.85835613861E+01 0.80424489813E+01 0.78488383001E+01 0.80424990125E+01
 0.85835676930E+01 0.97155612899E+01 0.12856588716E+02 0.19118687071E+02 0.28518388780E+02
 0.39833424915E+02 0.50836091394E+02 0.58895342082E+02 0.61858606527E+02 0.58892040754E+02
 0.71730742407E+02 0.58903848850E+02 0.43893079475E+02 0.29881101246E+02 0.19118650483E+02
 0.12492845038E+02 0.94894651098E+01 0.85175676369E+01 0.80900710049E+01 0.80901493540E+01
 0.85175862753E+01 0.94891283658E+01 0.12492352679E+02 0.19118683819E+02 0.29882162605E+02
 0.43894954417E+02 0.58905790105E+02 0.71732079624E+02 0.79166618460E+02 0.79166160253E+02
 0.91800222238E+02 0.79160461106E+02 0.61870139353E+02 0.43894154212E+02 0.28517119643E+02
 0.17629991063E+02 0.11544659101E+02 0.91462921686E+01 0.84278050173E+01 0.81876924016E+01
 0.84279559750E+01 0.91462255976E+01 0.11544487913E+02 0.17630448406E+02 0.28518383426E+02
 0.43894953601E+02 0.61868824924E+02 0.79157154082E+02 0.91797321871E+02 0.96451142362E+02
 0.10647590638E+03 0.96445521973E+02 0.79160906003E+02 0.58907121943E+02 0.39832918220E+02
 0.24832885227E+02 0.15144077340E+02 0.10373338048E+02 0.88144330735E+01 0.83358466051E+01
 0.83359413064E+01 0.88145328683E+01 0.10373306216E+02 0.15144281415E+02 0.24833626930E+02
 0.39833422088E+02 0.58905792437E+02 0.79157156675E+02 0.96441140321E+02 0.10647394139E+03
 0.83436341086E+02 0.79396154862E+02 0.68414767717E+02 0.53396171949E+02 0.37824189727E+02
 0.24612977295E+02 0.15425913662E+02 0.10460260070E+02 0.85905118761E+01 0.79594913517E+01
 0.77356152919E+01 0.79595120870E+01 0.85905318760E+01 0.10460263881E+02 0.15425910164E+02
 0.24612985174E+02 0.37824210939E+02 0.53396189286E+02 0.68414768543E+02 0.79396147398E+02
 0.79397516122E+02 0.79396151953E+02 0.71883441614E+02 0.58925292115E+02 0.43762766322E+02
 0.29610992226E+02 0.18743944961E+02 0.12058581760E+02 0.90359640160E+01 0.80688360347E+01
 0.76476221358E+01 0.76475443584E+01 0.80687611006E+01 0.90360375389E+01 0.12058550048E+02
 0.18743540795E+02 0.29610697445E+02 0.43763687244E+02 0.58927875728E+02 0.71886475468E+02
 0.68416792375E+02 0.71905734446E+02 0.68414762953E+02 0.58925291027E+02 0.45952232514E+02
 0.32544284478E+02 0.21275647116E+02 0.13598175943E+02 0.96033893704E+01 0.81592459518E+01
 0.75893173901E+01 0.73834038083E+01 0.75891366147E+01 0.81592381026E+01 0.96035455772E+01
 0.13597941246E+02 0.21274798853E+02 0.32543676694E+02 0.45953076708E+02 0.58927567713E+02
 0.53395274212E+02 0.58984391719E+02 0.58984686824E+02 0.53396168070E+02 0.43762763582E+02
 0.32544283851E+02 0.22222404991E+02 0.14543590247E+02 0.10094572973E+02 0.82503311051E+01
 0.75559473578E+01 0.71902298798E+01 0.71901383784E+01 0.75558564044E+01 0.82505031152E+01
 0.10094880314E+02 0.14543522815E+02 0.22221594240E+02 0.32542915028E+02 0.43761403447E+02
 0.37821331255E+02 0.43869111276E+02 0.46098239010E+02 0.43871370372E+02 0.37824186657E+02
 0.29610991699E+02 0.21275652264E+02 0.14543593791E+02 0.10289309504E+02 0.83181697213E+01
 0.75400758260E+01 0.70709214203E+01 0.69084747716E+01 0.70709073412E+01 0.75400767262E+01
 0.83184036097E+01 0.10290004528E+02 0.14544437889E+02 0.21275654705E+02 0.29609328721E+02
 0.24612676458E+02 0.29770110007E+02 0.32791521539E+02 0.32792281131E+02 0.29771473726E+02
 0.24612979376E+02 0.18743952291E+02 0.13598184436E+02 0.10094573709E+02 0.83181686168E+01
 0.75355616856E+01 0.70159374793E+01 0.67479482947E+01 0.67480223912E+01 0.70159248815E+01
 0.75352658373E+01 0.83180948935E+01 0.10095486672E+02 0.13599926702E+02 0.18745218235E+02
 0.15427933995E+02 0.18947011797E+02 0.21617088439E+02 0.22612662403E+02 0.21616257552E+02
 0.18945360071E+02 0.15425920427E+02 0.12058590668E+02 0.96033922172E+01 0.82503289474E+01
 0.75400767825E+01 0.70159374852E+01 0.66967314431E+01 0.65918476208E+01 0.66969048804E+01
 0.70157179123E+01 0.75392208744E+01 0.82494862948E+01 0.96035455772E+01 0.12060020519E+02
 0.10460188870E+02 0.12281049308E+02 0.13999794370E+02 0.15043872011E+02 0.15042975137E+02
 0.13997843829E+02 0.12279598203E+02 0.10460266095E+02 0.90359689464E+01 0.81592447087E+01
 0.75559464749E+01 0.70709204064E+01 0.67479431300E+01 0.65918456147E+01 0.65920243789E+01
 0.67482560961E+01 0.70708323299E+01 0.75550163420E+01 0.81576363743E+01 0.90345938037E+01
 0.85883323843E+01 0.92544492249E+01 0.10020068200E+02 0.10648532167E+02 0.10891890276E+02
 0.10647934644E+02 0.10020072383E+02 0.92558834980E+01 0.85905159639E+01 0.80688358277E+01
 0.75893126398E+01 0.71902262043E+01 0.69084685589E+01 0.67480181412E+01 0.66969071029E+01
 0.67482570108E+01 0.69091549636E+01 0.71910534520E+01 0.75893122745E+01 0.80673923766E+01
 0.79594210664E+01 0.82773247354E+01 0.85632156807E+01 0.88087158087E+01 0.89622113802E+01
 0.89625101675E+01 0.88097133803E+01 0.85648049474E+01 0.82786853114E+01 0.79594900639E+01
 0.76476149089E+01 0.73833976991E+01 0.71901351836E+01 0.70709043970E+01 0.70159267589E+01
 0.70157197837E+01 0.70708303997E+01 0.71910539327E+01 0.73851715684E+01 0.76490041030E+01
 0.77376391237E+01 0.78522161297E+01 0.79806846474E+01 0.81018446588E+01 0.81897345021E+01
 0.82223138007E+01 0.81905666020E+01 0.81026703129E+01 0.79805234106E+01 0.78507773581E+01
 0.77356086439E+01 0.76475382189E+01 0.75891369799E+01 0.75558571329E+01 0.75400767825E+01
 0.75352673002E+01 0.75392199741E+01 0.75550179536E+01 0.75893173901E+01 0.76490051905E+01
 0.79594186745E+01 0.78522157160E+01 0.77710796959E+01 0.77287381704E+01 0.77188627540E+01
 0.77223085908E+01 0.77225076668E+01 0.77189269757E+01 0.77278312642E+01 0.77693416440E+01
 0.78508643659E+01 0.79595084074E+01 0.80687631505E+01 0.81592423745E+01 0.82505033714E+01
 0.83184046558E+01 0.83180970442E+01 0.82494887086E+01 0.81576418894E+01 0.80673946335E+01
 0.85883307496E+01 0.82773241755E+01 0.79806854876E+01 0.77287367532E+01 0.75555198096E+01
 0.74625110471E+01 0.74343974511E+01 0.74622803975E+01 0.75548377383E+01 0.77279039413E+01
 0.79806807053E+01 0.82787763320E+01 0.85905343291E+01 0.90360439577E+01 0.96035495118E+01
 0.10094882426E+02 0.10290008061E+02 0.10095488046E+02 0.96035466650E+01 0.90345952920E+01
 0.10460190400E+02 0.92544496909E+01 0.85632154963E+01 0.81018408617E+01 0.77188583806E+01
 0.74625106948E+01 0.73395052385E+01 0.73393373302E+01 0.74622107279E+01 0.77189299831E+01
 0.81027256519E+01 0.85647835965E+01 0.92558138283E+01 0.10460271437E+02 0.12058558591E+02
 0.13597945389E+02 0.14543524121E+02 0.14544435651E+02 0.13599922352E+02 0.12060020153E+02
 0.15427937493E+02 0.12281051145E+02 0.10020066489E+02 0.88087113447E+01 0.81897292340E+01
 0.77223076797E+01 0.74343994101E+01 0.73393380054E+01 0.74342401564E+01 0.77225325531E+01
 0.81905666020E+01 0.88095247962E+01 0.10019896723E+02 0.12279620756E+02 0.15425920427E+02
 0.18743546012E+02 0.21274796412E+02 0.22221587481E+02 0.21275647116E+02 0.18745216121E+02
 0.24612678729E+02 0.18947014594E+02 0.13999793906E+02 0.10648529964E+02 0.89622084450E+01
 0.82223121894E+01 0.77225086817E+01 0.74622817991E+01 0.74622124817E+01 0.77225344791E+01
 0.82226266968E+01 0.89623026227E+01 0.10647636079E+02 0.13998067384E+02 0.18945760383E+02
 0.24612989527E+02 0.29610693133E+02 0.32543667343E+02 0.32542906304E+02 0.29609324936E+02
 0.37821330870E+02 0.29770113870E+02 0.21617092857E+02 0.15043874637E+02 0.10891889772E+02
 0.89625070104E+01 0.81905642595E+01 0.77189280503E+01 0.75548420787E+01 0.77189354311E+01
 0.81905695276E+01 0.89623024009E+01 0.10891230910E+02 0.15043050149E+02 0.21617092578E+02
 0.29771782443E+02 0.37824207483E+02 0.43763678656E+02 0.45953067540E+02 0.43761397598E+02
 0.53395272631E+02 0.43869117013E+02 0.32791531350E+02 0.22612669781E+02 0.15042975319E+02
 0.10647929212E+02 0.88097082257E+01 0.81026705096E+01 0.77278374356E+01 0.77279115300E+01
 0.81027296457E+01 0.88095241057E+01 0.10647632850E+02 0.15043047705E+02 0.22613459974E+02
 0.32792871732E+02 0.43870471054E+02 0.53396183826E+02 0.58927867084E+02 0.58927560156E+02
 0.68416791549E+02 0.58984399271E+02 0.46098250762E+02 0.32792290258E+02 0.21616257832E+02
 0.13997837115E+02 0.10020066489E+02 0.85648040520E+01 0.79805281929E+01 0.77693487934E+01
 0.79806846474E+01 0.85647828855E+01 0.10019892540E+02 0.13998061134E+02 0.21617088439E+02
 0.32792871048E+02 0.46097383158E+02 0.58982113525E+02 0.68414762953E+02 0.71886468563E+02
 0.79397516190E+02 0.71905741461E+02 0.58984696169E+02 0.43871377657E+02 0.29771475197E+02
 0.18945354701E+02 0.12279592254E+02 0.92558806879E+01 0.82786855029E+01 0.78507817115E+01
 0.78508691330E+01 0.82787770833E+01 0.92558105522E+01 0.12279612969E+02 0.18945752216E+02
 0.29771780050E+02 0.43870472604E+02 0.58982115318E+02 0.71902696379E+02 0.79396144556E+02
 0.55353784513E+02 0.52661178048E+02 0.45353337318E+02 0.35415469207E+02 0.25268846263E+02
 0.16944090739E+02 0.11511350666E+02 0.88681571472E+01 0.79011546469E+01 0.73854111655E+01
 0.72031918258E+01 0.73854221752E+01 0.79011635347E+01 0.88681557752E+01 0.11511347083E+02
 0.16944097916E+02 0.25268863807E+02 0.35415483135E+02 0.45353338164E+02 0.52661172416E+02
 0.52661957442E+02 0.52661175779E+02 0.47645127693E+02 0.39025713212E+02 0.29048954630E+02
 0.19966235346E+02 0.13325811113E+02 0.95811212239E+01 0.80658082066E+01 0.74243224886E+01