   2   2   0   0
  0.8441998E+01  0.2236800E-09  0.2236800E-09  0.3896640E-09  0.5000000E-15
  1.000000000000000E-004
  CAR 
 unknown system                          
     80.54831969     -4.61128071  301      9.23529287      1.00000000
     -4.611  0.0000E+00  0.0000E+00
     -4.327  0.0000E+00  0.0000E+00
     -4.044  0.0000E+00  0.0000E+00
     -3.760  0.0000E+00  0.0000E+00
     -3.476  0.0000E+00  0.0000E+00
     -3.192  0.0000E+00  0.0000E+00
     -2.908  0.0000E+00  0.0000E+00
     -2.624 -0.4142E-40 -0.1176E-40
     -2.340 -0.1922E-29 -0.5457E-30
     -2.056 -0.1540E-20 -0.4371E-21
     -1.773 -0.2030E-13 -0.5762E-14
     -1.489 -0.4542E-08 -0.1289E-08
     -1.205 -0.1597E-04 -0.4534E-05
     -0.921 -0.4039E-03 -0.1192E-03
     -0.637  0.8570E-02  0.2314E-02
     -0.353  0.4011E-01  0.1370E-01
     -0.069  0.8916E-01  0.3901E-01
      0.214  0.5573E-01  0.5483E-01
      0.498  0.1173E+00  0.8813E-01
      0.782  0.1579E+00  0.1329E+00
      1.066  0.1659E+00  0.1800E+00
      1.350  0.1022E+00  0.2090E+00
      1.634  0.1446E+00  0.2501E+00
      1.918  0.3292E+00  0.3436E+00
      2.201  0.2423E+00  0.4124E+00
      2.485  0.3350E+00  0.5074E+00
      2.769  0.1949E+00  0.5628E+00
      3.053  0.7485E+00  0.7753E+00
      3.337  0.1927E+01  0.1322E+01
      3.621  0.1703E+01  0.1806E+01
      3.905  0.2438E+01  0.2498E+01
      4.189  0.2154E+01  0.3109E+01
      4.472  0.2535E+01  0.3829E+01
      4.756  0.1806E+01  0.4342E+01
      5.040  0.2360E+01  0.5012E+01
      5.324  0.2631E+01  0.5758E+01
      5.608  0.2468E+01  0.6459E+01
      5.892  0.2370E+01  0.7132E+01
      6.176  0.1762E+01  0.7632E+01
      6.459  0.1941E+01  0.8183E+01
      6.743  0.2935E+01  0.9016E+01
      7.027  0.3011E+01  0.9871E+01
      7.311  0.3065E+01  0.1074E+02
      7.595  0.3085E+01  0.1162E+02
      7.879  0.3173E+01  0.1252E+02
      8.163  0.3059E+01  0.1339E+02
      8.447  0.2454E+01  0.1408E+02
      8.730  0.2171E+01  0.1470E+02
      9.014  0.2760E+01  0.1548E+02
      9.298  0.2272E+01  0.1613E+02
      9.582  0.1759E+01  0.1663E+02
      9.866  0.2964E+01  0.1747E+02
     10.150  0.3819E+01  0.1855E+02
     10.434  0.3832E+01  0.1964E+02
     10.717  0.3685E+01  0.2069E+02
     11.001  0.1835E+01  0.2121E+02
     11.285  0.1563E+00  0.2125E+02
     11.569  0.1828E+00  0.2130E+02
     11.853  0.6788E+00  0.2150E+02
     12.137  0.6581E+00  0.2168E+02
     12.421  0.5971E+00  0.2185E+02
     12.705  0.4112E+00  0.2197E+02
     12.988  0.6088E+00  0.2214E+02
     13.272  0.2933E+00  0.2222E+02
     13.556  0.2663E+00  0.2230E+02
     13.840  0.2810E+00  0.2238E+02
     14.124  0.6206E+00  0.2256E+02
     14.408  0.5843E+00  0.2272E+02
     14.692  0.3303E+00  0.2282E+02
     14.975  0.2991E+00  0.2290E+02
     15.259  0.3663E+00  0.2300E+02
     15.543  0.4717E+00  0.2314E+02
     15.827  0.2464E+00  0.2321E+02
     16.111  0.2863E+00  0.2329E+02
     16.395  0.2915E+00  0.2337E+02
     16.679  0.3208E+00  0.2346E+02
     16.962  0.3148E+00  0.2355E+02
     17.246  0.2588E+00  0.2363E+02
     17.530  0.3749E+00  0.2373E+02
     17.814  0.4355E+00  0.2386E+02
     18.098  0.1292E+00  0.2389E+02
     18.382  0.9860E-01  0.2392E+02
     18.666  0.1350E+00  0.2396E+02
     18.950  0.1874E+00  0.2401E+02
     19.233  0.1861E+00  0.2407E+02
     19.517  0.1972E+00  0.2412E+02
     19.801  0.2368E+00  0.2419E+02
     20.085  0.2452E+00  0.2426E+02
     20.369  0.4978E+00  0.2440E+02
     20.653  0.3878E+00  0.2451E+02
     20.937  0.4731E+00  0.2464E+02
     21.220  0.9638E+00  0.2492E+02
     21.504  0.7279E+00  0.2512E+02
     21.788  0.4950E+00  0.2526E+02
     22.072  0.5089E+00  0.2541E+02
     22.356  0.7290E+00  0.2562E+02
     22.640  0.3880E+00  0.2573E+02
     22.924  0.8199E+00  0.2596E+02
     23.208  0.7692E+00  0.2618E+02
     23.491  0.4101E+00  0.2629E+02
     23.775  0.8356E+00  0.2653E+02
     24.059  0.5815E+00  0.2670E+02
     24.343  0.7280E+00  0.2690E+02
     24.627  0.5652E+00  0.2706E+02
     24.911  0.4988E+00  0.2720E+02
     25.195  0.8782E+00  0.2745E+02
     25.478  0.3641E+00  0.2756E+02
     25.762  0.5627E+00  0.2772E+02
     26.046  0.5789E+00  0.2788E+02
     26.330  0.5424E+00  0.2803E+02
     26.614  0.6532E+00  0.2822E+02
     26.898  0.5094E+00  0.2836E+02
     27.182  0.7345E+00  0.2857E+02
     27.466  0.5043E+00  0.2872E+02
     27.749  0.7082E+00  0.2892E+02
     28.033  0.1061E+01  0.2922E+02
     28.317  0.7125E+00  0.2942E+02
     28.601  0.7676E+00  0.2964E+02
     28.885  0.1100E+01  0.2995E+02
     29.169  0.6200E+00  0.3013E+02
     29.453  0.3908E+00  0.3024E+02
     29.736  0.1040E+01  0.3053E+02
     30.020  0.7451E+00  0.3074E+02
     30.304  0.1050E+01  0.3104E+02
     30.588  0.1114E+01  0.3136E+02
     30.872  0.6206E+00  0.3154E+02
     31.156  0.8854E+00  0.3179E+02
     31.440  0.8693E+00  0.3203E+02
     31.723  0.9651E+00  0.3231E+02
     32.007  0.6507E+00  0.3249E+02
     32.291  0.9030E+00  0.3275E+02
     32.575  0.7536E+00  0.3296E+02
     32.859  0.6489E+00  0.3315E+02
     33.143  0.1234E+01  0.3350E+02
     33.427  0.7814E+00  0.3372E+02
     33.711  0.9032E+00  0.3397E+02
     33.994  0.8906E+00  0.3423E+02
     34.278  0.3852E+00  0.3434E+02
     34.562  0.4994E+00  0.3448E+02
     34.846  0.6974E+00  0.3468E+02
     35.130  0.8333E+00  0.3491E+02
     35.414  0.8404E+00  0.3515E+02
     35.698  0.5580E+00  0.3531E+02
     35.981  0.5367E+00  0.3546E+02
     36.265  0.7740E+00  0.3568E+02
     36.549  0.6080E+00  0.3585E+02
     36.833  0.4798E+00  0.3599E+02
     37.117  0.4435E+00  0.3612E+02
     37.401  0.4239E+00  0.3624E+02
     37.685  0.8215E+00  0.3647E+02
     37.969  0.6353E+00  0.3665E+02
     38.252  0.5394E+00  0.3680E+02
     38.536  0.1033E+01  0.3710E+02
     38.820  0.5703E+00  0.3726E+02
     39.104  0.1085E+01  0.3757E+02
     39.388  0.7404E+00  0.3778E+02
     39.672  0.5418E+00  0.3793E+02
     39.956  0.1012E+01  0.3822E+02
     40.239  0.7001E+00  0.3842E+02
     40.523  0.9925E+00  0.3870E+02
     40.807  0.9967E+00  0.3898E+02
     41.091  0.8737E+00  0.3923E+02
     41.375  0.6842E+00  0.3942E+02
     41.659  0.5586E+00  0.3958E+02
     41.943  0.8243E+00  0.3982E+02
     42.226  0.1171E+01  0.4015E+02
     42.510  0.9398E+00  0.4042E+02
     42.794  0.8391E+00  0.4065E+02
     43.078  0.7333E+00  0.4086E+02
     43.362  0.6770E+00  0.4105E+02
     43.646  0.6607E+00  0.4124E+02
     43.930  0.7369E+00  0.4145E+02
     44.214  0.8860E+00  0.4170E+02
     44.497  0.6765E+00  0.4189E+02
     44.781  0.8008E+00  0.4212E+02
     45.065  0.5766E+00  0.4229E+02
     45.349  0.6918E+00  0.4248E+02
     45.633  0.5908E+00  0.4265E+02
     45.917  0.1253E+01  0.4301E+02
     46.201  0.8248E+00  0.4324E+02
     46.484  0.9277E+00  0.4350E+02
     46.768  0.7536E+00  0.4372E+02
     47.052  0.4549E+00  0.4385E+02
     47.336  0.6242E+00  0.4402E+02
     47.620  0.4692E+00  0.4416E+02
     47.904  0.8174E+00  0.4439E+02
     48.188  0.9338E+00  0.4465E+02
     48.472  0.1123E+01  0.4497E+02
     48.755  0.1095E+01  0.4528E+02
     49.039  0.1099E+01  0.4559E+02
     49.323  0.1022E+01  0.4588E+02
     49.607  0.9828E+00  0.4616E+02
     49.891  0.4322E+00  0.4629E+02
     50.175  0.1385E+01  0.4668E+02
     50.459  0.1218E+01  0.4703E+02
     50.742  0.9889E+00  0.4731E+02
     51.026  0.9168E+00  0.4757E+02
     51.310  0.9175E+00  0.4783E+02
     51.594  0.1176E+01  0.4816E+02
     51.878  0.1006E+01  0.4845E+02
     52.162  0.8435E+00  0.4869E+02
     52.446  0.7575E+00  0.4890E+02
     52.730  0.5877E+00  0.4907E+02
     53.013  0.8743E+00  0.4932E+02
     53.297  0.8330E+00  0.4955E+02
     53.581  0.4112E+00  0.4967E+02
     53.865  0.7085E+00  0.4987E+02
     54.149  0.7866E+00  0.5009E+02
     54.433  0.1103E+01  0.5041E+02
     54.717  0.1204E+01  0.5075E+02
     55.000  0.9090E+00  0.5101E+02
     55.284  0.8615E+00  0.5125E+02
     55.568  0.1056E+01  0.5155E+02
     55.852  0.1153E+01  0.5188E+02
     56.136  0.8560E+00  0.5212E+02
     56.420  0.9269E+00  0.5238E+02
     56.704  0.9934E+00  0.5267E+02
     56.987  0.5948E+00  0.5283E+02
     57.271  0.9014E+00  0.5309E+02
     57.555  0.1383E+01  0.5348E+02
     57.839  0.1364E+01  0.5387E+02
     58.123  0.1210E+01  0.5421E+02
     58.407  0.1347E+01  0.5460E+02
     58.691  0.1087E+01  0.5490E+02
     58.975  0.9453E+00  0.5517E+02
     59.258  0.8256E+00  0.5541E+02
     59.542  0.1559E+01  0.5585E+02
     59.826  0.1235E+01  0.5620E+02
     60.110  0.8703E+00  0.5645E+02
     60.394  0.1102E+01  0.5676E+02
     60.678  0.1466E+01  0.5718E+02
     60.962  0.1446E+01  0.5759E+02
     61.245  0.1334E+01  0.5797E+02
     61.529  0.1069E+01  0.5827E+02
     61.813  0.1792E+01  0.5878E+02
     62.097  0.1278E+01  0.5914E+02
     62.381  0.2083E+01  0.5973E+02
     62.665  0.1806E+01  0.6024E+02
     62.949  0.1698E+01  0.6073E+02
     63.233  0.1966E+01  0.6128E+02
     63.516  0.2155E+01  0.6190E+02
     63.800  0.2041E+01  0.6248E+02
     64.084  0.2395E+01  0.6316E+02
     64.368  0.3232E+01  0.6407E+02
     64.652  0.3012E+01  0.6493E+02
     64.936  0.1725E+01  0.6542E+02
     65.220  0.2457E+01  0.6612E+02
     65.503  0.1595E+01  0.6657E+02
     65.787  0.1605E+01  0.6702E+02
     66.071  0.1257E+01  0.6738E+02
     66.355  0.1525E+01  0.6781E+02
     66.639  0.1618E+01  0.6827E+02
     66.923  0.1199E+01  0.6861E+02
     67.207  0.1353E+01  0.6900E+02
     67.491  0.1211E+01  0.6934E+02
     67.774  0.1252E+01  0.6970E+02
     68.058  0.1795E+01  0.7021E+02
     68.342  0.9226E+00  0.7047E+02
     68.626  0.1037E+01  0.7076E+02
     68.910  0.1344E+01  0.7114E+02
     69.194  0.1315E+01  0.7152E+02
     69.478  0.8834E+00  0.7177E+02
     69.761  0.1185E+01  0.7210E+02
     70.045  0.1436E+01  0.7251E+02
     70.329  0.1525E+01  0.7294E+02
     70.613  0.1462E+01  0.7336E+02
     70.897  0.1087E+01  0.7367E+02
     71.181  0.1048E+01  0.7397E+02
     71.465  0.1773E+01  0.7447E+02
     71.748  0.1409E+01  0.7487E+02
     72.032  0.1147E+01  0.7519E+02
     72.316  0.9420E+00  0.7546E+02
     72.600  0.1124E+01  0.7578E+02
     72.884  0.1335E+01  0.7616E+02
     73.168  0.1481E+01  0.7658E+02
     73.452  0.1181E+01  0.7691E+02
     73.736  0.1389E+01  0.7731E+02
     74.019  0.8731E+00  0.7756E+02
     74.303  0.1008E+01  0.7784E+02
     74.587  0.9419E+00  0.7811E+02
     74.871  0.1226E+01  0.7846E+02
     75.155  0.1245E+01  0.7881E+02
     75.439  0.5706E+00  0.7897E+02
     75.723  0.9196E+00  0.7924E+02
     76.006  0.9897E+00  0.7952E+02
     76.290  0.8333E+00  0.7975E+02
     76.574  0.7694E+00  0.7997E+02
     76.858  0.1083E+00  0.8000E+02
     77.142 -0.5914E-02  0.8000E+02
     77.426 -0.1836E-03  0.8000E+02
     77.710 -0.5468E-07  0.8000E+02
     77.994 -0.2457E-12  0.8000E+02
     78.277  0.0000E+00  0.8000E+02
     78.561  0.0000E+00  0.8000E+02
     78.845  0.0000E+00  0.8000E+02
     79.129  0.0000E+00  0.8000E+02
     79.413  0.0000E+00  0.8000E+02
     79.697  0.0000E+00  0.8000E+02
     79.981  0.0000E+00  0.8000E+02
     80.264  0.0000E+00  0.8000E+02
     80.548  0.0000E+00  0.8000E+02
