    2    2    1    1
  0.8441998E+01  0.2236800E-09  0.2236800E-09  0.3896640E-09  0.5000000E-15
  1.000000000000000E-004
  CAR 
 unknown system                          
     16     96     40
 
  0.0000000E+00  0.0000000E+00  0.0000000E+00  0.7513148E-03
    1       -0.740390   1.000000
    2        3.116021   1.000000
    3        6.462337   1.000000
    4        7.167015   1.000000
    5        7.167031   1.000000
    6        7.600970   1.000000
    7        7.600988   1.000000
    8        8.574252   1.000015
    9        8.764700   1.002178
   10        8.764711   1.002178
   11       10.224577  -0.000000
   12       10.224589  -0.000000
   13       18.711330   0.000000
   14       34.145565   0.000000
   15       35.089011   0.000000
   16       37.731137   0.000000
   17       41.599250   0.000000
   18       41.599273   0.000000
   19       42.272314   0.000000
   20       42.272338   0.000000
   21       44.176083   0.000000
   22       44.417750   0.000000
   23       44.417760   0.000000
   24       45.552474   0.000000
   25       49.241346   0.000000
   26       49.241354   0.000000
   27       50.822655   0.000000
   28       54.383042   0.000000
   29       54.383101   0.000000
   30       55.833306   0.000000
   31       55.833354   0.000000
   32       59.531071   0.000000
   33       65.476595   0.000000
   34       66.553552   0.000000
   35       66.553577   0.000000
   36       67.205141   0.000000
   37       67.898070   0.000000
   38       70.993469   0.000000
   39       70.993507   0.000000
   40       74.526407   0.000000
 
  0.9090909E-01  0.1464279E-16  0.0000000E+00  0.4507889E-02
    1       -0.358425   1.000000
    2        3.404414   1.000000
    3        6.434200   1.000000
    4        7.121065   1.000000
    5        7.411425   1.000000
    6        7.443585   1.000000
    7        7.455201   1.000000
    8        7.827007   1.000000
    9        8.585061   1.000021
   10        8.613149   1.000050
   11       10.274132  -0.000000
   12       11.626767  -0.000000
   13       18.711865   0.000000
   14       33.287283   0.000000
   15       35.451547   0.000000
   16       36.442075   0.000000
   17       38.398180   0.000000
   18       40.057905   0.000000
   19       40.331733   0.000000
   20       43.859709   0.000000
   21       44.015395   0.000000
   22       45.429223   0.000000
   23       45.972218   0.000000
   24       46.107981   0.000000
   25       50.343134   0.000000
   26       50.385665   0.000000
   27       51.537110   0.000000
   28       51.735906   0.000000
   29       54.894741   0.000000
   30       57.673012   0.000000
   31       58.138021   0.000000
   32       60.646328   0.000000
   33       65.152400   0.000000
   34       65.255084   0.000000
   35       65.782789   0.000000
   36       66.976117   0.000000
   37       67.261590   0.000000
   38       71.133539   0.000000
   39       73.180499   0.000000
   40       74.573498   0.000000
 
  0.1818182E+00  0.1534118E-16  0.0000000E+00  0.4507889E-02
    1        0.704532   1.000000
    2        4.059442   1.000000
    3        6.036897   1.000000
    4        6.139170   1.000000
    5        6.917149   1.000000
    6        7.668627   1.000000
    7        8.105663   1.000000
    8        8.139443   1.000000
    9        8.260412   1.000000
   10        8.463466   1.000000
   11       10.360037  -0.000000
   12       13.817046  -0.000000
   13       18.767907   0.000000
   14       29.915470   0.000000
   15       35.126005   0.000000
   16       35.234569   0.000000
   17       35.417562   0.000000
   18       36.379896   0.000000
   19       41.339073   0.000000
   20       42.944573   0.000000
   21       43.393030   0.000000
   22       43.510225   0.000000
   23       46.865984   0.000000
   24       48.496329   0.000000
   25       50.985130   0.000000
   26       51.521709   0.000000
   27       53.078222   0.000000
   28       55.474573   0.000000
   29       58.800435   0.000000
   30       59.918527   0.000000
   31       60.810894   0.000000
   32       62.467880   0.000000
   33       63.719874   0.000000
   34       64.258653   0.000000
   35       64.652580   0.000000
   36       65.305414   0.000000
   37       68.739554   0.000000
   38       71.781324   0.000000
   39       74.618077   0.000000
   40       74.811992   0.000000
 
  0.2727273E+00  0.3692286E-16  0.0000000E+00  0.4507889E-02
    1        2.138331   1.000000
    2        4.275548   1.000000
    3        4.916683   1.000000
    4        6.109071   1.000000
    5        6.735285   1.000000
    6        7.587710   1.000000
    7        7.857421   1.000000
    8        8.657916   1.000173
    9        9.091899   0.965658
   10        9.356086   0.078213
   11       10.412257  -0.000000
   12       16.213720   0.000000
   13       18.895810   0.000000
   14       25.813906   0.000000
   15       31.649059   0.000000
   16       32.483720   0.000000
   17       33.707672   0.000000
   18       36.150565   0.000000
   19       40.106452   0.000000
   20       42.854629   0.000000
   21       43.397191   0.000000
   22       43.608527   0.000000
   23       44.434867   0.000000
   24       48.403889   0.000000
   25       54.393964   0.000000
   26       56.024832   0.000000
   27       56.750019   0.000000
   28       58.596029   0.000000
   29       59.628572   0.000000
   30       60.375879   0.000000
   31       62.350786   0.000000
   32       63.089547   0.000000
   33       63.961418   0.000000
   34       64.050614   0.000000
   35       64.927355   0.000000
   36       68.203141   0.000000
   37       68.743187   0.000000
   38       72.355146   0.000000
   39       73.808535   0.000000
   40       74.192087   0.000000
 
  0.3636364E+00  0.1687119E-16  0.0000000E+00  0.4507889E-02
    1        3.219575   1.000000
    2        3.922894   1.000000
    3        4.148937   1.000000
    4        6.435985   1.000000
    5        7.107818   1.000000
    6        7.231325   1.000000
    7        7.528707   1.000000
    8       10.092850  -0.000000
    9       10.240175  -0.000000
   10       10.263112  -0.000000
   11       10.428403  -0.000000
   12       18.515276   0.000000
   13       18.717075   0.000000
   14       22.917425   0.000000
   15       28.263580   0.000000
   16       30.360933   0.000000
   17       31.053965   0.000000
   18       35.192885   0.000000
   19       38.855554   0.000000
   20       42.182272   0.000000
   21       42.612960   0.000000
   22       44.765349   0.000000
   23       45.564573   0.000000
   24       48.551043   0.000000
   25       56.562363   0.000000
   26       57.750529   0.000000
   27       57.938077   0.000000
   28       61.256414   0.000000
   29       61.545962   0.000000
   30       61.695388   0.000000
   31       63.051765   0.000000
   32       64.161875   0.000000
   33       64.903825   0.000000
   34       65.650578   0.000000
   35       66.232246   0.000000
   36       68.043672   0.000000
   37       72.474374   0.000000
   38       73.257752   0.000000
   39       73.535606   0.000000
   40       74.042762   0.000000
 
  0.4545455E+00  0.2615160E-16  0.0000000E+00  0.4507889E-02
    1        3.383403   1.000000
    2        3.759761   1.000000
    3        3.781912   1.000000
    4        6.833037   1.000000
    5        7.138135   1.000000
    6        7.344505   1.000000
    7        7.537537   1.000000
    8       10.428515  -0.000000
    9       10.716152  -0.000000
   10       10.878172  -0.000000
   11       12.288853  -0.000000
   12       16.327996   0.000000
   13       21.032124   0.000000
   14       22.945026   0.000000
   15       25.548784   0.000000
   16       28.363719   0.000000
   17       29.156045   0.000000
   18       34.488680   0.000000
   19       38.439229   0.000000
   20       40.884068   0.000000
   21       42.463938   0.000000
   22       45.796953   0.000000
   23       47.821950   0.000000
   24       48.538656   0.000000
   25       53.261887   0.000000
   26       59.058310   0.000000
   27       59.406371   0.000000
   28       62.333485   0.000000
   29       62.601556   0.000000
   30       63.667260   0.000000
   31       64.407707   0.000000
   32       64.734614   0.000000
   33       66.137741   0.000000
   34       68.431128   0.000000
   35       68.517854   0.000000
   36       71.001142   0.000000
   37       71.599528   0.000000
   38       71.725338   0.000000
   39       74.504831   0.000000
   40       74.664311   0.000000
 
  0.9090909E-01  0.9090909E-01  0.0000000E+00  0.4507889E-02
    1        0.368557   1.000000
    2        3.904048   1.000000
    3        6.183305   1.000000
    4        6.413278   1.000000
    5        7.181577   1.000000
    6        7.259779   1.000000
    7        7.920776   1.000000
    8        8.056581   1.000000
    9        8.326716   1.000000
   10        8.586475   1.000022
   11       10.299232  -0.000000
   12       13.214503  -0.000000
   13       18.747160   0.000000
   14       31.496755   0.000000
   15       33.374478   0.000000
   16       35.931796   0.000000
   17       37.005338   0.000000
   18       39.052566   0.000000
   19       39.287413   0.000000
   20       41.677563   0.000000
   21       43.251222   0.000000
   22       47.243829   0.000000
   23       47.821139   0.000000
   24       48.856412   0.000000
   25       49.288990   0.000000
   26       49.983323   0.000000
   27       50.208492   0.000000
   28       55.814329   0.000000
   29       58.374688   0.000000
   30       59.327966   0.000000
   31       59.561031   0.000000
   32       62.048579   0.000000
   33       63.029302   0.000000
   34       64.807243   0.000000
   35       65.567114   0.000000
   36       66.556839   0.000000
   37       66.856376   0.000000
   38       72.162182   0.000000
   39       74.221794   0.000000
   40       74.321003   0.000000
 
  0.1818182E+00  0.9090909E-01  0.0000000E+00  0.9015778E-02
    1        1.658801   1.000000
    2        4.495519   1.000000
    3        5.329903   1.000000
    4        5.788783   1.000000
    5        6.834795   1.000000
    6        7.505006   1.000000
    7        7.831528   1.000000
    8        8.260633   1.000000
    9        8.829818   1.007310
   10        9.258290   0.403402
   11       10.311856  -0.000000
   12       15.387036   0.000000
   13       18.899791   0.000000
   14       27.890645   0.000000
   15       30.762643   0.000000
   16       33.444310   0.000000
   17       35.811844   0.000000
   18       36.843396   0.000000
   19       40.298158   0.000000
   20       40.898003   0.000000
   21       42.148354   0.000000
   22       46.783972   0.000000
   23       47.309401   0.000000
   24       48.535724   0.000000
   25       51.481099   0.000000
   26       52.149705   0.000000
   27       54.279459   0.000000
   28       59.224923   0.000000
   29       60.650736   0.000000
   30       60.819530   0.000000
   31       61.648236   0.000000
   32       62.856129   0.000000
   33       63.235827   0.000000
   34       64.377784   0.000000
   35       65.702335   0.000000
   36       66.102304   0.000000
   37       67.775401   0.000000
   38       72.763621   0.000000
   39       73.533647   0.000000
   40       74.336560   0.000000
 
  0.2727273E+00  0.9090909E-01  0.0000000E+00  0.9015778E-02
    1        3.046888   1.000000
    2        4.322490   1.000000
    3        4.486869   1.000000
    4        5.954334   1.000000
    5        6.951191   1.000000
    6        7.074371   1.000000
    7        7.782404   1.000000
    8        8.820832   1.006285
    9        9.833062  -0.000099
   10       10.310911  -0.000000
   11       10.475767  -0.000000
   12       17.802236   0.000000
   13       19.103143   0.000000
   14       24.102342   0.000000
   15       28.857862   0.000000
   16       30.013974   0.000000
   17       33.609702   0.000000
   18       34.613145   0.000000
   19       39.851868   0.000000
   20       41.130960   0.000000
   21       42.235388   0.000000
   22       46.521040   0.000000
   23       46.622340   0.000000
   24       49.494230   0.000000
   25       53.715973   0.000000
   26       56.153324   0.000000
   27       57.924198   0.000000
   28       58.493038   0.000000
   29       59.821229   0.000000
   30       62.350864   0.000000
   31       62.470940   0.000000
   32       64.431322   0.000000
   33       65.102641   0.000000
   34       65.860045   0.000000
   35       66.180633   0.000000
   36       67.288347   0.000000
   37       71.728953   0.000000
   38       72.346890   0.000000
   39       72.553703   0.000000
   40       74.759472   0.000000
 
  0.3636364E+00  0.9090909E-01  0.0000000E+00  0.9015778E-02
    1        3.648050   1.000000
    2        3.964296   1.000000
    3        4.017073   1.000000
    4        6.565485   1.000000
    5        6.840105   1.000000
    6        7.354273   1.000000
    7        7.408768   1.000000
    8        9.976703  -0.000001
    9       10.297995  -0.000000
   10       10.537596  -0.000000
   11       11.992373  -0.000000
   12       17.913501   0.000000
   13       20.289313   0.000000
   14       22.724362   0.000000
   15       26.955602   0.000000
   16       27.350786   0.000000
   17       30.295539   0.000000
   18       33.593616   0.000000
   19       38.867581   0.000000
   20       40.578583   0.000000
   21       43.363229   0.000000
   22       46.897697   0.000000
   23       47.815468   0.000000
   24       49.132185   0.000000
   25       55.155491   0.000000
   26       56.429115   0.000000
   27       58.670352   0.000000
   28       60.082097   0.000000
   29       62.030926   0.000000
   30       62.836712   0.000000
   31       63.501034   0.000000
   32       64.484917   0.000000
   33       64.999175   0.000000
   34       68.012207   0.000000
   35       69.580218   0.000000
   36       69.652472   0.000000
   37       70.421226   0.000000
   38       73.505230   0.000000
   39       74.320240   0.000000
   40       75.091817   0.000000
 
  0.4545455E+00  0.9090909E-01  0.0000000E+00  0.4507889E-02
    1        3.595856   1.000000
    2        3.788174   1.000000
    3        4.007789   1.000000
    4        6.786708   1.000000
    5        7.037430   1.000000
    6        7.167126   1.000000
    7        7.555664   1.000000
    8       10.290511  -0.000000
    9       10.629672  -0.000000
   10       10.656267  -0.000000
   11       13.407551  -0.000000
   12       16.034777   0.000000
   13       21.956069   0.000000
   14       23.387359   0.000000
   15       25.113430   0.000000
   16       26.526359   0.000000
   17       28.701929   0.000000
   18       33.219666   0.000000
   19       38.436973   0.000000
   20       40.408671   0.000000
   21       43.599557   0.000000
   22       47.733905   0.000000
   23       48.044283   0.000000
   24       49.535753   0.000000
   25       53.033110   0.000000
   26       58.088509   0.000000
   27       59.019958   0.000000
   28       60.827672   0.000000
   29       62.621272   0.000000
   30       63.163513   0.000000
   31       64.668434   0.000000
   32       64.762321   0.000000
   33       65.704659   0.000000
   34       67.302271   0.000000
   35       70.702745   0.000000
   36       72.039356   0.000000
   37       72.233774   0.000000
   38       72.287615   0.000000
   39       73.446423   0.000000
   40       76.226967   0.000000
 
  0.1818182E+00  0.1818182E+00  0.0000000E+00  0.4507889E-02
    1        3.025416   1.000000
    2        4.685089   1.000000
    3        4.994562   1.000000
    4        5.213901   1.000000
    5        6.933356   1.000000
    6        6.938446   1.000000
    7        7.980161   1.000000
    8        8.142518   1.000000
    9        9.804736  -0.000214
   10       10.183901  -0.000000
   11       10.558180  -0.000000
   12       17.515289   0.000000
   13       19.329439   0.000000
   14       25.693135   0.000000
   15       26.812113   0.000000
   16       31.355768   0.000000
   17       33.482451   0.000000
   18       36.134852   0.000000
   19       36.971105   0.000000
   20       41.749530   0.000000
   21       43.513262   0.000000
   22       48.298624   0.000000
   23       48.524581   0.000000
   24       50.298029   0.000000
   25       51.207836   0.000000
   26       53.400850   0.000000
   27       54.927083   0.000000
   28       59.796670   0.000000
   29       60.890497   0.000000
   30       61.509080   0.000000
   31       61.917767   0.000000
   32       64.558986   0.000000
   33       64.730197   0.000000
   34       65.972812   0.000000
   35       67.277039   0.000000
   36       68.772836   0.000000
   37       69.012963   0.000000
   38       72.093034   0.000000
   39       72.394196   0.000000
   40       75.579470   0.000000
 
  0.2727273E+00  0.1818182E+00  0.0000000E+00  0.9015778E-02
    1        4.203202   1.000000
    2        4.235387   1.000000
    3        4.597419   1.000000
    4        5.573449   1.000000
    5        6.627728   1.000000
    6        7.295286   1.000000
    7        7.474943   1.000000
    8        8.868034   1.013076
    9       10.072479  -0.000000
   10       10.466805  -0.000000
   11       12.162011  -0.000000
   12       19.665890   0.000000
   13       19.945770   0.000000
   14       22.814089   0.000000
   15       24.970587   0.000000
   16       28.834841   0.000000
   17       31.636261   0.000000
   18       32.550659   0.000000
   19       35.616674   0.000000
   20       43.949359   0.000000
   21       44.059079   0.000000
   22       48.164496   0.000000
   23       50.021505   0.000000
   24       51.541376   0.000000
   25       52.770385   0.000000
   26       54.524180   0.000000
   27       56.177530   0.000000
   28       57.800224   0.000000
   29       60.645539   0.000000
   30       62.273364   0.000000
   31       63.711428   0.000000
   32       64.343460   0.000000
   33       65.101261   0.000000
   34       67.537701   0.000000
   35       69.158306   0.000000
   36       69.692575   0.000000
   37       71.695493   0.000000
   38       72.844326   0.000000
   39       74.740224   0.000000
   40       76.306524   0.000000
 
  0.3636364E+00  0.1818182E+00  0.0000000E+00  0.9015778E-02
    1        4.010668   1.000000
    2        4.243134   1.000000
    3        4.556852   1.000000
    4        6.262820   1.000000
    5        6.643695   1.000000
    6        6.970932   1.000000
    7        7.629610   1.000000
    8        9.764949  -0.000582
    9       10.010179  -0.000000
   10       10.502277  -0.000000
   11       14.030247  -0.000000
   12       17.593154   0.000000
   13       22.394937   0.000000
   14       23.086145   0.000000
   15       24.148156   0.000000
   16       26.175987   0.000000
   17       29.496403   0.000000
   18       30.855599   0.000000
   19       34.931716   0.000000
   20       44.044222   0.000000
   21       45.846667   0.000000
   22       48.403262   0.000000
   23       49.954313   0.000000
   24       51.032269   0.000000
   25       55.228269   0.000000
   26       55.240215   0.000000
   27       57.076502   0.000000
   28       57.701498   0.000000
   29       61.580329   0.000000
   30       62.276829   0.000000
   31       63.193078   0.000000
   32       64.955982   0.000000
   33       65.117837   0.000000
   34       66.167793   0.000000
   35       69.937737   0.000000
   36       71.571510   0.000000
   37       73.103524   0.000000
   38       73.781684   0.000000
   39       74.994957   0.000000
   40       75.904208   0.000000
 
  0.2727273E+00  0.2727273E+00  0.0000000E+00  0.4507889E-02
    1        4.166654   1.000000
    2        4.826152   1.000000
    3        5.195135   1.000000
    4        5.309967   1.000000
    5        6.438771   1.000000
    6        6.989628   1.000000
    7        7.684439   1.000000
    8        9.206163   0.621821
    9        9.865995  -0.000039
   10       10.464909  -0.000000
   11       14.207035  -0.000000
   12       19.893434   0.000000
   13       20.440446   0.000000
   14       22.449232   0.000000
   15       24.136317   0.000000
   16       27.999453   0.000000
   17       28.684022   0.000000
   18       31.280544   0.000000
   19       32.228844   0.000000
   20       45.668077   0.000000
   21       46.700974   0.000000
   22       50.809128   0.000000
   23       51.843758   0.000000
   24       52.390256   0.000000
   25       52.796570   0.000000
   26       52.942667   0.000000
   27       56.139995   0.000000
   28       58.581901   0.000000
   29       58.761053   0.000000
   30       61.576604   0.000000
   31       62.735904   0.000000
   32       65.152325   0.000000
   33       65.591521   0.000000
   34       66.023016   0.000000
   35       70.326384   0.000000
   36       71.568447   0.000000
   37       71.615692   0.000000
   38       73.406261   0.000000
   39       75.546425   0.000000
   40       76.617159   0.000000
 
  0.3636364E+00  0.2727273E+00  0.0000000E+00  0.4507889E-02
    1        4.169295   1.000000
    2        4.932384   1.000000
    3        5.087905   1.000000
    4        5.691891   1.000000
    5        6.528393   1.000000
    6        6.620930   1.000000
    7        7.870182   1.000000
    8        9.683310  -0.003414
    9        9.786977  -0.000338
   10       10.071899  -0.000000
   11       16.101492   0.000000
   12       17.792650   0.000000
   13       20.049515   0.000000
   14       24.619359   0.000000
   15       25.114786   0.000000
   16       26.030717   0.000000
   17       28.037019   0.000000
   18       29.569036   0.000000
   19       31.581426   0.000000
   20       46.000076   0.000000
   21       49.042633   0.000000
   22       50.728537   0.000000
   23       50.972556   0.000000
   24       52.026362   0.000000
   25       53.419538   0.000000
   26       54.389857   0.000000
   27       57.721751   0.000000
   28       57.736941   0.000000
   29       58.224251   0.000000
   30       61.529120   0.000000
   31       62.287551   0.000000
   32       62.914645   0.000000
   33       65.415261   0.000000
   34       65.986581   0.000000
   35       69.681587   0.000000
   36       71.626167   0.000000
   37       73.961481   0.000000
   38       74.619203   0.000000
   39       74.858803   0.000000
   40       75.234488   0.000000
 
  0.0000000E+00  0.0000000E+00  0.9090909E-01  0.1502630E-02
    1       -0.645219   1.000000
    2        3.104305   1.000000
    3        6.430582   1.000000
    4        7.153588   1.000000
    5        7.153604   1.000000
    6        7.576501   1.000000
    7        7.576518   1.000000
    8        8.320483   1.000000
    9        8.819358   1.006128
   10        8.819368   1.006129
   11       10.213222  -0.000000
   12       10.213233  -0.000000
   13       19.106622   0.000000
   14       33.751285   0.000000
   15       35.061557   0.000000
   16       37.521339   0.000000
   17       41.617043   0.000000
   18       41.617065   0.000000
   19       42.264908   0.000000
   20       42.264932   0.000000
   21       44.335959   0.000000
   22       44.421797   0.000000
   23       44.421808   0.000000
   24       45.874141   0.000000
   25       48.968698   0.000000
   26       48.968708   0.000000
   27       51.132231   0.000000
   28       54.624575   0.000000
   29       54.624633   0.000000
   30       56.180512   0.000000
   31       56.180558   0.000000
   32       59.183947   0.000000
   33       65.485824   0.000000
   34       65.665508   0.000000
   35       66.443140   0.000000
   36       66.443165   0.000000
   37       69.636263   0.000000
   38       70.267793   0.000000
   39       70.267832   0.000000
   40       73.235877   0.000000
 
  0.9090909E-01  0.1464279E-16  0.9090909E-01  0.9015778E-02
    1       -0.266092   1.000000
    2        3.397651   1.000000
    3        6.423610   1.000000
    4        7.070684   1.000000
    5        7.190289   1.000000
    6        7.392943   1.000000
    7        7.564937   1.000000
    8        7.799523   1.000000
    9        8.646874   1.000129
   10        8.678043   1.000293
   11       10.258825  -0.000000
   12       11.451734  -0.000000
   13       19.143854   0.000000
   14       33.192970   0.000000
   15       35.059139   0.000000
   16       36.394808   0.000000
   17       38.467023   0.000000
   18       39.435829   0.000000
   19       40.994831   0.000000
   20       43.733743   0.000000
   21       43.767120   0.000000
   22       45.517677   0.000000
   23       45.988466   0.000000
   24       46.554250   0.000000
   25       50.021023   0.000000
   26       50.326208   0.000000
   27       52.009007   0.000000
   28       52.198758   0.000000
   29       54.800473   0.000000
   30       57.901757   0.000000
   31       58.380817   0.000000
   32       60.357765   0.000000
   33       63.918342   0.000000
   34       65.467084   0.000000
   35       65.615450   0.000000
   36       66.749768   0.000000
   37       68.575747   0.000000
   38       70.499509   0.000000
   39       72.064875   0.000000
   40       73.130162   0.000000
 
  0.1818182E+00  0.1534118E-16  0.9090909E-01  0.9015778E-02
    1        0.785038   1.000000
    2        4.068366   1.000000
    3        5.929431   1.000000
    4        6.165328   1.000000
    5        6.871757   1.000000
    6        7.559408   1.000000
    7        8.016870   1.000000
    8        8.302690   1.000000
    9        8.333188   1.000000
   10        8.498877   1.000001
   11       10.335168  -0.000000
   12       13.441883  -0.000000
   13       19.324655   0.000000
   14       29.966048   0.000000
   15       34.474962   0.000000
   16       35.335686   0.000000
   17       35.857348   0.000000
   18       36.021260   0.000000
   19       41.154770   0.000000
   20       42.507524   0.000000
   21       42.924431   0.000000
   22       44.363108   0.000000
   23       47.122439   0.000000
   24       49.052033   0.000000
   25       51.258174   0.000000
   26       51.512361   0.000000
   27       52.839757   0.000000
   28       55.580852   0.000000
   29       58.241058   0.000000
   30       60.322146   0.000000
   31       61.018276   0.000000
   32       61.873857   0.000000
   33       62.990145   0.000000
   34       64.066406   0.000000
   35       64.941381   0.000000
   36       66.239093   0.000000
   37       68.683074   0.000000
   38       71.267058   0.000000
   39       72.827580   0.000000
   40       73.711459   0.000000
 
  0.2727273E+00  0.3692286E-16  0.9090909E-01  0.9015778E-02
    1        2.183417   1.000000
    2        4.293079   1.000000
    3        4.888357   1.000000
    4        6.108748   1.000000
    5        6.674736   1.000000
    6        7.635725   1.000000
    7        7.883884   1.000000
    8        8.698422   1.000489
    9        9.107253   0.937238
   10        9.334575   0.131879
   11       10.382363  -0.000000
   12       15.488640   0.000000
   13       19.750400   0.000000
   14       25.884359   0.000000
   15       31.270350   0.000000
   16       32.613816   0.000000
   17       33.940919   0.000000
   18       36.053257   0.000000
   19       39.897492   0.000000
   20       41.933926   0.000000
   21       42.342667   0.000000
   22       44.662692   0.000000
   23       45.320353   0.000000
   24       49.236652   0.000000
   25       54.535257   0.000000
   26       55.854454   0.000000
   27       56.358406   0.000000
   28       56.935458   0.000000
   29       60.498990   0.000000
   30       61.164227   0.000000
   31       62.608788   0.000000
   32       63.059132   0.000000
   33       63.406677   0.000000
   34       64.087804   0.000000
   35       65.465846   0.000000
   36       67.837399   0.000000
   37       68.819762   0.000000
   38       71.942079   0.000000
   39       72.568801   0.000000
   40       75.043358   0.000000
 
  0.3636364E+00  0.1687119E-16  0.9090909E-01  0.9015778E-02
    1        3.172470   1.000000
    2        3.865139   1.000000
    3        4.314634   1.000000
    4        6.115949   1.000000
    5        7.233165   1.000000
    6        7.498133   1.000000
    7        7.572571   1.000000
    8       10.096138  -0.000000
    9       10.175962  -0.000000
   10       10.190778  -0.000000
   11       10.446557  -0.000000
   12       17.062153   0.000000
   13       20.160010   0.000000
   14       23.042310   0.000000
   15       27.931835   0.000000
   16       30.504942   0.000000
   17       31.395436   0.000000
   18       35.204220   0.000000
   19       38.810680   0.000000
   20       40.763243   0.000000
   21       43.355047   0.000000
   22       43.978871   0.000000
   23       46.183182   0.000000
   24       49.573302   0.000000
   25       55.165937   0.000000
   26       57.809404   0.000000
   27       58.948230   0.000000
   28       59.978993   0.000000
   29       61.159157   0.000000
   30       62.635425   0.000000
   31       63.261439   0.000000
   32       64.328564   0.000000
   33       65.169837   0.000000
   34       65.739251   0.000000
   35       66.205320   0.000000
   36       67.982534   0.000000
   37       71.746080   0.000000
   38       72.691447   0.000000
   39       73.225451   0.000000
   40       74.646036   0.000000
 
  0.4545455E+00  0.2615160E-16  0.9090909E-01  0.9015778E-02
    1        3.344630   1.000000
    2        3.478394   1.000000
    3        4.178664   1.000000
    4        6.209239   1.000000
    5        7.395340   1.000000
    6        7.489742   1.000000
    7        7.909001   1.000000
    8       10.342249  -0.000000
    9       10.723816  -0.000000
   10       10.880603  -0.000000
   11       12.173446  -0.000000
   12       16.099028   0.000000
   13       20.950451   0.000000
   14       22.932164   0.000000
   15       25.727214   0.000000
   16       28.702178   0.000000
   17       29.311248   0.000000
   18       34.530891   0.000000
   19       38.410298   0.000000
   20       39.841157   0.000000
   21       43.507671   0.000000