       N       E                     dE             d eps       ncg     rms          rms(c)
DAV:   1     0.596427163086E+02    0.59643E+02   -0.23383E+03  9464   0.334E+02
DAV:   2    -0.141239065439E+02   -0.73767E+02   -0.63161E+02  7912   0.979E+01
DAV:   3    -0.179377076597E+02   -0.38138E+01   -0.36570E+01  9560   0.231E+01
DAV:   4    -0.179494330348E+02   -0.11725E-01   -0.11721E-01  8648   0.134E+00
DAV:   5    -0.179494393244E+02   -0.62895E-05   -0.62890E-05  9304   0.295E-02    0.213E+01
DAV:   6    -0.154850900405E+02    0.24643E+01   -0.11891E+00 11312   0.203E+01    0.209E+00
DAV:   7    -0.153772716995E+02    0.10782E+00   -0.41201E-02  9328   0.242E+00    0.188E+00
DAV:   8    -0.153346128125E+02    0.42659E-01   -0.23217E-03 10760   0.290E-01    0.477E-01
DAV:   9    -0.153316463179E+02    0.29665E-02   -0.46737E-04 10224   0.125E-01    0.852E-02
DAV:  10    -0.153315622640E+02    0.84054E-04   -0.12597E-05  8584   0.187E-02    0.258E-02
DAV:  11    -0.153315277526E+02    0.34511E-04   -0.48013E-07  8648   0.431E-03    0.196E-03
DAV:  12    -0.153315267922E+02    0.96037E-06   -0.74611E-08  6288   0.117E-03
   1 F= -.15331527E+02 E0= -.15331692E+02  d E =0.495351E-03
