 vasp.6.2.0 18Jan21 (build Mar 17 2021 09:06:54) complex                        
  
 executed on             LinuxIFC date 2021.09.09  11:58:11
 serial version


--------------------------------------------------------------------------------------------------------


 INCAR:
   ENCUT = 280.000000
   SIGMA = 0.200000
   EDIFF = 1.00e-06
   GGA = PE
   PREC = normal
   IBRION = 1
   ICHARG = 1
   ISIF = 2
   ISMEAR = 1
   KPAR = 1
   NBANDS = 40
   NSW = 0
   NCORE = 1
   LCHARG = .TRUE.

 POTCAR:    PAW_PBE Fe 06Sep2000                  
 POTCAR:    PAW_PBE Fe 06Sep2000                  
   SHA256 =  cd5a22d9368cc8b5cc476bea79732366149640da08ac9009b0e1b7fc627eea28 Fe/POTCAR             
   COPYR  = (c) Copyright 06Sep2000 Georg Kresse                                                    
   COPYR  = This file is part of the software VASP. Any use, copying, and all other rights are regul
   COPYR  = If you do not have a valid VASP license, you may not use, copy or distribute this file. 
   VRHFIN =Fe:  d7 s1                                                                               
   LEXCH  = PE                                                                                      
   EATOM  =   594.3153 eV,   43.6809 Ry                                                             
                                                                                                    
   TITEL  = PAW_PBE Fe 06Sep2000                                                                    
   LULTRA =        F    use ultrasoft PP ?                                                          
   IUNSCR =        1    unscreen: 0-lin 1-nonlin 2-no                                               
   RPACOR =    2.000    partial core radius                                                         
   POMASS =   55.847; ZVAL   =    8.000    mass and valenz                                          
   RCORE  =    2.300    outmost cutoff radius                                                       
   RWIGS  =    2.460; RWIGS  =    1.302    wigner-seitz radius (au A)                               
   ENMAX  =  267.882; ENMIN  =  200.911 eV                                                          
   RCLOC  =    1.701    cutoff for local pot                                                        
   LCOR   =        T    correct aug charges                                                         
   LPAW   =        T    paw PP                                                                      
   EAUG   =  511.368                                                                                
   DEXC   =    0.000                                                                                
   RMAX   =    2.356    core radius for proj-oper                                                   
   RAUG   =    1.300    factor for augmentation sphere                                              
   RDEP   =    2.442    radius for radial grids                                                     
   RDEPT  =    1.890    core radius for aug-charge                                                  
                                                                                                    
   Atomic configuration                                                                             
    9 entries                                                                                       
     n  l   j            E        occ.                                                              
     1  0  0.50     -6993.8440   2.0000                                                             
     2  0  0.50      -814.6047   2.0000                                                             
     2  1  1.50      -693.3689   6.0000                                                             
     3  0  0.50       -89.4732   2.0000                                                             
     3  1  1.50       -55.6373   6.0000                                                             
     3  2  2.50        -3.8151   7.0000                                                             
     4  0  0.50        -4.2551   1.0000                                                             
     4  1  1.50        -3.4015   0.0000                                                             
     4  3  2.50        -1.3606   0.0000                                                             
   Description                                                                                      
     l       E           TYP  RCUT    TYP  RCUT                                                     
     2     -3.8151135     23  2.300                                                                 
     2     -5.1756961     23  2.300                                                                 
     0     -4.2550963     23  2.300                                                                 
     0      7.2035603     23  2.300                                                                 
     1     -2.7211652     23  2.300                                                                 
     1     18.4316424     23  2.300                                                                 
  local pseudopotential read in
  partial core-charges read in
  partial kinetic energy density read in
  atomic valenz-charges read in
  non local Contribution for L=           2  read in
    real space projection operators read in
  non local Contribution for L=           2  read in
    real space projection operators read in
  non local Contribution for L=           0  read in
    real space projection operators read in
  non local Contribution for L=           0  read in
    real space projection operators read in
  non local Contribution for L=           1  read in
    real space projection operators read in
  non local Contribution for L=           1  read in
    real space projection operators read in
    PAW grid and wavefunctions read in
 
   number of l-projection  operators is LMAX  =           6
   number of lm-projection operators is LMMAX =          18
 
  PAW_PBE Fe 06Sep2000                  :
 energy of atom  1       EATOM= -594.3153
 kinetic energy error for atom=    0.0278 (will be added to EATOM!!)
 
 
 POSCAR: Fe
  positions in cartesian coordinates
  No initial velocities read in
 exchange correlation table for  LEXCH =        8
   RHO(1)=    0.500       N(1)  =     2000
   RHO(2)=  100.500       N(2)  =     4000
 


--------------------------------------------------------------------------------------------------------


 ion  position               nearest neighbor table
   1  0.000  0.000  0.000-   2 2.34   2 2.34   2 2.34   2 2.34   2 2.34   2 2.34
   2  0.333  0.667  0.500-   1 2.34   1 2.34   1 2.34   1 2.34   1 2.34   1 2.34
 
  LATTYP: Found a hexagonal cell.
 ALAT       =     2.2368000000
 C/A-ratio  =     1.7420600858
  
  Lattice vectors:
  
 A1 = (   2.2368000000,   0.0000000000,   0.0000000000)
 A2 = (  -1.1184000000,   1.9371256232,   0.0000000000)
 A3 = (   0.0000000000,   0.0000000000,   3.8966400000)


Analysis of symmetry for initial positions (statically):
=====================================================================
 Subroutine PRICEL returns:
 Original cell was already a primitive cell.
 

 Routine SETGRP: Setting up the symmetry group for a 
 hexagonal supercell.


 Subroutine GETGRP returns: Found 24 space group operations
 (whereof 12 operations were pure point group operations)
 out of a pool of 24 trial point group operations.


The static configuration has the point symmetry D_3h.
 The point group associated with its full space group is D_6h.


Analysis of symmetry for dynamics (positions and initial velocities):
=====================================================================
 Subroutine PRICEL returns:
 Original cell was already a primitive cell.
 

 Routine SETGRP: Setting up the symmetry group for a 
 hexagonal supercell.


 Subroutine GETGRP returns: Found 24 space group operations
 (whereof 12 operations were pure point group operations)
 out of a pool of 24 trial point group operations.


The dynamic configuration has the point symmetry D_3h.
 The point group associated with its full space group is D_6h.


 Subroutine INISYM returns: Found 24 space group operations
 (whereof 12 operations are pure point group operations),
 and found     1 'primitive' translations


----------------------------------------------------------------------------------------

                                     Primitive cell                                     

  volume of cell :      16.8840

  direct lattice vectors                    reciprocal lattice vectors
     2.236800000  0.000000000  0.000000000     0.447067239  0.258114391  0.000000000
    -1.118400000  1.937125623  0.000000000     0.000000000  0.516228781  0.000000000
     0.000000000  0.000000000  3.896640000     0.000000000  0.000000000  0.256631354

  length of vectors
     2.236800000  2.236800000  3.896640000     0.516228781  0.516228781  0.256631354

  position of ions in fractional coordinates (direct lattice)
     0.000000000  0.000000000  0.000000000
     0.333333333  0.666666667  0.500000000

  ion indices of the primitive-cell ions
   primitive index   ion index
                 1           1
                 2           2

----------------------------------------------------------------------------------------

 
 
 KPOINTS: KPOINTS created by Atomic Simulation Env

Automatic generation of k-mesh.
 Grid dimensions read from file:
 generate k-points for:   11   11   11

 Generating k-lattice:

  Cartesian coordinates                     Fractional coordinates (reciprocal lattice)
     0.040642476  0.023464945  0.000000000     0.090909091 -0.000000000  0.000000000
     0.000000000  0.046929889  0.000000000     0.000000000  0.090909091  0.000000000
     0.000000000  0.000000000  0.023330123     0.000000000  0.000000000  0.090909091

  Length of vectors
     0.046929889  0.046929889  0.023330123

  Shift w.r.t. Gamma in fractional coordinates (k-lattice)
     0.000000000  0.000000000  0.000000000

 
 Subroutine IBZKPT returns following result:
 ===========================================
 
 Found     96 irreducible k-points:
 
 Following reciprocal coordinates:
            Coordinates               Weight
  0.000000  0.000000  0.000000      1.000000
  0.090909  0.000000  0.000000      6.000000
  0.181818  0.000000  0.000000      6.000000
  0.272727  0.000000  0.000000      6.000000
  0.363636  0.000000  0.000000      6.000000
  0.454545  0.000000  0.000000      6.000000
  0.090909  0.090909  0.000000      6.000000
  0.181818  0.090909  0.000000     12.000000
  0.272727  0.090909  0.000000     12.000000
  0.363636  0.090909  0.000000     12.000000
  0.454545  0.090909  0.000000      6.000000
  0.181818  0.181818  0.000000      6.000000
  0.272727  0.181818  0.000000     12.000000
  0.363636  0.181818  0.000000     12.000000
  0.272727  0.272727  0.000000      6.000000
  0.363636  0.272727  0.000000      6.000000
  0.000000  0.000000  0.090909      2.000000
  0.090909  0.000000  0.090909     12.000000
  0.181818  0.000000  0.090909     12.000000
  0.272727  0.000000  0.090909     12.000000
  0.363636  0.000000  0.090909     12.000000
  0.454545  0.000000  0.090909     12.000000
  0.090909  0.090909  0.090909     12.000000
  0.181818  0.090909  0.090909     24.000000
  0.272727  0.090909  0.090909     24.000000
  0.363636  0.090909  0.090909     24.000000
  0.454545  0.090909  0.090909     12.000000
  0.181818  0.181818  0.090909     12.000000
  0.272727  0.181818  0.090909     24.000000
  0.363636  0.181818  0.090909     24.000000
  0.272727  0.272727  0.090909     12.000000
  0.363636  0.272727  0.090909     12.000000
  0.000000  0.000000  0.181818      2.000000
  0.090909  0.000000  0.181818     12.000000
  0.181818  0.000000  0.181818     12.000000
  0.272727  0.000000  0.181818     12.000000
  0.363636  0.000000  0.181818     12.000000
  0.454545  0.000000  0.181818     12.000000
  0.090909  0.090909  0.181818     12.000000
  0.181818  0.090909  0.181818     24.000000
  0.272727  0.090909  0.181818     24.000000
  0.363636  0.090909  0.181818     24.000000
  0.454545  0.090909  0.181818     12.000000
  0.181818  0.181818  0.181818     12.000000
  0.272727  0.181818  0.181818     24.000000
  0.363636  0.181818  0.181818     24.000000
  0.272727  0.272727  0.181818     12.000000
  0.363636  0.272727  0.181818     12.000000
  0.000000  0.000000  0.272727      2.000000
  0.090909  0.000000  0.272727     12.000000
  0.181818  0.000000  0.272727     12.000000
  0.272727  0.000000  0.272727     12.000000
  0.363636  0.000000  0.272727     12.000000
  0.454545  0.000000  0.272727     12.000000
  0.090909  0.090909  0.272727     12.000000
  0.181818  0.090909  0.272727     24.000000
  0.272727  0.090909  0.272727     24.000000
  0.363636  0.090909  0.272727     24.000000
  0.454545  0.090909  0.272727     12.000000
  0.181818  0.181818  0.272727     12.000000
  0.272727  0.181818  0.272727     24.000000
  0.363636  0.181818  0.272727     24.000000
  0.272727  0.272727  0.272727     12.000000
  0.363636  0.272727  0.272727     12.000000
  0.000000  0.000000  0.363636      2.000000
  0.090909  0.000000  0.363636     12.000000
  0.181818  0.000000  0.363636     12.000000
  0.272727  0.000000  0.363636     12.000000
  0.363636  0.000000  0.363636     12.000000
  0.454545  0.000000  0.363636     12.000000
  0.090909  0.090909  0.363636     12.000000
  0.181818  0.090909  0.363636     24.000000
  0.272727  0.090909  0.363636     24.000000
  0.363636  0.090909  0.363636     24.000000
  0.454545  0.090909  0.363636     12.000000
  0.181818  0.181818  0.363636     12.000000
  0.272727  0.181818  0.363636     24.000000
  0.363636  0.181818  0.363636     24.000000
  0.272727  0.272727  0.363636     12.000000
  0.363636  0.272727  0.363636     12.000000
  0.000000  0.000000  0.454545      2.000000
  0.090909  0.000000  0.454545     12.000000
  0.181818  0.000000  0.454545     12.000000
  0.272727  0.000000  0.454545     12.000000
  0.363636  0.000000  0.454545     12.000000
  0.454545  0.000000  0.454545     12.000000
  0.090909  0.090909  0.454545     12.000000
  0.181818  0.090909  0.454545     24.000000
  0.272727  0.090909  0.454545     24.000000
  0.363636  0.090909  0.454545     24.000000
  0.454545  0.090909  0.454545     12.000000
  0.181818  0.181818  0.454545     12.000000
  0.272727  0.181818  0.454545     24.000000
  0.363636  0.181818  0.454545     24.000000
  0.272727  0.272727  0.454545     12.000000
  0.363636  0.272727  0.454545     12.000000
 
 Following cartesian coordinates:
            Coordinates               Weight
  0.000000  0.000000  0.000000      1.000000
  0.040642  0.023465  0.000000      6.000000
  0.081285  0.046930  0.000000      6.000000
  0.121927  0.070395  0.000000      6.000000
  0.162570  0.093860  0.000000      6.000000
  0.203212  0.117325  0.000000      6.000000
  0.040642  0.070395  0.000000      6.000000
  0.081285  0.093860  0.000000     12.000000
  0.121927  0.117325  0.000000     12.000000
  0.162570  0.140790  0.000000     12.000000
  0.203212  0.164255  0.000000      6.000000
  0.081285  0.140790  0.000000      6.000000
  0.121927  0.164255  0.000000     12.000000
  0.162570  0.187720  0.000000     12.000000
  0.121927  0.211185  0.000000      6.000000
  0.162570  0.234649  0.000000      6.000000
  0.000000  0.000000  0.023330      2.000000
  0.040642  0.023465  0.023330     12.000000
  0.081285  0.046930  0.023330     12.000000
  0.121927  0.070395  0.023330     12.000000
  0.162570  0.093860  0.023330     12.000000
  0.203212  0.117325  0.023330     12.000000
  0.040642  0.070395  0.023330     12.000000
  0.081285  0.093860  0.023330     24.000000
  0.121927  0.117325  0.023330     24.000000
  0.162570  0.140790  0.023330     24.000000
  0.203212  0.164255  0.023330     12.000000
  0.081285  0.140790  0.023330     12.000000
  0.121927  0.164255  0.023330     24.000000
  0.162570  0.187720  0.023330     24.000000
  0.121927  0.211185  0.023330     12.000000
  0.162570  0.234649  0.023330     12.000000
  0.000000  0.000000  0.046660      2.000000
  0.040642  0.023465  0.046660     12.000000
  0.081285  0.046930  0.046660     12.000000
  0.121927  0.070395  0.046660     12.000000
  0.162570  0.093860  0.046660     12.000000
  0.203212  0.117325  0.046660     12.000000
  0.040642  0.070395  0.046660     12.000000
  0.081285  0.093860  0.046660     24.000000
  0.121927  0.117325  0.046660     24.000000
  0.162570  0.140790  0.046660     24.000000
  0.203212  0.164255  0.046660     12.000000
  0.081285  0.140790  0.046660     12.000000
  0.121927  0.164255  0.046660     24.000000
  0.162570  0.187720  0.046660     24.000000
  0.121927  0.211185  0.046660     12.000000
  0.162570  0.234649  0.046660     12.000000
  0.000000  0.000000  0.069990      2.000000
  0.040642  0.023465  0.069990     12.000000
  0.081285  0.046930  0.069990     12.000000
  0.121927  0.070395  0.069990     12.000000
  0.162570  0.093860  0.069990     12.000000
  0.203212  0.117325  0.069990     12.000000
  0.040642  0.070395  0.069990     12.000000
  0.081285  0.093860  0.069990     24.000000
  0.121927  0.117325  0.069990     24.000000
  0.162570  0.140790  0.069990     24.000000
  0.203212  0.164255  0.069990     12.000000
  0.081285  0.140790  0.069990     12.000000
  0.121927  0.164255  0.069990     24.000000
  0.162570  0.187720  0.069990     24.000000
  0.121927  0.211185  0.069990     12.000000
  0.162570  0.234649  0.069990     12.000000
  0.000000  0.000000  0.093320      2.000000
  0.040642  0.023465  0.093320     12.000000
  0.081285  0.046930  0.093320     12.000000
  0.121927  0.070395  0.093320     12.000000
  0.162570  0.093860  0.093320     12.000000
  0.203212  0.117325  0.093320     12.000000
  0.040642  0.070395  0.093320     12.000000
  0.081285  0.093860  0.093320     24.000000
  0.121927  0.117325  0.093320     24.000000
  0.162570  0.140790  0.093320     24.000000
  0.203212  0.164255  0.093320     12.000000
  0.081285  0.140790  0.093320     12.000000
  0.121927  0.164255  0.093320     24.000000
  0.162570  0.187720  0.093320     24.000000
  0.121927  0.211185  0.093320     12.000000
  0.162570  0.234649  0.093320     12.000000
  0.000000  0.000000  0.116651      2.000000
  0.040642  0.023465  0.116651     12.000000
  0.081285  0.046930  0.116651     12.000000
  0.121927  0.070395  0.116651     12.000000
  0.162570  0.093860  0.116651     12.000000
  0.203212  0.117325  0.116651     12.000000
  0.040642  0.070395  0.116651     12.000000
  0.081285  0.093860  0.116651     24.000000
  0.121927  0.117325  0.116651     24.000000
  0.162570  0.140790  0.116651     24.000000
  0.203212  0.164255  0.116651     12.000000
  0.081285  0.140790  0.116651     12.000000
  0.121927  0.164255  0.116651     24.000000
  0.162570  0.187720  0.116651     24.000000
  0.121927  0.211185  0.116651     12.000000
  0.162570  0.234649  0.116651     12.000000
 


--------------------------------------------------------------------------------------------------------




 Dimension of arrays:
   k-points           NKPTS =     96   k-points in BZ     NKDIM =     96   number of bands    NBANDS=     40
   number of dos      NEDOS =    301   number of ions     NIONS =      2
   non local maximal  LDIM  =      6   non local SUM 2l+1 LMDIM =     18
   total plane-waves  NPLWV =   1600
   max r-space proj   IRMAX =      1   max aug-charges    IRDMAX=   3575
   dimension x,y,z NGX =    10 NGY =   10 NGZ =   16
   dimension x,y,z NGXF=    20 NGYF=   20 NGZF=   32
   support grid    NGXF=    20 NGYF=   20 NGZF=   32
   ions per type =               2
   NGX,Y,Z   is equivalent  to a cutoff of   7.43,  7.43,  6.83 a.u.
   NGXF,Y,Z  is equivalent  to a cutoff of  14.86, 14.86, 13.65 a.u.

 SYSTEM =  unknown system                          
 POSCAR =  Fe                                      

 Startparameter for this run:
   NWRITE =      2    write-flag & timer
   PREC   = normal    normal or accurate (medium, high low for compatibility)
   ISTART =      0    job   : 0-new  1-cont  2-samecut
   ICHARG =      1    charge: 1-file 2-atom 10-const
   ISPIN  =      1    spin polarized calculation?
   LNONCOLLINEAR =      F non collinear calculations
   LSORBIT =      F    spin-orbit coupling
   INIWAV =      1    electr: 0-lowe 1-rand  2-diag
   LASPH  =      F    aspherical Exc in radial PAW
   METAGGA=      F    non-selfconsistent MetaGGA calc.

 Electronic Relaxation 1
   ENCUT  =  280.0 eV  20.58 Ry    4.54 a.u.   3.05  3.05  5.32*2*pi/ulx,y,z
   ENINI  =  280.0     initial cutoff
   ENAUG  =  511.4 eV  augmentation charge cutoff
   NELM   =     60;   NELMIN=  2; NELMDL= -5     # of ELM steps 
   EDIFF  = 0.1E-05   stopping-criterion for ELM
   LREAL  =      F    real-space projection
   NLSPLINE    = F    spline interpolate recip. space projectors
   LCOMPAT=      F    compatible to vasp.4.4
   GGA_COMPAT  = T    GGA compatible to vasp.4.4-vasp.4.6
   LMAXPAW     = -100 max onsite density
   LMAXMIX     =    2 max onsite mixed and CHGCAR
   VOSKOWN=      0    Vosko Wilk Nusair interpolation
   ROPT   =    0.00000
 Ionic relaxation
   EDIFFG = 0.1E-04   stopping-criterion for IOM
   NSW    =      0    number of steps for IOM
   NBLOCK =      1;   KBLOCK =      1    inner block; outer block 
   IBRION =     -1    ionic relax: 0-MD 1-quasi-New 2-CG
   NFREE  =      0    steps in history (QN), initial steepest desc. (CG)
   ISIF   =      2    stress and relaxation
   IWAVPR =      0    prediction:  0-non 1-charg 2-wave 3-comb
   ISYM   =      2    0-nonsym 1-usesym 2-fastsym
   LCORR  =      T    Harris-Foulkes like correction to forces

   POTIM  = 0.5000    time-step for ionic-motion
   TEIN   =    0.0    initial temperature
   TEBEG  =    0.0;   TEEND  =   0.0 temperature during run
   SMASS  =  -3.00    Nose mass-parameter (am)
   estimated Nose-frequenzy (Omega)   =  0.10E-29 period in steps = 0.13E+47 mass=  -0.114E-27a.u.
   SCALEE = 1.0000    scale energy and forces
   NPACO  =    256;   APACO  = 16.0  distance and # of slots for P.C.
   PSTRESS=    0.0 pullay stress

  Mass of Ions in am
   POMASS =  55.85
  Ionic Valenz
   ZVAL   =   8.00
  Atomic Wigner-Seitz radii
   RWIGS  =  -1.00
  virtual crystal weights 
   VCA    =   1.00
   NELECT =      16.0000    total number of electrons
   NUPDOWN=      -1.0000    fix difference up-down

 DOS related values:
   EMIN   =  10.00;   EMAX   =-10.00  energy-range for DOS
   EFERMI =   0.00
   ISMEAR =     1;   SIGMA  =   0.20  broadening in eV -4-tet -1-fermi 0-gaus

 Electronic relaxation 2 (details)
   IALGO  =     38    algorithm
   LDIAG  =      T    sub-space diagonalisation (order eigenvalues)
   LSUBROT=      F    optimize rotation matrix (better conditioning)
   TURBO    =      0    0=normal 1=particle mesh
   IRESTART =      0    0=no restart 2=restart with 2 vectors
   NREBOOT  =      0    no. of reboots
   NMIN     =      0    reboot dimension
   EREF     =   0.00    reference energy to select bands
   IMIX   =      4    mixing-type and parameters
     AMIX     =   0.40;   BMIX     =  1.00
     AMIX_MAG =   1.60;   BMIX_MAG =  1.00
     AMIN     =   0.10
     WC   =   100.;   INIMIX=   1;  MIXPRE=   1;  MAXMIX= -45

 Intra band minimization:
   WEIMIN = 0.0000     energy-eigenvalue tresh-hold
   EBREAK =  0.62E-08  absolut break condition
   DEPER  =   0.30     relativ break condition  

   TIME   =   0.40     timestep for ELM

  volume/ion in A,a.u.               =       8.44        56.97
  Fermi-wavevector in a.u.,A,eV,Ry     =   1.608014  3.038705 35.180695  2.585708
  Thomas-Fermi vector in A             =   2.703951
 
 Write flags
   LWAVE        =      T    write WAVECAR
   LDOWNSAMPLE  =      F    k-point downsampling of WAVECAR
   LCHARG       =      T    write CHGCAR
   LVTOT        =      F    write LOCPOT, total local potential
   LVHAR        =      F    write LOCPOT, Hartree potential only
   LELF         =      F    write electronic localiz. function (ELF)
   LORBIT       =      0    0 simple, 1 ext, 2 COOP (PROOUT), +10 PAW based schemes


 Dipole corrections
   LMONO  =      F    monopole corrections only (constant potential shift)
   LDIPOL =      F    correct potential (dipole corrections)
   IDIPOL =      0    1-x, 2-y, 3-z, 4-all directions 
   EPSILON=  1.0000000 bulk dielectric constant

 Exchange correlation treatment:
   GGA     =    PE    GGA type
   LEXCH   =     8    internal setting for exchange type
   VOSKOWN=      0    Vosko Wilk Nusair interpolation
   LHFCALC =     F    Hartree Fock is set to
   LHFONE  =     F    Hartree Fock one center treatment
   AEXX    =    0.0000 exact exchange contribution

 Linear response parameters
   LEPSILON=     F    determine dielectric tensor
   LRPA    =     F    only Hartree local field effects (RPA)
   LNABLA  =     F    use nabla operator in PAW spheres
   LVEL    =     F    velocity operator in full k-point grid
   LINTERFAST=   F  fast interpolation
   KINTER  =     0    interpolate to denser k-point grid
   CSHIFT  =0.1000    complex shift for real part using Kramers Kronig
   OMEGAMAX=  -1.0    maximum frequency
   DEG_THRESHOLD= 0.2000000E-02 threshold for treating states as degnerate
   RTIME   =   -0.100 relaxation time in fs
  (WPLASMAI=    0.000 imaginary part of plasma frequency in eV, 0.658/RTIME)
   DFIELD  = 0.0000000 0.0000000 0.0000000 field for delta impulse in time
 
 Orbital magnetization related:
   ORBITALMAG=     F  switch on orbital magnetization
   LCHIMAG   =     F  perturbation theory with respect to B field
   DQ        =  0.001000  dq finite difference perturbation B field
   LLRAUG    =     F  two centre corrections for induced B field



--------------------------------------------------------------------------------------------------------


 Static calculation
 charge density and potential will be updated during run
 non-spin polarized calculation
 Variant of blocked Davidson
 Davidson routine will perform the subspace rotation
 perform sub-space diagonalisation
    after iterative eigenvector-optimisation
 modified Broyden-mixing scheme, WC =      100.0
 initial mixing is a Kerker type mixing with AMIX =  0.4000 and BMIX =      1.0000
 Hartree-type preconditioning will be used
 using additional bands           32
 reciprocal scheme for non local part
 use partial core corrections
 calculate Harris-corrections to forces 
   (improved forces if not selfconsistent)
 use gradient corrections 
 use of overlap-Matrix (Vanderbilt PP)
 Methfessel and Paxton  Order N= 1 SIGMA  =   0.20


--------------------------------------------------------------------------------------------------------


  energy-cutoff  :      280.00
  volume of cell :       16.88
      direct lattice vectors                 reciprocal lattice vectors
     2.236800000  0.000000000  0.000000000     0.447067239  0.258114391  0.000000000
    -1.118400000  1.937125623  0.000000000     0.000000000  0.516228781  0.000000000
     0.000000000  0.000000000  3.896640000     0.000000000  0.000000000  0.256631354

  length of vectors
     2.236800000  2.236800000  3.896640000     0.516228781  0.516228781  0.256631354


 
 k-points in units of 2pi/SCALE and weight: KPOINTS created by Atomic Simulation Env
   0.00000000  0.00000000  0.00000000       0.001
   0.04064248  0.02346494  0.00000000       0.005
   0.08128495  0.04692989  0.00000000       0.005
   0.12192743  0.07039483  0.00000000       0.005
   0.16256991  0.09385978  0.00000000       0.005
   0.20321238  0.11732472  0.00000000       0.005
   0.04064248  0.07039483  0.00000000       0.005
   0.08128495  0.09385978  0.00000000       0.009
   0.12192743  0.11732472  0.00000000       0.009
   0.16256991  0.14078967  0.00000000       0.009
   0.20321238  0.16425461  0.00000000       0.005
   0.08128495  0.14078967  0.00000000       0.005
   0.12192743  0.16425461  0.00000000       0.009
   0.16256991  0.18771956  0.00000000       0.009
   0.12192743  0.21118450  0.00000000       0.005
   0.16256991  0.23464945  0.00000000       0.005
   0.00000000  0.00000000  0.02333012       0.002
   0.04064248  0.02346494  0.02333012       0.009
   0.08128495  0.04692989  0.02333012       0.009
   0.12192743  0.07039483  0.02333012       0.009
   0.16256991  0.09385978  0.02333012       0.009
   0.20321238  0.11732472  0.02333012       0.009
   0.04064248  0.07039483  0.02333012       0.009
   0.08128495  0.09385978  0.02333012       0.018
   0.12192743  0.11732472  0.02333012       0.018
   0.16256991  0.14078967  0.02333012       0.018
   0.20321238  0.16425461  0.02333012       0.009
   0.08128495  0.14078967  0.02333012       0.009
   0.12192743  0.16425461  0.02333012       0.018
   0.16256991  0.18771956  0.02333012       0.018
   0.12192743  0.21118450  0.02333012       0.009
   0.16256991  0.23464945  0.02333012       0.009
   0.00000000  0.00000000  0.04666025       0.002
   0.04064248  0.02346494  0.04666025       0.009
   0.08128495  0.04692989  0.04666025       0.009
   0.12192743  0.07039483  0.04666025       0.009
   0.16256991  0.09385978  0.04666025       0.009
   0.20321238  0.11732472  0.04666025       0.009
   0.04064248  0.07039483  0.04666025       0.009
   0.08128495  0.09385978  0.04666025       0.018
   0.12192743  0.11732472  0.04666025       0.018
   0.16256991  0.14078967  0.04666025       0.018
   0.20321238  0.16425461  0.04666025       0.009
   0.08128495  0.14078967  0.04666025       0.009
   0.12192743  0.16425461  0.04666025       0.018
   0.16256991  0.18771956  0.04666025       0.018
   0.12192743  0.21118450  0.04666025       0.009
   0.16256991  0.23464945  0.04666025       0.009
   0.00000000  0.00000000  0.06999037       0.002
   0.04064248  0.02346494  0.06999037       0.009
   0.08128495  0.04692989  0.06999037       0.009
   0.12192743  0.07039483  0.06999037       0.009
   0.16256991  0.09385978  0.06999037       0.009
   0.20321238  0.11732472  0.06999037       0.009
   0.04064248  0.07039483  0.06999037       0.009
   0.08128495  0.09385978  0.06999037       0.018
   0.12192743  0.11732472  0.06999037       0.018
   0.16256991  0.14078967  0.06999037       0.018
   0.20321238  0.16425461  0.06999037       0.009
   0.08128495  0.14078967  0.06999037       0.009
   0.12192743  0.16425461  0.06999037       0.018
   0.16256991  0.18771956  0.06999037       0.018
   0.12192743  0.21118450  0.06999037       0.009
   0.16256991  0.23464945  0.06999037       0.009
   0.00000000  0.00000000  0.09332049       0.002
   0.04064248  0.02346494  0.09332049       0.009
   0.08128495  0.04692989  0.09332049       0.009
   0.12192743  0.07039483  0.09332049       0.009
   0.16256991  0.09385978  0.09332049       0.009
   0.20321238  0.11732472  0.09332049       0.009
   0.04064248  0.07039483  0.09332049       0.009
   0.08128495  0.09385978  0.09332049       0.018
   0.12192743  0.11732472  0.09332049       0.018
   0.16256991  0.14078967  0.09332049       0.018
   0.20321238  0.16425461  0.09332049       0.009
   0.08128495  0.14078967  0.09332049       0.009
   0.12192743  0.16425461  0.09332049       0.018
   0.16256991  0.18771956  0.09332049       0.018
   0.12192743  0.21118450  0.09332049       0.009
   0.16256991  0.23464945  0.09332049       0.009
   0.00000000  0.00000000  0.11665062       0.002
   0.04064248  0.02346494  0.11665062       0.009
   0.08128495  0.04692989  0.11665062       0.009
   0.12192743  0.07039483  0.11665062       0.009
   0.16256991  0.09385978  0.11665062       0.009
   0.20321238  0.11732472  0.11665062       0.009
   0.04064248  0.07039483  0.11665062       0.009
   0.08128495  0.09385978  0.11665062       0.018
   0.12192743  0.11732472  0.11665062       0.018
   0.16256991  0.14078967  0.11665062       0.018
   0.20321238  0.16425461  0.11665062       0.009
   0.08128495  0.14078967  0.11665062       0.009
   0.12192743  0.16425461  0.11665062       0.018
   0.16256991  0.18771956  0.11665062       0.018
   0.12192743  0.21118450  0.11665062       0.009
   0.16256991  0.23464945  0.11665062       0.009
 
 k-points in reciprocal lattice and weights: KPOINTS created by Atomic Simulation Env
   0.00000000  0.00000000  0.00000000       0.001
   0.09090909  0.00000000  0.00000000       0.005
   0.18181818  0.00000000  0.00000000       0.005
   0.27272727  0.00000000  0.00000000       0.005
   0.36363636  0.00000000  0.00000000       0.005
   0.45454545  0.00000000  0.00000000       0.005
   0.09090909  0.09090909  0.00000000       0.005
   0.18181818  0.09090909  0.00000000       0.009
   0.27272727  0.09090909  0.00000000       0.009
   0.36363636  0.09090909  0.00000000       0.009
   0.45454545  0.09090909  0.00000000       0.005
   0.18181818  0.18181818  0.00000000       0.005
   0.27272727  0.18181818  0.00000000       0.009
   0.36363636  0.18181818  0.00000000       0.009
   0.27272727  0.27272727  0.00000000       0.005
   0.36363636  0.27272727  0.00000000       0.005
   0.00000000  0.00000000  0.09090909       0.002
   0.09090909  0.00000000  0.09090909       0.009
   0.18181818  0.00000000  0.09090909       0.009
   0.27272727  0.00000000  0.09090909       0.009
   0.36363636  0.00000000  0.09090909       0.009
   0.45454545  0.00000000  0.09090909       0.009
   0.09090909  0.09090909  0.09090909       0.009
   0.18181818  0.09090909  0.09090909       0.018
   0.27272727  0.09090909  0.09090909       0.018
   0.36363636  0.09090909  0.09090909       0.018
   0.45454545  0.09090909  0.09090909       0.009
   0.18181818  0.18181818  0.09090909       0.009
   0.27272727  0.18181818  0.09090909       0.018
   0.36363636  0.18181818  0.09090909       0.018
   0.27272727  0.27272727  0.09090909       0.009
   0.36363636  0.27272727  0.09090909       0.009
   0.00000000  0.00000000  0.18181818       0.002
   0.09090909  0.00000000  0.18181818       0.009
   0.18181818  0.00000000  0.18181818       0.009
   0.27272727  0.00000000  0.18181818       0.009
   0.36363636  0.00000000  0.18181818       0.009
   0.45454545  0.00000000  0.18181818       0.009
   0.09090909  0.09090909  0.18181818       0.009
   0.18181818  0.09090909  0.18181818       0.018
   0.27272727  0.09090909  0.18181818       0.018
   0.36363636  0.09090909  0.18181818       0.018
   0.45454545  0.09090909  0.18181818       0.009
   0.18181818  0.18181818  0.18181818       0.009
   0.27272727  0.18181818  0.18181818       0.018
   0.36363636  0.18181818  0.18181818       0.018
   0.27272727  0.27272727  0.18181818       0.009
   0.36363636  0.27272727  0.18181818       0.009
   0.00000000  0.00000000  0.27272727       0.002
   0.09090909  0.00000000  0.27272727       0.009
   0.18181818  0.00000000  0.27272727       0.009
   0.27272727  0.00000000  0.27272727       0.009
   0.36363636  0.00000000  0.27272727       0.009
   0.45454545  0.00000000  0.27272727       0.009
   0.09090909  0.09090909  0.27272727       0.009
   0.18181818  0.09090909  0.27272727       0.018
   0.27272727  0.09090909  0.27272727       0.018
   0.36363636  0.09090909  0.27272727       0.018
   0.45454545  0.09090909  0.27272727       0.009
   0.18181818  0.18181818  0.27272727       0.009
   0.27272727  0.18181818  0.27272727       0.018
   0.36363636  0.18181818  0.27272727       0.018
   0.27272727  0.27272727  0.27272727       0.009
   0.36363636  0.27272727  0.27272727       0.009
   0.00000000  0.00000000  0.36363636       0.002
   0.09090909  0.00000000  0.36363636       0.009
   0.18181818  0.00000000  0.36363636       0.009
   0.27272727  0.00000000  0.36363636       0.009
   0.36363636  0.00000000  0.36363636       0.009
   0.45454545  0.00000000  0.36363636       0.009
   0.09090909  0.09090909  0.36363636       0.009
   0.18181818  0.09090909  0.36363636       0.018
   0.27272727  0.09090909  0.36363636       0.018
   0.36363636  0.09090909  0.36363636       0.018
   0.45454545  0.09090909  0.36363636       0.009
   0.18181818  0.18181818  0.36363636       0.009
   0.27272727  0.18181818  0.36363636       0.018
   0.36363636  0.18181818  0.36363636       0.018
   0.27272727  0.27272727  0.36363636       0.009
   0.36363636  0.27272727  0.36363636       0.009
   0.00000000  0.00000000  0.45454545       0.002
   0.09090909  0.00000000  0.45454545       0.009
   0.18181818  0.00000000  0.45454545       0.009
   0.27272727  0.00000000  0.45454545       0.009
   0.36363636  0.00000000  0.45454545       0.009
   0.45454545  0.00000000  0.45454545       0.009
   0.09090909  0.09090909  0.45454545       0.009
   0.18181818  0.09090909  0.45454545       0.018
   0.27272727  0.09090909  0.45454545       0.018
   0.36363636  0.09090909  0.45454545       0.018
   0.45454545  0.09090909  0.45454545       0.009
   0.18181818  0.18181818  0.45454545       0.009
   0.27272727  0.18181818  0.45454545       0.018
   0.36363636  0.18181818  0.45454545       0.018
   0.27272727  0.27272727  0.45454545       0.009
   0.36363636  0.27272727  0.45454545       0.009
 
 position of ions in fractional coordinates (direct lattice) 
   0.00000000  0.00000000  0.00000000
   0.33333333  0.66666667  0.50000000
 
 position of ions in cartesian coordinates  (Angst):
   0.00000000  0.00000000  0.00000000
   0.00000000  1.29141708  1.94832000
 


--------------------------------------------------------------------------------------------------------


 k-point   1 :   0.0000 0.0000 0.0000  plane waves:     161
 k-point   2 :   0.0909 0.0000 0.0000  plane waves:     171
 k-point   3 :   0.1818 0.0000 0.0000  plane waves:     169
 k-point   4 :   0.2727 0.0000 0.0000  plane waves:     181
 k-point   5 :   0.3636 0.0000 0.0000  plane waves:     178
 k-point   6 :   0.4545 0.0000 0.0000  plane waves:     178
 k-point   7 :   0.0909 0.0909 0.0000  plane waves:     173
 k-point   8 :   0.1818 0.0909 0.0000  plane waves:     175
 k-point   9 :   0.2727 0.0909 0.0000  plane waves:     178
 k-point  10 :   0.3636 0.0909 0.0000  plane waves:     183
 k-point  11 :   0.4545 0.0909 0.0000  plane waves:     181
 k-point  12 :   0.1818 0.1818 0.0000  plane waves:     181
 k-point  13 :   0.2727 0.1818 0.0000  plane waves:     186
 k-point  14 :   0.3636 0.1818 0.0000  plane waves:     186
 k-point  15 :   0.2727 0.2727 0.0000  plane waves:     185
 k-point  16 :   0.3636 0.2727 0.0000  plane waves:     189
 k-point  17 :   0.0000 0.0000 0.0909  plane waves:     161
 k-point  18 :   0.0909 0.0000 0.0909  plane waves:     172
 k-point  19 :   0.1818 0.0000 0.0909  plane waves:     171
 k-point  20 :   0.2727 0.0000 0.0909  plane waves:     178
 k-point  21 :   0.3636 0.0000 0.0909  plane waves:     182
 k-point  22 :   0.4545 0.0000 0.0909  plane waves:     181
 k-point  23 :   0.0909 0.0909 0.0909  plane waves:     175
 k-point  24 :   0.1818 0.0909 0.0909  plane waves:     177
 k-point  25 :   0.2727 0.0909 0.0909  plane waves:     179
 k-point  26 :   0.3636 0.0909 0.0909  plane waves:     181
 k-point  27 :   0.4545 0.0909 0.0909  plane waves:     181
 k-point  28 :   0.1818 0.1818 0.0909  plane waves:     181
 k-point  29 :   0.2727 0.1818 0.0909  plane waves:     183
 k-point  30 :   0.3636 0.1818 0.0909  plane waves:     186
 k-point  31 :   0.2727 0.2727 0.0909  plane waves:     190
 k-point  32 :   0.3636 0.2727 0.0909  plane waves:     189
 k-point  33 :   0.0000 0.0000 0.1818  plane waves:     161
 k-point  34 :   0.0909 0.0000 0.1818  plane waves:     173
 k-point  35 :   0.1818 0.0000 0.1818  plane waves:     176
 k-point  36 :   0.2727 0.0000 0.1818  plane waves:     177
 k-point  37 :   0.3636 0.0000 0.1818  plane waves:     180
 k-point  38 :   0.4545 0.0000 0.1818  plane waves:     183
 k-point  39 :   0.0909 0.0909 0.1818  plane waves:     173
 k-point  40 :   0.1818 0.0909 0.1818  plane waves:     179
 k-point  41 :   0.2727 0.0909 0.1818  plane waves:     179
 k-point  42 :   0.3636 0.0909 0.1818  plane waves:     178
 k-point  43 :   0.4545 0.0909 0.1818  plane waves:     181
 k-point  44 :   0.1818 0.1818 0.1818  plane waves:     181
 k-point  45 :   0.2727 0.1818 0.1818  plane waves:     181
 k-point  46 :   0.3636 0.1818 0.1818  plane waves:     183
 k-point  47 :   0.2727 0.2727 0.1818  plane waves:     188
 k-point  48 :   0.3636 0.2727 0.1818  plane waves:     189
 k-point  49 :   0.0000 0.0000 0.2727  plane waves:     161
 k-point  50 :   0.0909 0.0000 0.2727  plane waves:     172
 k-point  51 :   0.1818 0.0000 0.2727  plane waves:     175
 k-point  52 :   0.2727 0.0000 0.2727  plane waves:     179
 k-point  53 :   0.3636 0.0000 0.2727  plane waves:     181
 k-point  54 :   0.4545 0.0000 0.2727  plane waves:     183
 k-point  55 :   0.0909 0.0909 0.2727  plane waves:     178
 k-point  56 :   0.1818 0.0909 0.2727  plane waves:     178
 k-point  57 :   0.2727 0.0909 0.2727  plane waves:     179
 k-point  58 :   0.3636 0.0909 0.2727  plane waves:     178
 k-point  59 :   0.4545 0.0909 0.2727  plane waves:     181
 k-point  60 :   0.1818 0.1818 0.2727  plane waves:     179
 k-point  61 :   0.2727 0.1818 0.2727  plane waves:     179
 k-point  62 :   0.3636 0.1818 0.2727  plane waves:     182
 k-point  63 :   0.2727 0.2727 0.2727  plane waves:     185
 k-point  64 :   0.3636 0.2727 0.2727  plane waves:     185
 k-point  65 :   0.0000 0.0000 0.3636  plane waves:     160
 k-point  66 :   0.0909 0.0000 0.3636  plane waves:     168
 k-point  67 :   0.1818 0.0000 0.3636  plane waves:     180
 k-point  68 :   0.2727 0.0000 0.3636  plane waves:     180
 k-point  69 :   0.3636 0.0000 0.3636  plane waves:     179
 k-point  70 :   0.4545 0.0000 0.3636  plane waves:     184
 k-point  71 :   0.0909 0.0909 0.3636  plane waves:     178
 k-point  72 :   0.1818 0.0909 0.3636  plane waves:     179
 k-point  73 :   0.2727 0.0909 0.3636  plane waves:     176
 k-point  74 :   0.3636 0.0909 0.3636  plane waves:     181
 k-point  75 :   0.4545 0.0909 0.3636  plane waves:     185
 k-point  76 :   0.1818 0.1818 0.3636  plane waves:     181
 k-point  77 :   0.2727 0.1818 0.3636  plane waves:     178
 k-point  78 :   0.3636 0.1818 0.3636  plane waves:     182
 k-point  79 :   0.2727 0.2727 0.3636  plane waves:     182
 k-point  80 :   0.3636 0.2727 0.3636  plane waves:     185
 k-point  81 :   0.0000 0.0000 0.4545  plane waves:     160
 k-point  82 :   0.0909 0.0000 0.4545  plane waves:     170
 k-point  83 :   0.1818 0.0000 0.4545  plane waves:     180
 k-point  84 :   0.2727 0.0000 0.4545  plane waves:     178
 k-point  85 :   0.3636 0.0000 0.4545  plane waves:     180
 k-point  86 :   0.4545 0.0000 0.4545  plane waves:     184
 k-point  87 :   0.0909 0.0909 0.4545  plane waves:     176
 k-point  88 :   0.1818 0.0909 0.4545  plane waves:     180
 k-point  89 :   0.2727 0.0909 0.4545  plane waves:     180
 k-point  90 :   0.3636 0.0909 0.4545  plane waves:     183
 k-point  91 :   0.4545 0.0909 0.4545  plane waves:     182
 k-point  92 :   0.1818 0.1818 0.4545  plane waves:     179
 k-point  93 :   0.2727 0.1818 0.4545  plane waves:     180
 k-point  94 :   0.3636 0.1818 0.4545  plane waves:     181
 k-point  95 :   0.2727 0.2727 0.4545  plane waves:     178
 k-point  96 :   0.3636 0.2727 0.4545  plane waves:     180

 maximum number of plane-waves:       190
 maximum index in each direction: 
   IXMAX=    2   IYMAX=    3   IZMAX=    5
   IXMIN=   -3   IYMIN=   -3   IZMIN=   -5


 total amount of memory used by VASP MPI-rank0    47269. kBytes
=======================================================================

   base      :      30000. kBytes
   nonl-proj :       2632. kBytes
   grid      :        721. kBytes
   one-center:         31. kBytes
   wavefun   :      13885. kBytes
 
     INWAV:  cpu time    0.0000: real time    0.0000
 Broyden mixing: mesh for mixing (old mesh)
   NGX =  5   NGY =  5   NGZ = 11
  (NGX  = 20   NGY  = 20   NGZ  = 32)
  gives a total of    275 points

 initial charge density was supplied:
 charge density of overlapping atoms calculated
 number of electron      16.0000000 magnetization 
 keeping initial charge density in first step


--------------------------------------------------------------------------------------------------------


 Maximum index for augmentation-charges         3269 (set IRDMAX)


--------------------------------------------------------------------------------------------------------


 First call to EWALD:  gamma=   0.691
 Maximum number of real-space cells 3x 3x 2
 Maximum number of reciprocal cells 2x 2x 4

    FEWALD:  cpu time    0.0008: real time    0.0008


--------------------------------------- Iteration      1(   1)  ---------------------------------------


    POTLOK:  cpu time    0.0030: real time    0.0030
    SETDIJ:  cpu time    0.0022: real time    0.0022
     EDDAV:  cpu time    0.7506: real time    0.7696
       DOS:  cpu time    0.0055: real time    0.0055
    --------------------------------------------
      LOOP:  cpu time    0.7614: real time    0.7804

 eigenvalue-minimisations  :  9464
 total energy-change (2. order) : 0.5964272E+02  (-0.2338265E+03)
 number of electron      16.0000000 magnetization 
 augmentation part       16.0000000 magnetization 

 Free energy of the ion-electron system (eV)
  ---------------------------------------------------
  alpha Z        PSCENC =       163.73796490
  Ewald energy   TEWEN  =     -1306.41611739
  -Hartree energ DENC   =      -179.91326376
  -exchange      EXHF   =         0.00000000
  -V(xc)+E(xc)   XCENC  =         9.76718185
  PAW double counting   =      1109.69170683    -1125.09647265
  entropy T*S    EENTRO =        -0.00111928
  eigenvalues    EBANDS =       199.29792769
  atomic energy  EATOM  =      1188.57490811
  Solvation  Ediel_sol  =         0.00000000
  ---------------------------------------------------
  free energy    TOTEN  =        59.64271631 eV

  energy without entropy =       59.64383559  energy(sigma->0) =       59.64308940


--------------------------------------------------------------------------------------------------------




--------------------------------------- Iteration      1(   2)  ---------------------------------------


     EDDAV:  cpu time    0.6167: real time    0.6167
       DOS:  cpu time    0.0056: real time    0.0056
    --------------------------------------------
      LOOP:  cpu time    0.6223: real time    0.6223

 eigenvalue-minimisations  :  7912
 total energy-change (2. order) :-0.7376662E+02  (-0.6316127E+02)
 number of electron      16.0000000 magnetization 
 augmentation part       16.0000000 magnetization 

 Free energy of the ion-electron system (eV)
  ---------------------------------------------------
  alpha Z        PSCENC =       163.73796490
  Ewald energy   TEWEN  =     -1306.41611739
  -Hartree energ DENC   =      -179.91326376
  -exchange      EXHF   =         0.00000000
  -V(xc)+E(xc)   XCENC  =         9.76718185
  PAW double counting   =      1109.69170683    -1125.09647265
  entropy T*S    EENTRO =        -0.00245765
  eigenvalues    EBANDS =       125.53264321
  atomic energy  EATOM  =      1188.57490811
  Solvation  Ediel_sol  =         0.00000000
  ---------------------------------------------------
  free energy    TOTEN  =       -14.12390654 eV

  energy without entropy =      -14.12144889  energy(sigma->0) =      -14.12308733


--------------------------------------------------------------------------------------------------------




--------------------------------------- Iteration      1(   3)  ---------------------------------------


     EDDAV:  cpu time    0.7146: real time    0.7146
       DOS:  cpu time    0.0062: real time    0.0062
    --------------------------------------------
      LOOP:  cpu time    0.7208: real time    0.7208

 eigenvalue-minimisations  :  9560
 total energy-change (2. order) :-0.3813801E+01  (-0.3657003E+01)
 number of electron      16.0000000 magnetization 
 augmentation part       16.0000000 magnetization 

 Free energy of the ion-electron system (eV)
  ---------------------------------------------------
  alpha Z        PSCENC =       163.73796490
  Ewald energy   TEWEN  =     -1306.41611739
  -Hartree energ DENC   =      -179.91326376
  -exchange      EXHF   =         0.00000000
  -V(xc)+E(xc)   XCENC  =         9.76718185
  PAW double counting   =      1109.69170683    -1125.09647265
  entropy T*S    EENTRO =         0.00056295
  eigenvalues    EBANDS =       121.71582150
  atomic energy  EATOM  =      1188.57490811
  Solvation  Ediel_sol  =         0.00000000
  ---------------------------------------------------
  free energy    TOTEN  =       -17.93770766 eV

  energy without entropy =      -17.93827061  energy(sigma->0) =      -17.93789531


--------------------------------------------------------------------------------------------------------




--------------------------------------- Iteration      1(   4)  ---------------------------------------


     EDDAV:  cpu time    0.6493: real time    0.6493
       DOS:  cpu time    0.0061: real time    0.0061
    --------------------------------------------
      LOOP:  cpu time    0.6554: real time    0.6554

 eigenvalue-minimisations  :  8648
 total energy-change (2. order) :-0.1172538E-01  (-0.1172104E-01)
 number of electron      16.0000000 magnetization 
 augmentation part       16.0000000 magnetization 

 Free energy of the ion-electron system (eV)
  ---------------------------------------------------
  alpha Z        PSCENC =       163.73796490
  Ewald energy   TEWEN  =     -1306.41611739
  -Hartree energ DENC   =      -179.91326376
  -exchange      EXHF   =         0.00000000
  -V(xc)+E(xc)   XCENC  =         9.76718185
  PAW double counting   =      1109.69170683    -1125.09647265
  entropy T*S    EENTRO =         0.00059874
  eigenvalues    EBANDS =       121.70406033
  atomic energy  EATOM  =      1188.57490811
  Solvation  Ediel_sol  =         0.00000000
  ---------------------------------------------------
  free energy    TOTEN  =       -17.94943303 eV

  energy without entropy =      -17.95003177  energy(sigma->0) =      -17.94963261


--------------------------------------------------------------------------------------------------------




--------------------------------------- Iteration      1(   5)  ---------------------------------------


     EDDAV:  cpu time    0.6846: real time    0.6846
       DOS:  cpu time    0.0063: real time    0.0063
    CHARGE:  cpu time    0.0174: real time    0.0174
    MIXING:  cpu time    0.0001: real time    0.0001
    --------------------------------------------
      LOOP:  cpu time    0.7085: real time    0.7085

 eigenvalue-minimisations  :  9304
 total energy-change (2. order) :-0.6289508E-05  (-0.6289007E-05)
 number of electron      16.0000163 magnetization 
 augmentation part        7.2508908 magnetization 

 Broyden mixing:
  rms(total) = 0.21274E+01    rms(broyden)= 0.21273E+01
  rms(prec ) = 0.30814E+01
  weight for this iteration     100.00

 Free energy of the ion-electron system (eV)
  ---------------------------------------------------
  alpha Z        PSCENC =       163.73796490
  Ewald energy   TEWEN  =     -1306.41611739
  -Hartree energ DENC   =      -179.91326376
  -exchange      EXHF   =         0.00000000
  -V(xc)+E(xc)   XCENC  =         9.76718185
  PAW double counting   =      1109.69170683    -1125.09647265
  entropy T*S    EENTRO =         0.00059875
  eigenvalues    EBANDS =       121.70405403
  atomic energy  EATOM  =      1188.57490811
  Solvation  Ediel_sol  =         0.00000000
  ---------------------------------------------------
  free energy    TOTEN  =       -17.94943932 eV

  energy without entropy =      -17.95003808  energy(sigma->0) =      -17.94963891


--------------------------------------------------------------------------------------------------------




--------------------------------------- Iteration      1(   6)  ---------------------------------------


    POTLOK:  cpu time    0.0029: real time    0.0029
    SETDIJ:  cpu time    0.0021: real time    0.0021
     EDDAV:  cpu time    0.8215: real time    0.8216
       DOS:  cpu time    0.0065: real time    0.0065
    CHARGE:  cpu time    0.0175: real time    0.0175
    MIXING:  cpu time    0.0002: real time    0.0002
    --------------------------------------------
      LOOP:  cpu time    0.8507: real time    0.8507

 eigenvalue-minimisations  : 11312
 total energy-change (2. order) : 0.2464349E+01  (-0.1189125E+00)
 number of electron      16.0000191 magnetization 
 augmentation part        8.2757622 magnetization 

 Broyden mixing:
  rms(total) = 0.20891E+00    rms(broyden)= 0.20875E+00
  rms(prec ) = 0.22397E+00
  weight for this iteration     100.00

 eigenvalues of (default mixing * dielectric matrix)
  average eigenvalue GAMMA=   1.0825
  1.0825

 Free energy of the ion-electron system (eV)
  ---------------------------------------------------
  alpha Z        PSCENC =       163.73796490
  Ewald energy   TEWEN  =     -1306.41611739
  -Hartree energ DENC   =      -151.29297707
  -exchange      EXHF   =         0.00000000
  -V(xc)+E(xc)   XCENC  =         8.35229590
  PAW double counting   =      1379.52867986    -1392.54290012
  entropy T*S    EENTRO =         0.00056881
  eigenvalues    EBANDS =        94.57248696
  atomic energy  EATOM  =      1188.57490811
  Solvation  Ediel_sol  =         0.00000000
  ---------------------------------------------------
  free energy    TOTEN  =       -15.48509004 eV

  energy without entropy =      -15.48565885  energy(sigma->0) =      -15.48527964


--------------------------------------------------------------------------------------------------------




--------------------------------------- Iteration      1(   7)  ---------------------------------------


    POTLOK:  cpu time    0.0029: real time    0.0029
    SETDIJ:  cpu time    0.0021: real time    0.0021
     EDDAV:  cpu time    0.6911: real time    0.6911
       DOS:  cpu time    0.0064: real time    0.0064
    CHARGE:  cpu time    0.0171: real time    0.0171
    MIXING:  cpu time    0.0002: real time    0.0002
    --------------------------------------------
      LOOP:  cpu time    0.7198: real time    0.7198

 eigenvalue-minimisations  :  9328
 total energy-change (2. order) : 0.1078183E+00  (-0.4120135E-02)
 number of electron      16.0000188 magnetization 
 augmentation part        8.1764732 magnetization 

 Broyden mixing:
  rms(total) = 0.18752E+00    rms(broyden)= 0.18751E+00
  rms(prec ) = 0.24293E+00
  weight for this iteration     100.00

 eigenvalues of (default mixing * dielectric matrix)
  average eigenvalue GAMMA=   1.3551
  0.8831  1.8270

 Free energy of the ion-electron system (eV)
  ---------------------------------------------------
  alpha Z        PSCENC =       163.73796490
  Ewald energy   TEWEN  =     -1306.41611739
  -Hartree energ DENC   =      -151.03380836
  -exchange      EXHF   =         0.00000000
  -V(xc)+E(xc)   XCENC  =         8.36691867
  PAW double counting   =      1518.77693621    -1535.17271374
  entropy T*S    EENTRO =         0.00047316
  eigenvalues    EBANDS =        97.78816674
  atomic energy  EATOM  =      1188.57490811
  Solvation  Ediel_sol  =         0.00000000
  ---------------------------------------------------
  free energy    TOTEN  =       -15.37727170 eV

  energy without entropy =      -15.37774485  energy(sigma->0) =      -15.37742942


--------------------------------------------------------------------------------------------------------




--------------------------------------- Iteration      1(   8)  ---------------------------------------


    POTLOK:  cpu time    0.0028: real time    0.0028
    SETDIJ:  cpu time    0.0021: real time    0.0021
     EDDAV:  cpu time    0.7807: real time    0.7807
       DOS:  cpu time    0.0065: real time    0.0065
    CHARGE:  cpu time    0.0172: real time    0.0172
    MIXING:  cpu time    0.0002: real time    0.0002
    --------------------------------------------
      LOOP:  cpu time    0.8094: real time    0.8094

 eigenvalue-minimisations  : 10760
 total energy-change (2. order) : 0.4265889E-01  (-0.2321653E-03)
 number of electron      16.0000189 magnetization 
 augmentation part        8.1987848 magnetization 

 Broyden mixing:
  rms(total) = 0.47655E-01    rms(broyden)= 0.47647E-01
  rms(prec ) = 0.58465E-01
  weight for this iteration     100.00

 eigenvalues of (default mixing * dielectric matrix)
  average eigenvalue GAMMA=   1.5858
  2.7496  1.1194  0.8884

 Free energy of the ion-electron system (eV)
  ---------------------------------------------------
  alpha Z        PSCENC =       163.73796490
  Ewald energy   TEWEN  =     -1306.41611739
  -Hartree energ DENC   =      -148.15697129
  -exchange      EXHF   =         0.00000000
  -V(xc)+E(xc)   XCENC  =         8.24932529
  PAW double counting   =      1677.21285594    -1696.15660612
  entropy T*S    EENTRO =         0.00050267
  eigenvalues    EBANDS =        97.61952507
  atomic energy  EATOM  =      1188.57490811
  Solvation  Ediel_sol  =         0.00000000
  ---------------------------------------------------
  free energy    TOTEN  =       -15.33461281 eV

  energy without entropy =      -15.33511549  energy(sigma->0) =      -15.33478037


--------------------------------------------------------------------------------------------------------




--------------------------------------- Iteration      1(   9)  ---------------------------------------


    POTLOK:  cpu time    0.0029: real time    0.0029
    SETDIJ:  cpu time    0.0021: real time    0.0021
     EDDAV:  cpu time    0.7754: real time    0.7754
       DOS:  cpu time    0.0066: real time    0.0066
    CHARGE:  cpu time    0.0173: real time    0.0173
    MIXING:  cpu time    0.0002: real time    0.0002
    --------------------------------------------
      LOOP:  cpu time    0.8046: real time    0.8046

 eigenvalue-minimisations  : 10224
 total energy-change (2. order) : 0.2966495E-02  (-0.4673708E-04)
 number of electron      16.0000189 magnetization 
 augmentation part        8.2037876 magnetization 

 Broyden mixing:
  rms(total) = 0.85200E-02    rms(broyden)= 0.85142E-02
  rms(prec ) = 0.11961E-01
  weight for this iteration     100.00

 eigenvalues of (default mixing * dielectric matrix)
  average eigenvalue GAMMA=   1.6381
  2.7264  1.9450  0.9809  0.9001

 Free energy of the ion-electron system (eV)
  ---------------------------------------------------
  alpha Z        PSCENC =       163.73796490
  Ewald energy   TEWEN  =     -1306.41611739
  -Hartree energ DENC   =      -147.08033374
  -exchange      EXHF   =         0.00000000
  -V(xc)+E(xc)   XCENC  =         8.20789055
  PAW double counting   =      1752.57037490    -1772.59779717
  entropy T*S    EENTRO =         0.00049574
  eigenvalues    EBANDS =        97.67096776
  atomic energy  EATOM  =      1188.57490811
  Solvation  Ediel_sol  =         0.00000000
  ---------------------------------------------------
  free energy    TOTEN  =       -15.33164632 eV

  energy without entropy =      -15.33214206  energy(sigma->0) =      -15.33181157


--------------------------------------------------------------------------------------------------------




--------------------------------------- Iteration      1(  10)  ---------------------------------------


    POTLOK:  cpu time    0.0028: real time    0.0028
    SETDIJ:  cpu time    0.0022: real time    0.0022
     EDDAV:  cpu time    0.6575: real time    0.6576
       DOS:  cpu time    0.0065: real time    0.0065
    CHARGE:  cpu time    0.0174: real time    0.0174
    MIXING:  cpu time    0.0002: real time    0.0002
    --------------------------------------------
      LOOP:  cpu time    0.6866: real time    0.6866

 eigenvalue-minimisations  :  8584
 total energy-change (2. order) : 0.8405390E-04  (-0.1259727E-05)
 number of electron      16.0000189 magnetization 
 augmentation part        8.2031495 magnetization 

 Broyden mixing:
  rms(total) = 0.25770E-02    rms(broyden)= 0.25765E-02
  rms(prec ) = 0.36646E-02
  weight for this iteration     100.00

 eigenvalues of (default mixing * dielectric matrix)
  average eigenvalue GAMMA=   1.6749
  2.6602  2.4453  0.8965  1.0049  1.3673

 Free energy of the ion-electron system (eV)
  ---------------------------------------------------
  alpha Z        PSCENC =       163.73796490
  Ewald energy   TEWEN  =     -1306.41611739
  -Hartree energ DENC   =      -147.23675486
  -exchange      EXHF   =         0.00000000
  -V(xc)+E(xc)   XCENC  =         8.21546458
  PAW double counting   =      1750.18732596    -1770.05635693
  entropy T*S    EENTRO =         0.00049486
  eigenvalues    EBANDS =        97.66150850
  atomic energy  EATOM  =      1188.57490811
  Solvation  Ediel_sol  =         0.00000000
  ---------------------------------------------------
  free energy    TOTEN  =       -15.33156226 eV

  energy without entropy =      -15.33205712  energy(sigma->0) =      -15.33172722


--------------------------------------------------------------------------------------------------------




--------------------------------------- Iteration      1(  11)  ---------------------------------------


    POTLOK:  cpu time    0.0029: real time    0.0029
    SETDIJ:  cpu time    0.0022: real time    0.0022
     EDDAV:  cpu time    0.6584: real time    0.6584
       DOS:  cpu time    0.0065: real time    0.0065
    CHARGE:  cpu time    0.0174: real time    0.0174
    MIXING:  cpu time    0.0002: real time    0.0002
    --------------------------------------------
      LOOP:  cpu time    0.6877: real time    0.6877

 eigenvalue-minimisations  :  8648
 total energy-change (2. order) : 0.3451135E-04  (-0.4801313E-07)
 number of electron      16.0000189 magnetization 
 augmentation part        8.2029726 magnetization 

 Broyden mixing:
  rms(total) = 0.19592E-03    rms(broyden)= 0.19581E-03
  rms(prec ) = 0.36973E-03
  weight for this iteration     100.00

 eigenvalues of (default mixing * dielectric matrix)
  average eigenvalue GAMMA=   1.5925
  2.5783  2.5783  0.8978  1.0062  1.0062  1.4880

 Free energy of the ion-electron system (eV)
  ---------------------------------------------------
  alpha Z        PSCENC =       163.73796490
  Ewald energy   TEWEN  =     -1306.41611739
  -Hartree energ DENC   =      -147.30261657
  -exchange      EXHF   =         0.00000000
  -V(xc)+E(xc)   XCENC  =         8.21845873
  PAW double counting   =      1748.41922827    -1768.21883283
  entropy T*S    EENTRO =         0.00049525
  eigenvalues    EBANDS =        97.65498378
  atomic energy  EATOM  =      1188.57490811
  Solvation  Ediel_sol  =         0.00000000
  ---------------------------------------------------
  free energy    TOTEN  =       -15.33152775 eV

  energy without entropy =      -15.33202300  energy(sigma->0) =      -15.33169283


--------------------------------------------------------------------------------------------------------




--------------------------------------- Iteration      1(  12)  ---------------------------------------


    POTLOK:  cpu time    0.0030: real time    0.0030
    SETDIJ:  cpu time    0.0021: real time    0.0021
     EDDAV:  cpu time    0.5371: real time    0.5371
       DOS:  cpu time    0.0065: real time    0.0065
    --------------------------------------------
      LOOP:  cpu time    0.5487: real time    0.5487

 eigenvalue-minimisations  :  6288
 total energy-change (2. order) : 0.9603652E-06  (-0.7461078E-08)
 number of electron      16.0000189 magnetization 
 augmentation part        8.2029726 magnetization 

 Free energy of the ion-electron system (eV)
  ---------------------------------------------------
  alpha Z        PSCENC =       163.73796490
  Ewald energy   TEWEN  =     -1306.41611739
  -Hartree energ DENC   =      -147.31159953
  -exchange      EXHF   =         0.00000000
  -V(xc)+E(xc)   XCENC  =         8.21885447
  PAW double counting   =      1748.21381836    -1768.00521057
  entropy T*S    EENTRO =         0.00049535
  eigenvalues    EBANDS =        97.65535949
  atomic energy  EATOM  =      1188.57490811
  Solvation  Ediel_sol  =         0.00000000
  ---------------------------------------------------
  free energy    TOTEN  =       -15.33152679 eV

  energy without entropy =      -15.33202214  energy(sigma->0) =      -15.33169191


--------------------------------------------------------------------------------------------------------




 average (electrostatic) potential at core
  the test charge radii are     1.0103
  (the norm of the test charge is              1.0000)
       1 -40.5119       2 -40.5119
 
 
 
 E-fermi :   9.2353     XC(G=0): -14.9266     alpha+bet :-18.3611

 Fermi energy:         9.2352928726

 k-point     1 :       0.0000    0.0000    0.0000
  band No.  band energies     occupation 
      1      -0.7404      2.00000
      2       3.1160      2.00000
      3       6.4623      2.00000
      4       7.1670      2.00000
      5       7.1670      2.00000
      6       7.6010      2.00000
      7       7.6010      2.00000
      8       8.5743      2.00003
      9       8.7647      2.00436
     10       8.7647      2.00436
     11      10.2246     -0.00000
     12      10.2246     -0.00000
     13      18.7113      0.00000
     14      34.1456      0.00000
     15      35.0890      0.00000
     16      37.7311      0.00000
     17      41.5992      0.00000
     18      41.5993      0.00000
     19      42.2723      0.00000
     20      42.2723      0.00000
     21      44.1761      0.00000
     22      44.4178      0.00000
     23      44.4178      0.00000
     24      45.5525      0.00000
     25      49.2413      0.00000
     26      49.2414      0.00000
     27      50.8227      0.00000
     28      54.3830      0.00000
     29      54.3831      0.00000
     30      55.8333      0.00000
     31      55.8334      0.00000
     32      59.5311      0.00000
     33      65.4766      0.00000
     34      66.5536      0.00000
     35      66.5536      0.00000
     36      67.2051      0.00000
     37      67.8981      0.00000
     38      70.9935      0.00000
     39      70.9935      0.00000
     40      74.5264      0.00000

 k-point     2 :       0.0909    0.0000    0.0000
  band No.  band energies     occupation 
      1      -0.3584      2.00000
      2       3.4044      2.00000
      3       6.4342      2.00000
      4       7.1211      2.00000
      5       7.4114      2.00000
      6       7.4436      2.00000
      7       7.4552      2.00000
      8       7.8270      2.00000
      9       8.5851      2.00004
     10       8.6131      2.00010
     11      10.2741     -0.00000
     12      11.6268     -0.00000
     13      18.7119      0.00000
     14      33.2873      0.00000
     15      35.4515      0.00000
     16      36.4421      0.00000
     17      38.3982      0.00000
     18      40.0579      0.00000
     19      40.3317      0.00000
     20      43.8597      0.00000
     21      44.0154      0.00000
     22      45.4292      0.00000
     23      45.9722      0.00000
     24      46.1080      0.00000
     25      50.3431      0.00000
     26      50.3857      0.00000
     27      51.5371      0.00000
     28      51.7359      0.00000
     29      54.8947      0.00000
     30      57.6730      0.00000
     31      58.1380      0.00000
     32      60.6463      0.00000
     33      65.1524      0.00000
     34      65.2551      0.00000
     35      65.7828      0.00000
     36      66.9761      0.00000
     37      67.2616      0.00000
     38      71.1335      0.00000
     39      73.1805      0.00000
     40      74.5735      0.00000

 k-point     3 :       0.1818    0.0000    0.0000
  band No.  band energies     occupation 
      1       0.7045      2.00000
      2       4.0594      2.00000
      3       6.0369      2.00000
      4       6.1392      2.00000
      5       6.9171      2.00000
      6       7.6686      2.00000
      7       8.1057      2.00000
      8       8.1394      2.00000
      9       8.2604      2.00000
     10       8.4635      2.00000
     11      10.3600     -0.00000
     12      13.8170     -0.00000
     13      18.7679      0.00000
     14      29.9155      0.00000
     15      35.1260      0.00000
     16      35.2346      0.00000
     17      35.4176      0.00000
     18      36.3799      0.00000
     19      41.3391      0.00000
     20      42.9446      0.00000
     21      43.3930      0.00000
     22      43.5102      0.00000
     23      46.8660      0.00000
     24      48.4963      0.00000
     25      50.9851      0.00000
     26      51.5217      0.00000
     27      53.0782      0.00000
     28      55.4746      0.00000
     29      58.8004      0.00000
     30      59.9185      0.00000
     31      60.8109      0.00000
     32      62.4679      0.00000
     33      63.7199      0.00000
     34      64.2587      0.00000
     35      64.6526      0.00000
     36      65.3054      0.00000
     37      68.7396      0.00000
     38      71.7813      0.00000
     39      74.6181      0.00000
     40      74.8120      0.00000

 k-point     4 :       0.2727    0.0000    0.0000
  band No.  band energies     occupation 
      1       2.1383      2.00000
      2       4.2755      2.00000
      3       4.9167      2.00000
      4       6.1091      2.00000
      5       6.7353      2.00000
      6       7.5877      2.00000
      7       7.8574      2.00000
      8       8.6579      2.00035
      9       9.0919      1.93132
     10       9.3561      0.15643
     11      10.4123     -0.00000
     12      16.2137      0.00000
     13      18.8958      0.00000
     14      25.8139      0.00000
     15      31.6491      0.00000
     16      32.4837      0.00000
     17      33.7077      0.00000
     18      36.1506      0.00000
     19      40.1065      0.00000
     20      42.8546      0.00000
     21      43.3972      0.00000
     22      43.6085      0.00000
     23      44.4349      0.00000
     24      48.4039      0.00000
     25      54.3940      0.00000
     26      56.0248      0.00000
     27      56.7500      0.00000
     28      58.5960      0.00000
     29      59.6286      0.00000
     30      60.3759      0.00000
     31      62.3508      0.00000
     32      63.0895      0.00000
     33      63.9614      0.00000
     34      64.0506      0.00000
     35      64.9274      0.00000
     36      68.2031      0.00000
     37      68.7432      0.00000
     38      72.3551      0.00000
     39      73.8085      0.00000
     40      74.1921      0.00000

 k-point     5 :       0.3636    0.0000    0.0000
  band No.  band energies     occupation 
      1       3.2196      2.00000
      2       3.9229      2.00000
      3       4.1489      2.00000
      4       6.4360      2.00000
      5       7.1078      2.00000
      6       7.2313      2.00000
      7       7.5287      2.00000
      8      10.0929     -0.00000
      9      10.2402     -0.00000
     10      10.2631     -0.00000
     11      10.4284     -0.00000
     12      18.5153      0.00000
     13      18.7171      0.00000
     14      22.9174      0.00000
     15      28.2636      0.00000
     16      30.3609      0.00000
     17      31.0540      0.00000
     18      35.1929      0.00000
     19      38.8556      0.00000
     20      42.1823      0.00000
     21      42.6130      0.00000
     22      44.7653      0.00000
     23      45.5646      0.00000
     24      48.5510      0.00000
     25      56.5624      0.00000
     26      57.7505      0.00000
     27      57.9381      0.00000
     28      61.2564      0.00000
     29      61.5460      0.00000
     30      61.6954      0.00000
     31      63.0518      0.00000
     32      64.1619      0.00000
     33      64.9038      0.00000
     34      65.6506      0.00000
     35      66.2322      0.00000
     36      68.0437      0.00000
     37      72.4744      0.00000
     38      73.2578      0.00000
     39      73.5356      0.00000
     40      74.0428      0.00000

 k-point     6 :       0.4545    0.0000    0.0000
  band No.  band energies     occupation 
      1       3.3834      2.00000
      2       3.7598      2.00000
      3       3.7819      2.00000
      4       6.8330      2.00000
      5       7.1381      2.00000
      6       7.3445      2.00000
      7       7.5375      2.00000
      8      10.4285     -0.00000
      9      10.7162     -0.00000
     10      10.8782     -0.00000
     11      12.2889     -0.00000
     12      16.3280      0.00000
     13      21.0321      0.00000
     14      22.9450      0.00000
     15      25.5488      0.00000
     16      28.3637      0.00000
     17      29.1560      0.00000
     18      34.4887      0.00000
     19      38.4392      0.00000
     20      40.8841      0.00000
     21      42.4639      0.00000
     22      45.7970      0.00000
     23      47.8219      0.00000
     24      48.5387      0.00000
     25      53.2619      0.00000
     26      59.0583      0.00000
     27      59.4064      0.00000
     28      62.3335      0.00000
     29      62.6016      0.00000
     30      63.6673      0.00000
     31      64.4077      0.00000
     32      64.7346      0.00000
     33      66.1377      0.00000
     34      68.4311      0.00000
     35      68.5179      0.00000
     36      71.0011      0.00000
     37      71.5995      0.00000
     38      71.7253      0.00000
     39      74.5048      0.00000
     40      74.6643      0.00000

 k-point     7 :       0.0909    0.0909    0.0000
  band No.  band energies     occupation 
      1       0.3686      2.00000
      2       3.9040      2.00000
      3       6.1833      2.00000
      4       6.4133      2.00000
      5       7.1816      2.00000
      6       7.2598      2.00000
      7       7.9208      2.00000
      8       8.0566      2.00000
      9       8.3267      2.00000
     10       8.5865      2.00004
     11      10.2992     -0.00000
     12      13.2145     -0.00000
     13      18.7472      0.00000
     14      31.4968      0.00000
     15      33.3745      0.00000
     16      35.9318      0.00000
     17      37.0053      0.00000
     18      39.0526      0.00000
     19      39.2874      0.00000
     20      41.6776      0.00000
     21      43.2512      0.00000
     22      47.2438      0.00000
     23      47.8211      0.00000
     24      48.8564      0.00000
     25      49.2890      0.00000
     26      49.9833      0.00000
     27      50.2085      0.00000
     28      55.8143      0.00000
     29      58.3747      0.00000
     30      59.3280      0.00000
     31      59.5610      0.00000
     32      62.0486      0.00000
     33      63.0293      0.00000
     34      64.8072      0.00000
     35      65.5671      0.00000
     36      66.5568      0.00000
     37      66.8564      0.00000
     38      72.1622      0.00000
     39      74.2218      0.00000
     40      74.3210      0.00000

 k-point     8 :       0.1818    0.0909    0.0000
  band No.  band energies     occupation 
      1       1.6588      2.00000
      2       4.4955      2.00000
      3       5.3299      2.00000
      4       5.7888      2.00000
      5       6.8348      2.00000
      6       7.5050      2.00000
      7       7.8315      2.00000
      8       8.2606      2.00000
      9       8.8298      2.01462
     10       9.2583      0.80680
     11      10.3119     -0.00000
     12      15.3870      0.00000
     13      18.8998      0.00000
     14      27.8906      0.00000
     15      30.7626      0.00000
     16      33.4443      0.00000
     17      35.8118      0.00000
     18      36.8434      0.00000
     19      40.2982      0.00000
     20      40.8980      0.00000
     21      42.1484      0.00000
     22      46.7840      0.00000
     23      47.3094      0.00000
     24      48.5357      0.00000
     25      51.4811      0.00000
     26      52.1497      0.00000
     27      54.2795      0.00000
     28      59.2249      0.00000
     29      60.6507      0.00000
     30      60.8195      0.00000
     31      61.6482      0.00000
     32      62.8561      0.00000
     33      63.2358      0.00000
     34      64.3778      0.00000
     35      65.7023      0.00000
     36      66.1023      0.00000
     37      67.7754      0.00000
     38      72.7636      0.00000
     39      73.5336      0.00000
     40      74.3366      0.00000

 k-point     9 :       0.2727    0.0909    0.0000
  band No.  band energies     occupation 
      1       3.0469      2.00000
      2       4.3225      2.00000
      3       4.4869      2.00000
      4       5.9543      2.00000
      5       6.9512      2.00000
      6       7.0744      2.00000
      7       7.7824      2.00000
      8       8.8208      2.01257
      9       9.8331     -0.00020
     10      10.3109     -0.00000
     11      10.4758     -0.00000
     12      17.8022      0.00000
     13      19.1031      0.00000
     14      24.1023      0.00000
     15      28.8579      0.00000
     16      30.0140      0.00000
     17      33.6097      0.00000
     18      34.6131      0.00000
     19      39.8519      0.00000
     20      41.1310      0.00000
     21      42.2354      0.00000
     22      46.5210      0.00000
     23      46.6223      0.00000
     24      49.4942      0.00000
     25      53.7160      0.00000
     26      56.1533      0.00000
     27      57.9242      0.00000
     28      58.4930      0.00000
     29      59.8212      0.00000
     30      62.3509      0.00000
     31      62.4709      0.00000
     32      64.4313      0.00000
     33      65.1026      0.00000
     34      65.8600      0.00000
     35      66.1806      0.00000
     36      67.2883      0.00000
     37      71.7290      0.00000
     38      72.3469      0.00000
     39      72.5537      0.00000
     40      74.7595      0.00000

 k-point    10 :       0.3636    0.0909    0.0000
  band No.  band energies     occupation 
      1       3.6481      2.00000
      2       3.9643      2.00000
      3       4.0171      2.00000
      4       6.5655      2.00000
      5       6.8401      2.00000
      6       7.3543      2.00000
      7       7.4088      2.00000
      8       9.9767     -0.00000
      9      10.2980     -0.00000
     10      10.5376     -0.00000
     11      11.9924     -0.00000
     12      17.9135      0.00000
     13      20.2893      0.00000
     14      22.7244      0.00000
     15      26.9556      0.00000
     16      27.3508      0.00000
     17      30.2955      0.00000
     18      33.5936      0.00000
     19      38.8676      0.00000
     20      40.5786      0.00000
     21      43.3632      0.00000
     22      46.8977      0.00000
     23      47.8155      0.00000
     24      49.1322      0.00000
     25      55.1555      0.00000
     26      56.4291      0.00000
     27      58.6704      0.00000
     28      60.0821      0.00000
     29      62.0309      0.00000
     30      62.8367      0.00000
     31      63.5010      0.00000
     32      64.4849      0.00000
     33      64.9992      0.00000
     34      68.0122      0.00000
     35      69.5802      0.00000
     36      69.6525      0.00000
     37      70.4212      0.00000
     38      73.5052      0.00000
     39      74.3202      0.00000
     40      75.0918      0.00000

 k-point    11 :       0.4545    0.0909    0.0000
  band No.  band energies     occupation 
      1       3.5959      2.00000
      2       3.7882      2.00000
      3       4.0078      2.00000
      4       6.7867      2.00000
      5       7.0374      2.00000
      6       7.1671      2.00000
      7       7.5557      2.00000
      8      10.2905     -0.00000
      9      10.6297     -0.00000
     10      10.6563     -0.00000
     11      13.4076     -0.00000
     12      16.0348      0.00000
     13      21.9561      0.00000
     14      23.3874      0.00000
     15      25.1134      0.00000
     16      26.5264      0.00000
     17      28.7019      0.00000
     18      33.2197      0.00000
     19      38.4370      0.00000
[...]
     17      31.0194      0.00000
     18      32.1234      0.00000
     19      37.7085      0.00000
     20      38.3724      0.00000
     21      42.7810      0.00000
     22      43.3977      0.00000
     23      48.4658      0.00000
     24      49.5285      0.00000
     25      55.6527      0.00000
     26      57.4419      0.00000
     27      59.7292      0.00000
     28      60.5166      0.00000
     29      62.6451      0.00000
     30      63.5983      0.00000
     31      64.2548      0.00000
     32      64.3526      0.00000
     33      66.6880      0.00000
     34      67.2405      0.00000
     35      69.7322      0.00000
     36      70.2904      0.00000
     37      70.4339      0.00000
     38      72.2946      0.00000
     39      74.9036      0.00000
     40      75.4001      0.00000

 k-point    91 :       0.4545    0.0909    0.4545
  band No.  band energies     occupation 
      1       3.2555      2.00000
      2       3.4446      2.00000
      3       4.9089      2.00000
      4       5.0462      2.00000
      5       7.8500      2.00000
      6       8.3760      2.00000
      7       9.2382      0.97520
      8       9.6257     -0.01861
      9      10.4727     -0.00000
     10      10.4858     -0.00000
     11      13.2252     -0.00000
     12      13.8286     -0.00000
     13      20.9121      0.00000
     14      20.9721      0.00000
     15      29.4660      0.00000
     16      30.1335      0.00000
     17      31.5712      0.00000
     18      32.0379      0.00000
     19      37.4911      0.00000
     20      37.6469      0.00000
     21      42.0667      0.00000
     22      42.2163      0.00000
     23      48.6516      0.00000
     24      49.7522      0.00000
     25      55.9804      0.00000
     26      57.8105      0.00000
     27      62.0929      0.00000
     28      62.7151      0.00000
     29      62.9287      0.00000
     30      63.2848      0.00000
     31      63.5463      0.00000
     32      64.0085      0.00000
     33      67.8996      0.00000
     34      68.7023      0.00000
     35      69.7834      0.00000
     36      70.6309      0.00000
     37      72.4869      0.00000
     38      72.6958      0.00000
     39      75.8119      0.00000
     40      75.9888      0.00000

 k-point    92 :       0.1818    0.1818    0.4545
  band No.  band energies     occupation 
      1       3.6550      2.00000
      2       3.8821      2.00000
      3       5.7395      2.00000
      4       5.7628      2.00000
      5       6.3298      2.00000
      6       6.3735      2.00000
      7       8.2760      2.00000
      8       8.5904      2.00005
      9      10.2007     -0.00000
     10      10.3598     -0.00000
     11      11.0079     -0.00000
     12      11.6821     -0.00000
     13      27.3044      0.00000
     14      27.6371      0.00000
     15      27.9303      0.00000
     16      29.2250      0.00000
     17      29.7321      0.00000
     18      31.1303      0.00000
     19      41.7795      0.00000
     20      42.9345      0.00000
     21      43.7805      0.00000
     22      45.0594      0.00000
     23      47.3487      0.00000
     24      47.4993      0.00000
     25      54.5122      0.00000
     26      55.0798      0.00000
     27      58.2274      0.00000
     28      58.8407      0.00000
     29      61.1481      0.00000
     30      62.4868      0.00000
     31      63.1673      0.00000
     32      63.4430      0.00000
     33      64.1560      0.00000
     34      64.1733      0.00000
     35      66.1559      0.00000
     36      66.4493      0.00000
     37      70.4918      0.00000
     38      72.7936      0.00000
     39      72.9391      0.00000
     40      73.4248      0.00000

 k-point    93 :       0.2727    0.1818    0.4545
  band No.  band energies     occupation 
      1       3.8484      2.00000
      2       3.9718      2.00000
      3       5.4314      2.00000
      4       5.6933      2.00000
      5       6.7371      2.00000
      6       6.9563      2.00000
      7       8.1954      2.00000
      8       8.4919      2.00000
      9      10.3351     -0.00000
     10      10.6616     -0.00000
     11      12.8166     -0.00000
     12      13.4319     -0.00000
     13      24.0105      0.00000
     14      24.6229      0.00000
     15      27.0165      0.00000
     16      27.8340      0.00000
     17      30.2182      0.00000
     18      32.1121      0.00000
     19      39.7000      0.00000
     20      41.2330      0.00000
     21      42.8244      0.00000
     22      44.3705      0.00000
     23      47.8629      0.00000
     24      48.4352      0.00000
     25      55.9383      0.00000
     26      56.4703      0.00000
     27      59.4942      0.00000
     28      61.1372      0.00000
     29      63.0102      0.00000
     30      64.0197      0.00000
     31      64.1952      0.00000
     32      64.4331      0.00000
     33      65.6998      0.00000
     34      65.9197      0.00000
     35      67.4179      0.00000
     36      68.0161      0.00000
     37      70.6503      0.00000
     38      72.9329      0.00000
     39      74.1842      0.00000
     40      74.8642      0.00000

 k-point    94 :       0.3636    0.1818    0.4545
  band No.  band energies     occupation 
      1       3.8094      2.00000
      2       4.0105      2.00000
      3       5.2601      2.00000
      4       5.5129      2.00000
      5       6.8572      2.00000
      6       7.2932      2.00000
      7       8.6465      2.00025
      8       8.7925      2.00754
      9      10.2904     -0.00000
     10      10.5136     -0.00000
     11      14.7511      0.00000
     12      15.2504      0.00000
     13      21.3108      0.00000
     14      21.7050      0.00000
     15      26.3252      0.00000
     16      27.1335      0.00000
     17      31.8367      0.00000
     18      33.0720      0.00000
     19      38.2133      0.00000
     20      39.3414      0.00000
     21      41.5805      0.00000
     22      43.2600      0.00000
     23      48.8665      0.00000
     24      49.3249      0.00000
     25      58.9027      0.00000
     26      59.3910      0.00000
     27      60.1044      0.00000
     28      61.6922      0.00000
     29      62.7364      0.00000
     30      63.1724      0.00000
     31      63.6944      0.00000
     32      64.2781      0.00000
     33      66.6662      0.00000
     34      66.9012      0.00000
     35      69.3185      0.00000
     36      70.1913      0.00000
     37      71.8787      0.00000
     38      72.6148      0.00000
     39      73.5684      0.00000
     40      74.7933      0.00000

 k-point    95 :       0.2727    0.2727    0.4545
  band No.  band energies     occupation 
      1       4.2824      2.00000
      2       4.3803      2.00000
      3       5.5472      2.00000
      4       5.8122      2.00000
      5       6.3505      2.00000
      6       6.6305      2.00000
      7       8.0952      2.00000
      8       8.3450      2.00000
      9      10.3096     -0.00000
     10      10.5507     -0.00000
     11      15.3004      0.00000
     12      15.8840      0.00000
     13      22.2288      0.00000
     14      22.7338      0.00000
     15      24.5370      0.00000
     16      25.0090      0.00000
     17      32.0945      0.00000
     18      33.8705      0.00000
     19      38.1577      0.00000
     20      39.7548      0.00000
     21      41.3750      0.00000
     22      42.6842      0.00000
     23      50.8078      0.00000
     24      51.2623      0.00000
     25      56.2912      0.00000
     26      56.3120      0.00000
     27      62.3612      0.00000
     28      62.7913      0.00000
     29      63.1666      0.00000
     30      63.7138      0.00000
     31      64.3347      0.00000
     32      64.4692      0.00000
     33      65.3610      0.00000
     34      66.3111      0.00000
     35      69.5800      0.00000
     36      69.8340      0.00000
     37      71.4842      0.00000
     38      71.6930      0.00000
     39      72.2371      0.00000
     40      73.6003      0.00000

 k-point    96 :       0.3636    0.2727    0.4545
  band No.  band energies     occupation 
      1       4.5282      2.00000
      2       4.7040      2.00000
      3       5.4244      2.00000
      4       5.5103      2.00000
      5       6.3962      2.00000
      6       6.5493      2.00000
      7       8.1769      2.00000
      8       8.3632      2.00000
      9      10.2761     -0.00000
     10      10.3651     -0.00000
     11      17.3071      0.00000
     12      17.4794      0.00000
     13      20.4389      0.00000
     14      20.8545      0.00000
     15      23.8762      0.00000
     16      24.3294      0.00000
     17      33.7875      0.00000
     18      34.8598      0.00000
     19      37.3564      0.00000
     20      37.4691      0.00000
     21      41.1764      0.00000
     22      42.0771      0.00000
     23      52.2611      0.00000
     24      52.9381      0.00000
     25      57.0127      0.00000
     26      57.4341      0.00000
     27      60.9396      0.00000
     28      61.2830      0.00000
     29      63.5646      0.00000
     30      64.0739      0.00000
     31      64.4982      0.00000
     32      64.5764      0.00000
     33      66.0748      0.00000
     34      66.5420      0.00000
     35      67.9230      0.00000
     36      69.1236      0.00000
     37      71.2256      0.00000
     38      73.4735      0.00000
     39      74.4640      0.00000
     40      75.1036      0.00000


--------------------------------------------------------------------------------------------------------


 soft charge-density along one line, spin component           1
         0         1         2         3         4         5         6         7         8         9
x     7.7970    0.0000    0.0534   -0.0926   -0.0483   -0.0836    0.0224    0.0000    0.0008   -0.0014
x     0.0000    0.0000
y     7.7970    0.0000    0.0534    0.0926   -0.0483    0.0836    0.0224   -0.0000    0.0008    0.0014
y     0.0000    0.0000
z     7.7970    0.0000    0.0000    0.0000    0.2564    0.0000    0.0000   -0.0000   -0.1281    0.0000
z     0.0000    0.0000    0.0239   -0.0000    0.0000    0.0000    0.0000    0.0000
 total charge-density along one line
x    16.0000    0.0000    1.3707   -2.3741    0.2372    0.4108   -0.0017   -0.0000    0.0023   -0.0041
x    -0.0005   -0.0009    0.0009   -0.0000   -0.0001    0.0002    0.0001    0.0001   -0.0002    0.0000
x     0.0000    0.0000
y    16.0000    0.0000    1.3707    2.3741    0.2372   -0.4108   -0.0017    0.0000    0.0023    0.0041
y    -0.0005    0.0009    0.0009    0.0000   -0.0001   -0.0002    0.0001   -0.0001   -0.0002   -0.0000
y     0.0000   -0.0000
z    16.0000    0.0000    0.0000   -0.0000    5.5561    0.0000   -0.0000   -0.0000    1.0419    0.0000
z    -0.0000    0.0000    0.0058    0.0000   -0.0000    0.0000    0.0065    0.0000   -0.0000    0.0000
z    -0.0021    0.0000   -0.0000    0.0000    0.0009    0.0000   -0.0000    0.0000   -0.0006    0.0000
z     0.0000    0.0000    0.0005    0.0000
 
 pseudopotential strength for first ion, spin component:           1
 -3.077   0.000  -0.000  -0.000  -0.000  -3.680   0.000  -0.000
  0.000  -3.058  -0.000  -0.000   0.000   0.000  -3.661  -0.000
 -0.000  -0.000  -3.068   0.000  -0.000  -0.000  -0.000  -3.671
 -0.000  -0.000   0.000  -3.058   0.000  -0.000  -0.000   0.000
 -0.000   0.000  -0.000   0.000  -3.077  -0.000   0.000  -0.000
 -3.680   0.000  -0.000  -0.000  -0.000  -4.238   0.000  -0.000
  0.000  -3.661  -0.000  -0.000   0.000   0.000  -4.220  -0.000
 -0.000  -0.000  -3.671   0.000  -0.000  -0.000  -0.000  -4.230
 -0.000  -0.000   0.000  -3.661   0.000  -0.000  -0.000   0.000
 -0.000   0.000  -0.000   0.000  -3.679  -0.000   0.000  -0.000
  0.000   0.000  -0.000  -0.000  -0.000   0.000   0.000  -0.000
  0.000   0.000   0.000  -0.000  -0.000   0.000   0.000   0.000
 -0.000   0.000  -0.000  -0.000  -0.002  -0.000   0.000  -0.000
 -0.000  -0.000   0.000   0.000  -0.000  -0.000  -0.000   0.000
 -0.002  -0.000   0.000   0.000  -0.000  -0.002  -0.000   0.000
 -0.000   0.000  -0.000  -0.000  -0.002  -0.000   0.000  -0.000
 -0.000  -0.000   0.000   0.000  -0.000  -0.000  -0.000   0.000
 -0.002  -0.000   0.000   0.000  -0.000  -0.002  -0.000   0.000
 total augmentation occupancy for first ion, spin component:           1
  2.091   0.000   0.000   0.000   0.000  -1.835   0.000  -0.000   0.000  -0.000   0.000   0.000   0.000   0.000   0.044  -0.000
  0.000   2.520   0.000  -0.000   0.000   0.000  -2.037  -0.000   0.000   0.000  -0.000   0.000  -0.000   0.000  -0.000   0.000
  0.000   0.000   1.696   0.000  -0.000  -0.000  -0.000  -1.507   0.000   0.000   0.015  -0.008  -0.000   0.000   0.000   0.000
  0.000  -0.000  -0.000   2.520   0.000   0.000   0.000   0.000  -2.037   0.000   0.000   0.000   0.000   0.000  -0.000   0.000
  0.000  -0.000  -0.000   0.000   2.091  -0.000   0.000   0.000  -0.000  -1.835  -0.000   0.000   0.044   0.000  -0.000  -0.001
 -1.835   0.000  -0.000   0.000  -0.000   2.971   0.000   0.000  -0.000   0.000   0.000   0.000  -0.000  -0.000  -0.060   0.000
  0.000  -2.037  -0.000   0.000   0.000   0.000   2.913  -0.000  -0.000   0.000  -0.000  -0.000   0.000  -0.000   0.000  -0.000
 -0.000   0.000  -1.507   0.000   0.000   0.000   0.000   2.695   0.000  -0.000  -0.075   0.000   0.000   0.000   0.000  -0.000
  0.000   0.000   0.000  -2.037   0.000   0.000  -0.000   0.000   2.913   0.000   0.000  -0.000   0.000   0.000   0.000   0.000
  0.000   0.000   0.000  -0.000  -1.835   0.000   0.000  -0.000   0.000   2.971   0.000  -0.000  -0.060  -0.000   0.000   0.001
  0.000  -0.000   0.015  -0.000  -0.000   0.000  -0.000  -0.075   0.000   0.000   3.288  -0.400   0.000   0.000   0.000   0.000
  0.000   0.000  -0.008   0.000   0.000   0.000   0.000   0.000  -0.000  -0.000  -0.400   0.055   0.000   0.000  -0.000  -0.000
  0.000   0.000  -0.000   0.000   0.044  -0.000   0.000   0.000   0.000  -0.060   0.000   0.000   0.459  -0.000  -0.000  -0.033
 -0.000   0.000   0.000   0.000   0.000   0.000  -0.000   0.000   0.000  -0.000   0.000   0.000  -0.000   0.444   0.000   0.000
  0.044  -0.000   0.000  -0.000  -0.000  -0.060   0.000  -0.000   0.000   0.000   0.000   0.000  -0.000  -0.000   0.459   0.000
 -0.000  -0.000   0.000   0.000  -0.001   0.000   0.000  -0.000   0.000   0.001   0.000   0.000  -0.033  -0.000   0.000   0.003
 -0.000  -0.000   0.000  -0.000   0.000  -0.000  -0.000   0.000  -0.000   0.000   0.000   0.000   0.000  -0.038   0.000   0.000
 -0.001   0.000   0.000  -0.000   0.000   0.001   0.000   0.000   0.000  -0.000   0.000   0.000   0.000   0.000  -0.033  -0.000


------------------------ aborting loop because EDIFF is reached ----------------------------------------


    CHARGE:  cpu time    0.0177: real time    0.0177
    FORLOC:  cpu time    0.0002: real time    0.0002
    FORNL :  cpu time    0.0815: real time    0.0815
    STRESS:  cpu time    0.1240: real time    0.1240
    FORCOR:  cpu time    0.0030: real time    0.0030
    FORHAR:  cpu time    0.0007: real time    0.0007
    MIXING:  cpu time    0.0002: real time    0.0002

  FORCE on cell =-STRESS in cart. coord.  units (eV):
  Direction    XX          YY          ZZ          XY          YZ          ZX
  --------------------------------------------------------------------------------------
  Alpha Z   163.73796   163.73796   163.73796
  Ewald    -422.51703  -422.51703  -461.38269     0.00000    -0.00000    -0.00000
  Hartree    53.39285    53.39285    40.52388    -0.00000    -0.00000    -0.00000
  E(xc)     -80.80298   -80.80298   -80.54178     0.00006     0.00000    -0.00000
  Local     113.73404   113.73412   162.04287    -0.00048     0.00000    -0.00000
  n-local   -47.60428   -47.34145   -50.02315    -5.57663     1.53011     1.04516
  augment    74.48389    74.48373    75.04486     0.00047     0.00000    -0.00000
  Kinetic   160.11177   153.77117   154.29629     1.17107    -1.01801     0.11500
  Fock        0.00000     0.00000     0.00000     0.00000     0.00000     0.00000
  -------------------------------------------------------------------------------------
  Total      11.49729    11.49729     3.69824    -0.00000    -0.00000     0.00000
  in kB    1091.01520  1091.01520   350.93777    -0.00000    -0.00000     0.00000
  external pressure =      844.32 kB  Pullay stress =        0.00 kB


 VOLUME and BASIS-vectors are now :
 -----------------------------------------------------------------------------
  energy-cutoff  :      280.00
  volume of cell :       16.88
      direct lattice vectors                 reciprocal lattice vectors
     2.236800000  0.000000000  0.000000000     0.447067239  0.258114391  0.000000000
    -1.118400000  1.937125623  0.000000000     0.000000000  0.516228781  0.000000000
     0.000000000  0.000000000  3.896640000     0.000000000  0.000000000  0.256631354

  length of vectors
     2.236800000  2.236800000  3.896640000     0.516228781  0.516228781  0.256631354


 FORCES acting on ions
    electron-ion (+dipol)            ewald-force                    non-local-force                 convergence-correction
 -----------------------------------------------------------------------------------------------
   0.132E-05 -.618E-06 0.292E-14   0.690E-12 -.410E-12 -.277E-13   -.306E-16 0.136E-16 -.632E-19   -.341E-07 0.197E-07 0.881E-14
   0.624E-06 0.267E-05 0.410E-13   -.689E-12 0.403E-12 0.277E-13   0.275E-16 -.139E-16 0.674E-19   0.341E-07 -.197E-07 0.618E-14
 -----------------------------------------------------------------------------------------------
   0.194E-05 0.205E-05 0.439E-13   0.110E-14 -.755E-14 0.291E-17   -.305E-17 -.259E-18 0.418E-20   0.337E-10 -.156E-10 0.150E-13
 
 
 POSITION                                       TOTAL-FORCE (eV/Angst)
 -----------------------------------------------------------------------------------
      0.00000      0.00000      0.00000         0.000000      0.000000      0.000000
      0.00000      1.29142      1.94832        -0.000000     -0.000000     -0.000000
 -----------------------------------------------------------------------------------
    total drift:                                0.000002      0.000002      0.000000


--------------------------------------------------------------------------------------------------------



  FREE ENERGIE OF THE ION-ELECTRON SYSTEM (eV)
  ---------------------------------------------------
  free  energy   TOTEN  =       -15.33152679 eV

  energy  without entropy=      -15.33202214  energy(sigma->0) =      -15.33169191
 


--------------------------------------------------------------------------------------------------------


    POTLOK:  cpu time    0.0052: real time    0.0052


--------------------------------------------------------------------------------------------------------


 writing wavefunctions
     LOOP+:  cpu time    8.8452: real time    8.8643
    4ORBIT:  cpu time    0.0000: real time    0.0000

 total amount of memory used by VASP MPI-rank0    47269. kBytes
=======================================================================

   base      :      30000. kBytes
   nonl-proj :       2632. kBytes
   grid      :        721. kBytes
   one-center:         31. kBytes
   wavefun   :      13885. kBytes
 
  
  
 General timing and accounting informations for this job:
 ========================================================
  
                  Total CPU time used (sec):        9.007
                            User time (sec):        8.955
                          System time (sec):        0.052
                         Elapsed time (sec):        9.015
  
                   Maximum memory used (kb):       52408.
                   Average memory used (kb):          N/A
  
                          Minor page faults:         6857
                          Major page faults:            0
                 Voluntary context switches:           26
