unknown system                          
   1.00000000000000     
     3.635000    0.000000    0.000000
     0.000000    3.635000    0.000000
     0.000000    0.000000    3.635000
   Pd   Ir   Pt   Cu
     1     1     1     1
Direct
  0.000000  0.000000  0.000000
  0.500000  0.500000  0.000000
  0.500000  0.000000  0.500000
  0.000000  0.500000  0.500000
 
   32   32   32
  314.07      301.08      267.13      223.29      178.76      137.12      98.954      65.983      41.381      26.515    
  18.748      14.219      11.923      11.109      11.034      11.155      11.215      11.155      11.034      11.109    
  11.923      14.219      18.748      26.515      41.381      65.983      98.954      137.12      178.76      223.29    
  267.13      301.08      300.54      287.91      254.95      212.46      169.53      129.76      93.675      62.746    
  39.770      25.876      18.483      14.093      11.867      11.102      11.078      11.246      11.325      11.246    
  11.078      11.102      11.867      14.093      18.483      25.876      39.770      62.746      93.675      129.76    
  169.53      212.46      254.95      287.91      265.16      253.51      223.15      184.25      145.55      110.67    
  80.018      54.405      35.648      24.262      17.832      13.847      11.831      11.208      11.324      11.614    
  11.743      11.614      11.324      11.208      11.831      13.847      17.832      24.262      35.648      54.405    
  80.018      110.67      145.55      184.25      223.15      253.51      219.49      209.19      182.41      148.38    
  115.30      86.769      63.057      44.151      30.662      22.365      17.163      13.820      12.163      11.777    
  12.096      12.549      12.744      12.549      12.096      11.777      12.163      13.820      17.163      22.365    
  30.662      44.151      63.057      86.769      115.30      148.38      182.41      209.19      173.53      164.81    
  142.20      113.73      86.745      64.673      47.663      35.024      26.356      20.819      16.911      14.426    
  13.314      13.295      13.890      14.539      14.808      14.539      13.890      13.295      13.314      14.426    
  16.911      20.819      26.356      35.024      47.663      64.673      86.745      113.73      142.20      164.81    
  131.56      124.65      106.77      84.437      63.761      47.692      36.280      28.515      23.437      19.933    
  17.412      15.999      15.672      16.229      17.244      18.166      18.534      18.166      17.244      16.229    
  15.672      15.999      17.412      19.933      23.437      28.515      36.280      47.692      63.761      84.437    
  106.77      124.65      94.353      89.424      76.691      60.913      46.592      35.929      28.901      24.540    
  21.784      19.863      18.801      18.655      19.421      20.975      22.873      24.432      25.035      24.432    
  22.873      20.975      19.421      18.655      18.801      19.863      21.784      24.540      28.901      35.929    
  46.592      60.913      76.691      89.424      63.109      60.086      52.304      42.750      34.242      28.147    
  24.400      22.264      21.030      20.602      21.018      22.450      25.003      28.432      32.037      34.813    
  35.860      34.813      32.037      28.432      25.003      22.450      21.018      20.602      21.030      22.264    
  24.400      28.147      34.242      42.750      52.304      60.086      40.115      38.590      34.692      29.972    
  25.885      23.110      21.558      20.905      21.076      22.081      24.198      27.712      32.662      38.597    
  44.471      48.854      50.484      48.854      44.471      38.597      32.662      27.712      24.198      22.081    
  21.076      20.905      21.558      23.110      25.885      29.972      34.692      38.590      26.145      25.514    
  23.914      22.026      20.483      19.605      19.551      20.326      21.889      24.509      28.551      34.263    
  41.590      49.918      57.924      63.815      65.993      63.815      57.924      49.918      41.590      34.263    
  28.551      24.509      21.889      20.326      19.551      19.605      20.483      22.026      23.914      25.514    
  18.631      18.349      17.652      16.922      16.608      17.047      18.372      20.531      23.673      28.126    
  34.085      41.626      50.616      60.440      69.737      76.552      79.073      76.552      69.737      60.440    
  50.616      41.626      34.085      28.126      23.673      20.531      18.372      17.047      16.608      16.922    
  17.652      18.349      14.072      13.930      13.637      13.545      14.074      15.544      18.057      21.644    
  26.639      33.118      40.875      49.677      59.362      69.541      79.103      86.156      88.780      86.156    
  79.103      69.541      59.362      49.677      40.875      33.118      26.639      21.644      18.057      15.544    
  14.074      13.545      13.637      13.930      11.562      11.500      11.448      11.752      12.848      15.088    
  18.608      23.748      30.843      39.552      49.094      58.830      68.632      78.525      87.833      94.816    
  97.447      94.816      87.833      78.525      68.632      58.830      49.094      39.552      30.843      23.748    
  18.608      15.088      12.848      11.752      11.448      11.500      10.439      10.444      10.580      11.181    
  12.690      15.504      19.915      26.651      35.970      47.071      58.533      69.301      79.333      89.130    
  98.450      105.61      108.35      105.61      98.450      89.130      79.333      69.301      58.533      47.071    
  35.970      26.651      19.915      15.504      12.690      11.181      10.580      10.444      10.057      10.132    
  10.457      11.324      13.160      16.398      21.575      29.761      41.156      54.554      67.978      80.026    
  90.760      101.09      111.05      118.86      121.88      118.86      111.05      101.09      90.760      80.026    
  67.978      54.554      41.156      29.761      21.575      16.398      13.160      11.324      10.457      10.132    
  9.9570      10.092      10.576      11.654      13.725      17.239      22.962      32.189      45.098      60.219    
  75.203      88.425      100.03      111.19      122.06      130.66      134.00      130.66      122.06      111.19    
  100.03      88.425      75.203      60.219      45.098      32.189      22.962      17.239      13.725      11.654    
  10.576      10.092      9.9365      10.096      10.644      11.805      13.964      17.579      23.502      33.110    
  46.579      62.347      77.934      91.643      103.65      115.20      126.50      135.46      138.95      135.46    
  126.50      115.20      103.65      91.643      77.934      62.347      46.579      33.110      23.502      17.579    
  13.964      11.805      10.644      10.096      9.9570      10.092      10.576      11.654      13.725      17.239    
  22.962      32.189      45.098      60.219      75.203      88.425      100.03      111.19      122.06      130.66    
  134.00      130.66      122.06      111.19      100.03      88.425      75.203      60.219      45.098      32.189    
  22.962      17.239      13.725      11.654      10.576      10.092      10.057      10.132      10.457      11.324    
  13.160      16.398      21.575      29.761      41.156      54.554      67.978      80.026      90.760      101.09    
  111.05      118.86      121.88      118.86      111.05      101.09      90.760      80.026      67.978      54.554    
  41.156      29.761      21.575      16.398      13.160      11.324      10.457      10.132      10.439      10.444    
  10.580      11.181      12.690      15.504      19.915      26.651      35.970      47.071      58.533      69.301    
  79.333      89.130      98.450      105.61      108.35      105.61      98.450      89.130      79.333      69.301    
  58.533      47.071      35.970      26.651      19.915      15.504      12.690      11.181      10.580      10.444    
  11.562      11.500      11.448      11.752      12.848      15.088      18.608      23.748      30.843      39.552    
  49.094      58.830      68.632      78.525      87.833      94.816      97.447      94.816      87.833      78.525    
  68.632      58.830      49.094      39.552      30.843      23.748      18.608      15.088      12.848      11.752    
  11.448      11.500      14.072      13.930      13.637      13.545      14.074      15.544      18.057      21.644    
  26.639      33.118      40.875      49.677      59.362      69.541      79.103      86.156      88.780      86.156    
  79.103      69.541      59.362      49.677      40.875      33.118      26.639      21.644      18.057      15.544    
  14.074      13.545      13.637      13.930      18.631      18.349      17.652      16.922      16.608      17.047    
  18.372      20.531      23.673      28.126      34.085      41.626      50.616      60.440      69.737      76.552    
  79.073      76.552      69.737      60.440      50.616      41.626      34.085      28.126      23.673      20.531    
  18.372      17.047      16.608      16.922      17.652      18.349      26.145      25.514      23.914      22.026    
  20.483      19.605      19.551      20.326      21.889      24.509      28.551      34.263      41.590      49.918    
  57.924      63.815      65.993      63.815      57.924      49.918      41.590      34.263      28.551      24.509    
  21.889      20.326      19.551      19.605      20.483      22.026      23.914      25.514      40.115      38.590    
  34.692      29.972      25.885      23.110      21.558      20.905      21.076      22.081      24.198      27.712    
  32.662      38.597      44.471      48.854      50.484      48.854      44.471      38.597      32.662      27.712    
  24.198      22.081      21.076      20.905      21.558      23.110      25.885      29.972      34.692      38.590    
  63.109      60.086      52.304      42.750      34.242      28.147      24.400      22.264      21.030      20.602    
  21.018      22.450      25.003      28.432      32.037      34.813      35.860      34.813      32.037      28.432    
  25.003      22.450      21.018      20.602      21.030      22.264      24.400      28.147      34.242      42.750    
  52.304      60.086      94.353      89.424      76.691      60.913      46.592      35.929      28.901      24.540    
  21.784      19.863      18.801      18.655      19.421      20.975      22.873      24.432      25.035      24.432    
  22.873      20.975      19.421      18.655      18.801      19.863      21.784      24.540      28.901      35.929    
  46.592      60.913      76.691      89.424      131.56      124.65      106.77      84.437      63.761      47.692    
  36.280      28.515      23.437      19.933      17.412      15.999      15.672      16.229      17.244      18.166    
  18.534      18.166      17.244      16.229      15.672      15.999      17.412      19.933      23.437      28.515    
  36.280      47.692      63.761      84.437      106.77      124.65      173.53      164.81      142.20      113.73    
  86.745      64.673      47.663      35.024      26.356      20.819      16.911      14.426      13.314      13.295    
  13.890      14.539      14.808      14.539      13.890      13.295      13.314      14.426      16.911      20.819    
  26.356      35.024      47.663      64.673      86.745      113.73      142.20      164.81      219.49      209.19    
  182.41      148.38      115.30      86.769      63.057      44.151      30.662      22.365      17.163      13.820    
  12.163      11.777      12.096      12.549      12.744      12.549      12.096      11.777      12.163      13.820    
  17.163      22.365      30.662      44.151      63.057      86.769      115.30      148.38      182.41      209.19    
  265.16      253.51      223.15      184.25      145.55      110.67      80.018      54.405      35.648      24.262    
  17.832      13.847      11.831      11.208      11.324      11.614      11.743      11.614      11.324      11.208    
  11.831      13.847      17.832      24.262      35.648      54.405      80.018      110.67      145.55      184.25    
  223.15      253.51      300.54      287.91      254.95      212.46      169.53      129.76      93.675      62.746    
  39.770      25.876      18.483      14.093      11.867      11.102      11.078      11.246      11.325      11.246    
  11.078      11.102      11.867      14.093      18.483      25.876      39.770      62.746      93.675      129.76    
  169.53      212.46      254.95      287.91      302.51      290.36      258.51      216.98      174.22      133.67    
  96.257      64.040      40.210      25.946      18.475      14.106      11.909      11.136      11.066      11.182    
  11.239      11.182      11.066      11.136      11.909      14.106      18.475      25.946      40.210      64.040    
  96.257      133.67      174.22      216.98      258.51      290.36      289.91      278.08      247.06      206.73    
  165.42      126.62      91.205      60.952      38.682      25.342      18.222      13.988      11.858      11.132    
  11.112      11.272      11.348      11.272      11.112      11.132      11.858      13.988      18.222      25.342    
  38.682      60.952      91.205      126.62      165.42      206.73      247.06      278.08      256.83      245.84    
  217.08      179.91      142.48      108.30      78.111      52.988      34.770      23.814      17.599      13.758    
  11.831      11.242      11.354      11.631      11.754      11.631      11.354      11.242      11.831      13.758    
  17.599      23.814      34.770      52.988      78.111      108.30      142.48      179.91      217.08      245.84    
  213.73      203.92      178.32      145.57      113.36      85.258      61.791      43.172      30.029      22.011    
  16.959      13.740      12.160      11.797      12.103      12.535      12.721      12.535      12.103      11.797    
  12.160      13.740      16.959      22.011      30.029      43.172      61.791      85.258      113.36      145.57    
  178.32      203.92      169.68      161.32      139.55      111.98      85.591      63.784      46.893      34.399    
  25.919      20.523      16.720      14.331      13.272      13.260      13.831      14.451      14.707      14.451    
  13.831      13.260      13.272      14.331      16.720      20.523      25.919      34.399      46.893      63.784    
  85.591      111.98      139.55      161.32      128.81      122.15      104.88      83.203      62.977      47.118    
  35.791      28.104      23.110      19.659      17.206      15.848      15.542      16.080      17.052      17.932    
  18.283      17.932      17.052      16.080      15.542      15.848      17.206      19.659      23.110      28.104    
  35.791      47.118      62.977      83.203      104.88      122.15      92.232      87.483      75.192      59.905    
  45.947      35.479      28.540      24.226      21.485      19.584      18.549      18.409      19.140      20.611    
  22.402      23.872      24.440      23.872      22.402      20.611      19.140      18.409      18.549      19.584    
  21.485      24.226      28.540      35.479      45.947      59.905      75.192      87.483      61.552      58.648    
  51.164      41.951      33.713      27.775      24.098      21.971      20.730      20.298      20.691      22.046    
  24.450      27.670      31.049      33.649      34.628      33.649      31.049      27.670      24.450      22.046    
  20.691      20.298      20.730      21.971      24.098      27.775      33.713      41.951      51.164      58.648    
  39.155      37.698      33.968      29.442      25.507      22.814      21.276      20.613      20.768      21.733    
  23.749      27.075      31.729      37.283      42.762      46.844      48.360      46.844      42.762      37.283    
  31.729      27.075      23.749      21.733      20.768      20.613      21.276      22.814      25.507      29.442    
  33.968      37.698      25.678      25.074      23.544      21.729      20.227      19.359      19.294      20.044    
  21.562      24.087      27.955      33.372      40.257      48.022      55.447      60.893      62.904      60.893    
  55.447      48.022      40.257      33.372      27.955      24.087      21.562      20.044      19.294      19.359    
  20.227      21.729      23.544      25.074      18.415      18.140      17.462      16.751      16.442      16.864    
  18.150      20.254      23.306      27.623      33.365      40.549      48.997      58.113      66.662      72.895    
  75.194      72.895      66.662      58.113      48.997      40.549      33.365      27.623      23.306      20.254    
  18.150      16.864      16.442      16.751      17.462      18.140      13.997      13.858      13.570      13.477    
  13.986      15.412      17.860      21.352      26.222      32.552      40.102      48.557      57.677      67.068    
  75.757      82.110      84.466      82.110      75.757      67.068      57.677      48.557      40.102      32.552    
  26.222      21.352      17.860      15.412      13.986      13.477      13.570      13.858      11.585      11.520    
  11.457      11.740      12.794      14.969      18.404      23.417      30.374      38.959      48.359      57.830    
  67.115      76.199      84.549      90.735      93.054      90.735      84.549      76.199      67.115      57.830    
  48.359      38.959      30.374      23.417      18.404      14.969      12.794      11.740      11.457      11.520    
  10.515      10.510      10.618      11.174      12.621      15.360      19.669      26.263      35.454      46.485    
  57.907      68.532      78.136      87.133      95.428      101.70      104.09      101.70      95.428      87.133    
  78.136      68.532      57.907      46.485      35.454      26.263      19.669      15.360      12.621      11.174    
  10.618      10.510      10.159      10.215      10.492      11.290      13.048      16.204      21.270      29.313    
  40.601      53.993      67.483      79.509      89.902      99.441      108.32      115.16      117.79      115.16    
  108.32      99.441      89.902      79.509      67.483      53.993      40.601      29.313      21.270      16.204    
  13.048      11.290      10.492      10.215      10.070      10.181      10.599      11.590      13.569      17.000    
  22.607      31.694      44.518      59.681      74.808      88.096      99.421      109.79      119.53      127.09    
  130.02      127.09      119.53      109.79      99.421      88.096      74.808      59.681      44.518      31.694    
  22.607      17.000      13.569      11.590      10.599      10.181      10.054      10.186      10.662      11.729    
  13.791      17.321      23.127      32.598      45.989      61.817      77.576      91.381      103.13      113.89    
  124.04      131.94      135.00      131.94      124.04      113.89      103.13      91.381      77.576      61.817    
  45.989      32.598      23.127      17.321      13.791      11.729      10.662      10.186      10.070      10.181    
  10.599      11.590      13.569      17.000      22.607      31.694      44.518      59.681      74.808      88.096    
  99.421      109.79      119.53      127.09      130.02      127.09      119.53      109.79      99.421      88.096    
  74.808      59.681      44.518      31.694      22.607      17.000      13.569      11.590      10.599      10.181    
  10.159      10.215      10.492      11.290      13.048      16.204      21.270      29.313      40.601      53.993    
  67.483      79.509      89.902      99.441      108.32      115.16      117.79      115.16      108.32      99.441    
  89.902      79.509      67.483      53.993      40.601      29.313      21.270      16.204      13.048      11.290    
  10.492      10.215      10.515      10.510      10.618      11.174      12.621      15.360      19.669      26.263    
  35.454      46.485      57.907      68.532      78.136      87.133      95.428      101.70      104.09      101.70    
  95.428      87.133      78.136      68.532      57.907      46.485      35.454      26.263      19.669      15.360    
  12.621      11.174      10.618      10.510      11.585      11.520      11.457      11.740      12.794      14.969    
  18.404      23.417      30.374      38.959      48.359      57.830      67.115      76.199      84.549      90.735    
  93.054      90.735      84.549      76.199      67.115      57.830      48.359      38.959      30.374      23.417    
  18.404      14.969      12.794      11.740      11.457      11.520      13.997      13.858      13.570      13.477    
  13.986      15.412      17.860      21.352      26.222      32.552      40.102      48.557      57.677      67.068    
  75.757      82.110      84.466      82.110      75.757      67.068      57.677      48.557      40.102      32.552    
  26.222      21.352      17.860      15.412      13.986      13.477      13.570      13.858      18.415      18.140    
  17.462      16.751      16.442      16.864      18.150      20.254      23.306      27.623      33.365      40.549    
  48.997      58.113      66.662      72.895      75.194      72.895      66.662      58.113      48.997      40.549    
  33.365      27.623      23.306      20.254      18.150      16.864      16.442      16.751      17.462      18.140    
  25.678      25.074      23.544      21.729      20.227      19.359      19.294      20.044      21.562      24.087    
  27.955      33.372      40.257      48.022      55.447      60.893      62.904      60.893      55.447      48.022    
  40.257      33.372      27.955      24.087      21.562      20.044      19.294      19.359      20.227      21.729    
  23.544      25.074      39.155      37.698      33.968      29.442      25.507      22.814      21.276      20.613    
  20.768      21.733      23.749      27.075      31.729      37.283      42.762      46.844      48.360      46.844    
  42.762      37.283      31.729      27.075      23.749      21.733      20.768      20.613      21.276      22.814    
  25.507      29.442      33.968      37.698      61.552      58.648      51.164      41.951      33.713      27.775    
  24.098      21.971      20.730      20.298      20.691      22.046      24.450      27.670      31.049      33.649    
  34.628      33.649      31.049      27.670      24.450      22.046      20.691      20.298      20.730      21.971    
  24.098      27.775      33.713      41.951      51.164      58.648      92.232      87.483      75.192      59.905    
  45.947      35.479      28.540      24.226      21.485      19.584      18.549      18.409      19.140      20.611    
  22.402      23.872      24.440      23.872      22.402      20.611      19.140      18.409      18.549      19.584    
  21.485      24.226      28.540      35.479      45.947      59.905      75.192      87.483      128.81      122.15    
  104.88      83.203      62.977      47.118      35.791      28.104      23.110      19.659      17.206      15.848    
  15.542      16.080      17.052      17.932      18.283      17.932      17.052      16.080      15.542      15.848    
  17.206      19.659      23.110      28.104      35.791      47.118      62.977      83.203      104.88      122.15    
  169.68      161.32      139.55      111.98      85.591      63.784      46.893      34.399      25.919      20.523    
  16.720      14.331      13.272      13.260      13.831      14.451      14.707      14.451      13.831      13.260    
  13.272      14.331      16.720      20.523      25.919      34.399      46.893      63.784      85.591      111.98    
  139.55      161.32      213.73      203.92      178.32      145.57      113.36      85.258      61.791      43.172    
  30.029      22.011      16.959      13.740      12.160      11.797      12.103      12.535      12.721      12.535    
  12.103      11.797      12.160      13.740      16.959      22.011      30.029      43.172      61.791      85.258    
  113.36      145.57      178.32      203.92      256.83      245.84      217.08      179.91      142.48      108.30    
  78.111      52.988      34.770      23.814      17.599      13.758      11.831      11.242      11.354      11.631    
  11.754      11.631      11.354      11.242      11.831      13.758      17.599      23.814      34.770      52.988    
  78.111      108.30      142.48      179.91      217.08      245.84      289.91      278.08      247.06      206.73    
  165.42      126.62      91.205      60.952      38.682      25.342      18.222      13.988      11.858      11.132    
  11.112      11.272      11.348      11.272      11.112      11.132      11.858      13.988      18.222      25.342    
  38.682      60.952      91.205      126.62      165.42      206.73      247.06      278.08      271.32      261.33    
  234.75      199.14      160.97      123.44      88.349      58.480      36.954      24.398      17.729      13.822    
  11.908      11.260      11.220      11.331      11.384      11.331      11.220      11.260      11.908      13.822    
  17.729      24.398      36.954      58.480      88.349      123.44      160.97      199.14      234.75      261.33    
  261.09      251.27      225.20      190.37      153.31      117.26      83.922      55.805      35.653      23.888    
  17.507      13.723      11.871      11.264      11.265      11.415      11.483      11.415      11.265      11.264    
  11.871      13.723      17.507      23.888      35.653      55.805      83.922      117.26      153.31      190.37    
  225.20      251.27      233.83      224.51      199.86      167.21      133.15      101.06      72.397      48.886    
  32.316      22.587      16.961      13.536      11.866      11.377      11.493      11.741      11.850      11.741    
  11.493      11.377      11.866      13.536      16.961      22.587      32.316      48.886      72.397      101.06    
  133.15      167.21      199.86      224.51      197.22      188.70      166.24      136.87      107.12      80.406    
  57.890      40.300      28.249      21.027      16.403      13.542      12.179      11.889      12.171      12.554    
  12.717      12.554      12.171      11.889      12.179      13.542      16.403      21.027      28.249      40.300    
  57.890      80.406      107.12      136.87      166.24      188.70      158.17      150.76      131.30      106.22    
  81.613      60.759      44.442      32.541      24.679      19.691      16.202      14.088      13.186      13.201    
  13.715      14.261      14.486      14.261      13.715      13.201      13.186      14.088      16.202      19.691    
  24.679      32.541      44.442      60.759      81.613      106.22      131.30      150.76      120.35      114.40    
  98.842      79.054      60.221      45.128      34.222      26.879      22.172      18.893      16.648      15.455    
  15.215      15.711      16.574      17.347      17.653      17.347      16.574      15.711      15.215      15.455    
  16.648      18.893      22.172      26.879      34.222      45.128      60.221      79.054      98.842      114.40    
  85.777      81.536      70.510      56.657      43.816      34.012      27.424      23.304      20.629      18.812    
  17.864      17.757      18.411      19.678      21.201      22.443      22.922      22.443      21.201      19.678    
  18.411      17.757      17.864      18.812      20.629      23.304      27.424      34.012      43.816      56.657    
  70.510      81.536      56.966      54.400      47.766      39.540      32.101      26.655      23.207      21.121    
  19.887      19.461      19.810      20.979      23.012      25.701      28.502      30.648      31.455      30.648    
  28.502      25.701      23.012      20.979      19.810      19.461      19.887      21.121      23.207      26.655    
  32.101      39.540      47.766      54.400      36.432      35.163      31.904      27.926      24.422      21.958    
  20.463      19.791      19.910      20.781      22.546      25.389      29.287      33.866      38.333      41.639    
  42.864      41.639      38.333      33.866      29.287      25.389      22.546      20.781      19.910      19.791    
  20.463      21.958      24.422      27.926      31.904      35.163      24.378      23.851      22.506      20.885    
  19.493      18.661      18.574      19.257      20.658      22.934      26.348      31.002      36.753      43.079    
  49.019      53.326      54.908      53.326      49.019      43.079      36.753      31.002      26.348      22.934    
  20.658      19.257      18.574      18.661      19.493      20.885      22.506      23.851      17.782      17.532    
  16.912      16.261      15.974      16.354      17.535      19.488      22.290      26.231      31.392      37.653    
  44.718      52.039      58.694      63.450      65.189      63.450      58.694      52.039      44.718      37.653    
  31.392      26.231      22.290      19.488      17.535      16.354      15.974      16.261      16.912      17.532    
  13.748      13.620      13.356      13.269      13.734      15.041      17.309      20.538      25.047      30.946    
  37.926      45.487      53.184      60.606      67.116      71.721      73.402      71.721      67.116      60.606    
  53.184      45.487      37.926      30.946      25.047      20.538      17.309      15.041      13.734      13.269    
  13.356      13.620      11.577      11.511      11.436      11.675      12.630      14.636      17.834      22.482    