unknown system                          
   1.00000000000000     
     3.635000    0.000000    0.000000
     0.000000    3.635000    0.000000
     0.000000    0.000000    3.635000
   Pd   Ir   Pt   Cu
     1     1     1     1
Direct
  0.000000  0.000000  0.000000
  0.500000  0.500000  0.000000
  0.500000  0.000000  0.500000
  0.000000  0.500000  0.500000
 
   32   32   32
 0.31407266460E+03 0.30107705169E+03 0.26713064538E+03 0.22328748731E+03 0.17875911998E+03
 0.13712227218E+03 0.98953546829E+02 0.65983493767E+02 0.41381311607E+02 0.26514579741E+02
 0.18747584976E+02 0.14218757497E+02 0.11922763467E+02 0.11108710632E+02 0.11033502134E+02
 0.11154799272E+02 0.11214768819E+02 0.11154799272E+02 0.11033502134E+02 0.11108710632E+02
 0.11922763467E+02 0.14218757497E+02 0.18747584976E+02 0.26514579741E+02 0.41381311607E+02
 0.65983493767E+02 0.98953546829E+02 0.13712227218E+03 0.17875911998E+03 0.22328748731E+03
 0.26713064538E+03 0.30107705169E+03 0.30054374725E+03 0.28791473227E+03 0.25494622336E+03
 0.21245724294E+03 0.16953329400E+03 0.12976224041E+03 0.93675383361E+02 0.62746132294E+02
 0.39769535192E+02 0.25876035269E+02 0.18483037240E+02 0.14093322411E+02 0.11867164159E+02
 0.11102065310E+02 0.11078309102E+02 0.11246101780E+02 0.11325439405E+02 0.11246101780E+02
 0.11078309102E+02 0.11102065310E+02 0.11867164159E+02 0.14093322411E+02 0.18483037240E+02
 0.25876035269E+02 0.39769535192E+02 0.62746132294E+02 0.93675383361E+02 0.12976224041E+03
 0.16953329400E+03 0.21245724294E+03 0.25494622336E+03 0.28791473227E+03 0.26516227297E+03
 0.25351161682E+03 0.22314712039E+03 0.18424742890E+03 0.14554973945E+03 0.11066772632E+03
 0.80018411415E+02 0.54405424468E+02 0.35647594305E+02 0.24262109759E+02 0.17832379955E+02
 0.13847162247E+02 0.11830992375E+02 0.11208277934E+02 0.11323902422E+02 0.11613571875E+02
 0.11743198364E+02 0.11613571875E+02 0.11323902422E+02 0.11208277934E+02 0.11830992375E+02
 0.13847162247E+02 0.17832379955E+02 0.24262109759E+02 0.35647594305E+02 0.54405424468E+02
 0.80018411415E+02 0.11066772632E+03 0.14554973945E+03 0.18424742890E+03 0.22314712039E+03
 0.25351161682E+03 0.21949302460E+03 0.20919402892E+03 0.18241010986E+03 0.14838493011E+03
 0.11530463557E+03 0.86769057509E+02 0.63057133700E+02 0.44150813957E+02 0.30662485832E+02
 0.22364791036E+02 0.17162885038E+02 0.13819698868E+02 0.12163248996E+02 0.11777165272E+02
 0.12095604224E+02 0.12548505758E+02 0.12743558068E+02 0.12548505758E+02 0.12095604224E+02
 0.11777165272E+02 0.12163248996E+02 0.13819698868E+02 0.17162885038E+02 0.22364791036E+02
 0.30662485832E+02 0.44150813957E+02 0.63057133700E+02 0.86769057509E+02 0.11530463557E+03
 0.14838493011E+03 0.18241010986E+03 0.20919402892E+03 0.17352826267E+03 0.16481395331E+03
 0.14220023056E+03 0.11372751142E+03 0.86745330871E+02 0.64673154032E+02 0.47662663505E+02
 0.35024473614E+02 0.26355811316E+02 0.20818680195E+02 0.16910790562E+02 0.14426352789E+02
 0.13313824960E+02 0.13294558994E+02 0.13889825981E+02 0.14538606434E+02 0.14807585384E+02
 0.14538606434E+02 0.13889825981E+02 0.13294558994E+02 0.13313824960E+02 0.14426352789E+02
 0.16910790562E+02 0.20818680195E+02 0.26355811316E+02 0.35024473614E+02 0.47662663505E+02
 0.64673154032E+02 0.86745330871E+02 0.11372751142E+03 0.14220023056E+03 0.16481395331E+03
 0.13156052380E+03 0.12465444832E+03 0.10677074991E+03 0.84436724653E+02 0.63760909979E+02
 0.47692225613E+02 0.36279937693E+02 0.28515063903E+02 0.23437318618E+02 0.19933444351E+02
 0.17412010105E+02 0.15998616999E+02 0.15671983924E+02 0.16228969114E+02 0.17243589901E+02
 0.18166284310E+02 0.18534152929E+02 0.18166284310E+02 0.17243589901E+02 0.16228969114E+02
 0.15671983924E+02 0.15998616999E+02 0.17412010105E+02 0.19933444351E+02 0.23437318618E+02
 0.28515063903E+02 0.36279937693E+02 0.47692225613E+02 0.63760909979E+02 0.84436724653E+02
 0.10677074991E+03 0.12465444832E+03 0.94352939343E+02 0.89423834351E+02 0.76691367594E+02
 0.60913299134E+02 0.46592064065E+02 0.35928983055E+02 0.28901255233E+02 0.24539960344E+02
 0.21783733962E+02 0.19862599356E+02 0.18801363480E+02 0.18654659306E+02 0.19420769772E+02
 0.20975259443E+02 0.22872699216E+02 0.24432201687E+02 0.25034928404E+02 0.24432201687E+02
 0.22872699216E+02 0.20975259443E+02 0.19420769772E+02 0.18654659306E+02 0.18801363480E+02
 0.19862599356E+02 0.21783733962E+02 0.24539960344E+02 0.28901255233E+02 0.35928983055E+02
 0.46592064065E+02 0.60913299134E+02 0.76691367594E+02 0.89423834351E+02 0.63109222802E+02
 0.60085683362E+02 0.52304307667E+02 0.42749620070E+02 0.34242354198E+02 0.28147296628E+02
 0.24400010168E+02 0.22264007949E+02 0.21030378442E+02 0.20601863667E+02 0.21017801729E+02
 0.22450371547E+02 0.25002855771E+02 0.28431852629E+02 0.32036940137E+02 0.34813455220E+02
 0.35859821020E+02 0.34813455220E+02 0.32036940137E+02 0.28431852629E+02 0.25002855771E+02
 0.22450371547E+02 0.21017801729E+02 0.20601863667E+02 0.21030378442E+02 0.22264007949E+02
 0.24400010168E+02 0.28147296628E+02 0.34242354198E+02 0.42749620070E+02 0.52304307667E+02
 0.60085683362E+02 0.40114694448E+02 0.38590403551E+02 0.34691510826E+02 0.29971666438E+02
 0.25884506063E+02 0.23110130204E+02 0.21557925392E+02 0.20904752006E+02 0.21075728642E+02
 0.22081102842E+02 0.24197608962E+02 0.27712282563E+02 0.32662131252E+02 0.38597311227E+02
 0.44470655630E+02 0.48854297302E+02 0.50484491168E+02 0.48854297302E+02 0.44470655630E+02
 0.38597311227E+02 0.32662131252E+02 0.27712282563E+02 0.24197608962E+02 0.22081102842E+02
 0.21075728642E+02 0.20904752006E+02 0.21557925392E+02 0.23110130204E+02 0.25884506063E+02
 0.29971666438E+02 0.34691510826E+02 0.38590403551E+02 0.26145289018E+02 0.25513847388E+02
 0.23914404333E+02 0.22026472623E+02 0.20482910465E+02 0.19605320864E+02 0.19551090644E+02
 0.20326177500E+02 0.21888965628E+02 0.24508578702E+02 0.28551219251E+02 0.34263035704E+02
 0.41590334315E+02 0.49917796468E+02 0.57923503083E+02 0.63814730037E+02 0.65993383876E+02
 0.63814730037E+02 0.57923503083E+02 0.49917796468E+02 0.41590334315E+02 0.34263035704E+02
 0.28551219251E+02 0.24508578702E+02 0.21888965628E+02 0.20326177500E+02 0.19551090644E+02
 0.19605320864E+02 0.20482910465E+02 0.22026472623E+02 0.23914404333E+02 0.25513847388E+02
 0.18631469378E+02 0.18349244061E+02 0.17652211379E+02 0.16922375227E+02 0.16607777066E+02
 0.17046547107E+02 0.18371547923E+02 0.20530560623E+02 0.23672960042E+02 0.28126452200E+02
 0.34085225653E+02 0.41625641951E+02 0.50615901551E+02 0.60439833100E+02 0.69736541661E+02
 0.76552220792E+02 0.79072975848E+02 0.76552220792E+02 0.69736541661E+02 0.60439833100E+02
 0.50615901551E+02 0.41625641951E+02 0.34085225653E+02 0.28126452200E+02 0.23672960042E+02
 0.20530560623E+02 0.18371547923E+02 0.17046547107E+02 0.16607777066E+02 0.16922375227E+02
 0.17652211379E+02 0.18349244061E+02 0.14072343972E+02 0.13929568525E+02 0.13637029706E+02
 0.13545344262E+02 0.14074049434E+02 0.15543916341E+02 0.18057199960E+02 0.21643976656E+02
 0.26639269975E+02 0.33117744306E+02 0.40874948214E+02 0.49677050977E+02 0.59362368111E+02
 0.69541314580E+02 0.79103046950E+02 0.86155544434E+02 0.88779746187E+02 0.86155544434E+02
 0.79103046950E+02 0.69541314580E+02 0.59362368111E+02 0.49677050977E+02 0.40874948214E+02
 0.33117744306E+02 0.26639269975E+02 0.21643976656E+02 0.18057199960E+02 0.15543916341E+02
 0.14074049434E+02 0.13545344262E+02 0.13637029706E+02 0.13929568525E+02 0.11562163088E+02
 0.11500432500E+02 0.11447571405E+02 0.11751997028E+02 0.12847979248E+02 0.15087898142E+02
 0.18608356923E+02 0.23748464687E+02 0.30842585663E+02 0.39551816431E+02 0.49093893753E+02
 0.58829865506E+02 0.68632466707E+02 0.78524996482E+02 0.87833249283E+02 0.94816050581E+02
 0.97446790302E+02 0.94816050581E+02 0.87833249283E+02 0.78524996482E+02 0.68632466707E+02
 0.58829865506E+02 0.49093893753E+02 0.39551816431E+02 0.30842585663E+02 0.23748464687E+02
 0.18608356923E+02 0.15087898142E+02 0.12847979248E+02 0.11751997028E+02 0.11447571405E+02
 0.11500432500E+02 0.10438902253E+02 0.10443725574E+02 0.10580372953E+02 0.11181387327E+02
 0.12690081983E+02 0.15504246249E+02 0.19915267914E+02 0.26651105308E+02 0.35970279466E+02
 0.47070931898E+02 0.58533201907E+02 0.69301029484E+02 0.79333353867E+02 0.89129692494E+02
 0.98449822947E+02 0.10560900090E+03 0.10834755240E+03 0.10560900090E+03 0.98449822947E+02
 0.89129692494E+02 0.79333353867E+02 0.69301029484E+02 0.58533201907E+02 0.47070931898E+02
 0.35970279466E+02 0.26651105308E+02 0.19915267914E+02 0.15504246249E+02 0.12690081983E+02
 0.11181387327E+02 0.10580372953E+02 0.10443725574E+02 0.10057161760E+02 0.10131797400E+02
 0.10457151649E+02 0.11324360786E+02 0.13160238198E+02 0.16397507443E+02 0.21574948701E+02
 0.29760947862E+02 0.41155765193E+02 0.54554270973E+02 0.67978245356E+02 0.80025875077E+02
 0.90759780020E+02 0.10108632872E+03 0.11105299205E+03 0.11885963366E+03 0.12187966212E+03
 0.11885963366E+03 0.11105299205E+03 0.10108632872E+03 0.90759780020E+02 0.80025875077E+02
 0.67978245356E+02 0.54554270973E+02 0.41155765193E+02 0.29760947862E+02 0.21574948701E+02
 0.16397507443E+02 0.13160238198E+02 0.11324360786E+02 0.10457151649E+02 0.10131797400E+02
 0.99570459984E+01 0.10091914867E+02 0.10576123879E+02 0.11654296388E+02 0.13724509812E+02
 0.17239479790E+02 0.22962184418E+02 0.32188806293E+02 0.45098000090E+02 0.60219247501E+02
 0.75202523983E+02 0.88425458114E+02 0.10003239840E+03 0.11118696396E+03 0.12206039865E+03
 0.13066067843E+03 0.13400459868E+03 0.13066067843E+03 0.12206039865E+03 0.11118696396E+03
 0.10003239840E+03 0.88425458114E+02 0.75202523983E+02 0.60219247501E+02 0.45098000090E+02
 0.32188806293E+02 0.22962184418E+02 0.17239479790E+02 0.13724509812E+02 0.11654296388E+02
 0.10576123879E+02 0.10091914867E+02 0.99365220356E+01 0.10095846949E+02 0.10644053714E+02
 0.11805386235E+02 0.13963899997E+02 0.17579083948E+02 0.23502095547E+02 0.33110408633E+02
 0.46579194532E+02 0.62346620753E+02 0.77933569293E+02 0.91642976791E+02 0.10364990477E+03
 0.11520367687E+03 0.12650284471E+03 0.13546259928E+03 0.13895048548E+03 0.13546259928E+03
 0.12650284471E+03 0.11520367687E+03 0.10364990477E+03 0.91642976791E+02 0.77933569293E+02
 0.62346620753E+02 0.46579194532E+02 0.33110408633E+02 0.23502095547E+02 0.17579083948E+02
 0.13963899997E+02 0.11805386235E+02 0.10644053714E+02 0.10095846949E+02 0.99570459984E+01
 0.10091914867E+02 0.10576123879E+02 0.11654296388E+02 0.13724509812E+02 0.17239479790E+02
 0.22962184418E+02 0.32188806293E+02 0.45098000090E+02 0.60219247501E+02 0.75202523983E+02
 0.88425458114E+02 0.10003239840E+03 0.11118696396E+03 0.12206039865E+03 0.13066067843E+03
 0.13400459868E+03 0.13066067843E+03 0.12206039865E+03 0.11118696396E+03 0.10003239840E+03
 0.88425458114E+02 0.75202523983E+02 0.60219247501E+02 0.45098000090E+02 0.32188806293E+02
 0.22962184418E+02 0.17239479790E+02 0.13724509812E+02 0.11654296388E+02 0.10576123879E+02
 0.10091914867E+02 0.10057161760E+02 0.10131797400E+02 0.10457151649E+02 0.11324360786E+02
 0.13160238198E+02 0.16397507443E+02 0.21574948701E+02 0.29760947862E+02 0.41155765193E+02
 0.54554270973E+02 0.67978245356E+02 0.80025875077E+02 0.90759780020E+02 0.10108632872E+03
 0.11105299205E+03 0.11885963366E+03 0.12187966212E+03 0.11885963366E+03 0.11105299205E+03
 0.10108632872E+03 0.90759780020E+02 0.80025875077E+02 0.67978245356E+02 0.54554270973E+02
 0.41155765193E+02 0.29760947862E+02 0.21574948701E+02 0.16397507443E+02 0.13160238198E+02
 0.11324360786E+02 0.10457151649E+02 0.10131797400E+02 0.10438902253E+02 0.10443725574E+02
 0.10580372953E+02 0.11181387327E+02 0.12690081983E+02 0.15504246249E+02 0.19915267914E+02
 0.26651105308E+02 0.35970279466E+02 0.47070931898E+02 0.58533201907E+02 0.69301029484E+02
 0.79333353867E+02 0.89129692494E+02 0.98449822947E+02 0.10560900090E+03 0.10834755240E+03
 0.10560900090E+03 0.98449822947E+02 0.89129692494E+02 0.79333353867E+02 0.69301029484E+02
 0.58533201907E+02 0.47070931898E+02 0.35970279466E+02 0.26651105308E+02 0.19915267914E+02
 0.15504246249E+02 0.12690081983E+02 0.11181387327E+02 0.10580372953E+02 0.10443725574E+02
 0.11562163088E+02 0.11500432500E+02 0.11447571405E+02 0.11751997028E+02 0.12847979248E+02
 0.15087898142E+02 0.18608356923E+02 0.23748464687E+02 0.30842585663E+02 0.39551816431E+02
 0.49093893753E+02 0.58829865506E+02 0.68632466707E+02 0.78524996482E+02 0.87833249283E+02
 0.94816050581E+02 0.97446790302E+02 0.94816050581E+02 0.87833249283E+02 0.78524996482E+02
 0.68632466707E+02 0.58829865506E+02 0.49093893753E+02 0.39551816431E+02 0.30842585663E+02
 0.23748464687E+02 0.18608356923E+02 0.15087898142E+02 0.12847979248E+02 0.11751997028E+02
 0.11447571405E+02 0.11500432500E+02 0.14072343972E+02 0.13929568525E+02 0.13637029706E+02
 0.13545344262E+02 0.14074049434E+02 0.15543916341E+02 0.18057199960E+02 0.21643976656E+02
 0.26639269975E+02 0.33117744306E+02 0.40874948214E+02 0.49677050977E+02 0.59362368111E+02
 0.69541314580E+02 0.79103046950E+02 0.86155544434E+02 0.88779746187E+02 0.86155544434E+02
 0.79103046950E+02 0.69541314580E+02 0.59362368111E+02 0.49677050977E+02 0.40874948214E+02
 0.33117744306E+02 0.26639269975E+02 0.21643976656E+02 0.18057199960E+02 0.15543916341E+02
 0.14074049434E+02 0.13545344262E+02 0.13637029706E+02 0.13929568525E+02 0.18631469378E+02
 0.18349244061E+02 0.17652211379E+02 0.16922375227E+02 0.16607777066E+02 0.17046547107E+02
 0.18371547923E+02 0.20530560623E+02 0.23672960042E+02 0.28126452200E+02 0.34085225653E+02
 0.41625641951E+02 0.50615901551E+02 0.60439833100E+02 0.69736541661E+02 0.76552220792E+02
 0.79072975848E+02 0.76552220792E+02 0.69736541661E+02 0.60439833100E+02 0.50615901551E+02
 0.41625641951E+02 0.34085225653E+02 0.28126452200E+02 0.23672960042E+02 0.20530560623E+02
 0.18371547923E+02 0.17046547107E+02 0.16607777066E+02 0.16922375227E+02 0.17652211379E+02
 0.18349244061E+02 0.26145289018E+02 0.25513847388E+02 0.23914404333E+02 0.22026472623E+02
 0.20482910465E+02 0.19605320864E+02 0.19551090644E+02 0.20326177500E+02 0.21888965628E+02
 0.24508578702E+02 0.28551219251E+02 0.34263035704E+02 0.41590334315E+02 0.49917796468E+02
 0.57923503083E+02 0.63814730037E+02 0.65993383876E+02 0.63814730037E+02 0.57923503083E+02
 0.49917796468E+02 0.41590334315E+02 0.34263035704E+02 0.28551219251E+02 0.24508578702E+02
 0.21888965628E+02 0.20326177500E+02 0.19551090644E+02 0.19605320864E+02 0.20482910465E+02
 0.22026472623E+02 0.23914404333E+02 0.25513847388E+02 0.40114694448E+02 0.38590403551E+02
 0.34691510826E+02 0.29971666438E+02 0.25884506063E+02 0.23110130204E+02 0.21557925392E+02
 0.20904752006E+02 0.21075728642E+02 0.22081102842E+02 0.24197608962E+02 0.27712282563E+02
 0.32662131252E+02 0.38597311227E+02 0.44470655630E+02 0.48854297302E+02 0.50484491168E+02
 0.48854297302E+02 0.44470655630E+02 0.38597311227E+02 0.32662131252E+02 0.27712282563E+02
 0.24197608962E+02 0.22081102842E+02 0.21075728642E+02 0.20904752006E+02 0.21557925392E+02
 0.23110130204E+02 0.25884506063E+02 0.29971666438E+02 0.34691510826E+02 0.38590403551E+02
 0.63109222802E+02 0.60085683362E+02 0.52304307667E+02 0.42749620070E+02 0.34242354198E+02
 0.28147296628E+02 0.24400010168E+02 0.22264007949E+02 0.21030378442E+02 0.20601863667E+02
 0.21017801729E+02 0.22450371547E+02 0.25002855771E+02 0.28431852629E+02 0.32036940137E+02
 0.34813455220E+02 0.35859821020E+02 0.34813455220E+02 0.32036940137E+02 0.28431852629E+02
 0.25002855771E+02 0.22450371547E+02 0.21017801729E+02 0.20601863667E+02 0.21030378442E+02
 0.22264007949E+02 0.24400010168E+02 0.28147296628E+02 0.34242354198E+02 0.42749620070E+02
 0.52304307667E+02 0.60085683362E+02 0.94352939343E+02 0.89423834351E+02 0.76691367594E+02
 0.60913299134E+02 0.46592064065E+02 0.35928983055E+02 0.28901255233E+02 0.24539960344E+02
 0.21783733962E+02 0.19862599356E+02 0.18801363480E+02 0.18654659306E+02 0.19420769772E+02
 0.20975259443E+02 0.22872699216E+02 0.24432201687E+02 0.25034928404E+02 0.24432201687E+02
 0.22872699216E+02 0.20975259443E+02 0.19420769772E+02 0.18654659306E+02 0.18801363480E+02
 0.19862599356E+02 0.21783733962E+02 0.24539960344E+02 0.28901255233E+02 0.35928983055E+02
 0.46592064065E+02 0.60913299134E+02 0.76691367594E+02 0.89423834351E+02 0.13156052380E+03
 0.12465444832E+03 0.10677074991E+03 0.84436724653E+02 0.63760909979E+02 0.47692225613E+02
 0.36279937693E+02 0.28515063903E+02 0.23437318618E+02 0.19933444351E+02 0.17412010105E+02
 0.15998616999E+02 0.15671983924E+02 0.16228969114E+02 0.17243589901E+02 0.18166284310E+02
 0.18534152929E+02 0.18166284310E+02 0.17243589901E+02 0.16228969114E+02 0.15671983924E+02
 0.15998616999E+02 0.17412010105E+02 0.19933444351E+02 0.23437318618E+02 0.28515063903E+02
 0.36279937693E+02 0.47692225613E+02 0.63760909979E+02 0.84436724653E+02 0.10677074991E+03
 0.12465444832E+03 0.17352826267E+03 0.16481395331E+03 0.14220023056E+03 0.11372751142E+03
 0.86745330871E+02 0.64673154032E+02 0.47662663505E+02 0.35024473614E+02 0.26355811316E+02
 0.20818680195E+02 0.16910790562E+02 0.14426352789E+02 0.13313824960E+02 0.13294558994E+02
 0.13889825981E+02 0.14538606434E+02 0.14807585384E+02 0.14538606434E+02 0.13889825981E+02
 0.13294558994E+02 0.13313824960E+02 0.14426352789E+02 0.16910790562E+02 0.20818680195E+02
 0.26355811316E+02 0.35024473614E+02 0.47662663505E+02 0.64673154032E+02 0.86745330871E+02
 0.11372751142E+03 0.14220023056E+03 0.16481395331E+03 0.21949302460E+03 0.20919402892E+03
 0.18241010986E+03 0.14838493011E+03 0.11530463557E+03 0.86769057509E+02 0.63057133700E+02
 0.44150813957E+02 0.30662485832E+02 0.22364791036E+02 0.17162885038E+02 0.13819698868E+02
 0.12163248996E+02 0.11777165272E+02 0.12095604224E+02 0.12548505758E+02 0.12743558068E+02
 0.12548505758E+02 0.12095604224E+02 0.11777165272E+02 0.12163248996E+02 0.13819698868E+02
 0.17162885038E+02 0.22364791036E+02 0.30662485832E+02 0.44150813957E+02 0.63057133700E+02
 0.86769057509E+02 0.11530463557E+03 0.14838493011E+03 0.18241010986E+03 0.20919402892E+03
 0.26516227297E+03 0.25351161682E+03 0.22314712039E+03 0.18424742890E+03 0.14554973945E+03
 0.11066772632E+03 0.80018411415E+02 0.54405424468E+02 0.35647594305E+02 0.24262109759E+02
 0.17832379955E+02 0.13847162247E+02 0.11830992375E+02 0.11208277934E+02 0.11323902422E+02
 0.11613571875E+02 0.11743198364E+02 0.11613571875E+02 0.11323902422E+02 0.11208277934E+02
 0.11830992375E+02 0.13847162247E+02 0.17832379955E+02 0.24262109759E+02 0.35647594305E+02
 0.54405424468E+02 0.80018411415E+02 0.11066772632E+03 0.14554973945E+03 0.18424742890E+03
 0.22314712039E+03 0.25351161682E+03 0.30054374725E+03 0.28791473227E+03 0.25494622336E+03
 0.21245724294E+03 0.16953329400E+03 0.12976224041E+03 0.93675383361E+02 0.62746132294E+02
 0.39769535192E+02 0.25876035269E+02 0.18483037240E+02 0.14093322411E+02 0.11867164159E+02
 0.11102065310E+02 0.11078309102E+02 0.11246101780E+02 0.11325439405E+02 0.11246101780E+02
 0.11078309102E+02 0.11102065310E+02 0.11867164159E+02 0.14093322411E+02 0.18483037240E+02
 0.25876035269E+02 0.39769535192E+02 0.62746132294E+02 0.93675383361E+02 0.12976224041E+03
 0.16953329400E+03 0.21245724294E+03 0.25494622336E+03 0.28791473227E+03 0.30250729521E+03
 0.29036213704E+03 0.25850543245E+03 0.21698416770E+03 0.17422190562E+03 0.13367050697E+03
 0.96256742134E+02 0.64039949946E+02 0.40210015201E+02 0.25945844941E+02 0.18475342433E+02
 0.14106388099E+02 0.11908856167E+02 0.11135538492E+02 0.11066310851E+02 0.11182357787E+02
 0.11239358952E+02 0.11182357787E+02 0.11066310851E+02 0.11135538492E+02 0.11908856167E+02
 0.14106388099E+02 0.18475342433E+02 0.25945844941E+02 0.40210015201E+02 0.64039949946E+02
 0.96256742134E+02 0.13367050697E+03 0.17422190562E+03 0.21698416770E+03 0.25850543245E+03
 0.29036213704E+03 0.28991347794E+03 0.27807987986E+03 0.24706144473E+03 0.20672696820E+03
 0.16542203860E+03 0.12662445860E+03 0.91204731582E+02 0.60952081493E+02 0.38681527277E+02
 0.25342284356E+02 0.18221985297E+02 0.13988367898E+02 0.11858498666E+02 0.11132183405E+02
 0.11111995581E+02 0.11272261720E+02 0.11347675509E+02 0.11272261720E+02 0.11111995581E+02
 0.11132183405E+02 0.11858498666E+02 0.13988367898E+02 0.18221985297E+02 0.25342284356E+02
 0.38681527277E+02 0.60952081493E+02 0.91204731582E+02 0.12662445860E+03 0.16542203860E+03
 0.20672696820E+03 0.24706144473E+03 0.27807987986E+03 0.25683425670E+03 0.24584006048E+03
 0.21707505446E+03 0.17991461935E+03 0.14247802224E+03 0.10830248831E+03 0.78111146554E+02
 0.52987606309E+02 0.34769533158E+02 0.23814442079E+02 0.17599055335E+02 0.13758392067E+02
 0.11831495157E+02 0.11241756655E+02 0.11354484699E+02 0.11630773031E+02 0.11754046734E+02
 0.11630773031E+02 0.11354484699E+02 0.11241756655E+02 0.11831495157E+02 0.13758392067E+02
 0.17599055335E+02 0.23814442079E+02 0.34769533158E+02 0.52987606309E+02 0.78111146554E+02
 0.10830248831E+03 0.14247802224E+03 0.17991461935E+03 0.21707505446E+03 0.24584006048E+03
 0.21372524394E+03 0.20391832383E+03 0.17832431146E+03 0.14556675511E+03 0.11336010462E+03
 0.85257773564E+02 0.61791281944E+02 0.43171526199E+02 0.30029485568E+02 0.22010561858E+02
 0.16958852461E+02 0.13740282632E+02 0.12159790102E+02 0.11796699276E+02 0.12103097195E+02
 0.12535150394E+02 0.12720857588E+02 0.12535150394E+02 0.12103097195E+02 0.11796699276E+02
 0.12159790102E+02 0.13740282632E+02 0.16958852461E+02 0.22010561858E+02 0.30029485568E+02
 0.43171526199E+02 0.61791281944E+02 0.85257773564E+02 0.11336010462E+03 0.14556675511E+03
 0.17832431146E+03 0.20391832383E+03 0.16968144674E+03 0.16131919587E+03 0.13955401364E+03
 0.11197597124E+03 0.85590914486E+02 0.63783966177E+02 0.46892679823E+02 0.34399173057E+02
 0.25918852219E+02 0.20523418012E+02 0.16720049797E+02 0.14330928833E+02 0.13272360339E+02
 0.13260123675E+02 0.13831259215E+02 0.14450811898E+02 0.14707326489E+02 0.14450811898E+02
 0.13831259215E+02 0.13260123675E+02 0.13272360339E+02 0.14330928833E+02 0.16720049797E+02
 0.20523418012E+02 0.25918852219E+02 0.34399173057E+02 0.46892679823E+02 0.63783966177E+02
 0.85590914486E+02 0.11197597124E+03 0.13955401364E+03 0.16131919587E+03 0.12880884734E+03
 0.12215466914E+03 0.10488220434E+03 0.83202865200E+02 0.62977349435E+02 0.47117535801E+02
 0.35790922970E+02 0.28103567851E+02 0.23109895681E+02 0.19659359936E+02 0.17205865937E+02
 0.15848304489E+02 0.15542101142E+02 0.16080346050E+02 0.17052122859E+02 0.17932230199E+02
 0.18282509418E+02 0.17932230199E+02 0.17052122859E+02 0.16080346050E+02 0.15542101142E+02
 0.15848304489E+02 0.17205865937E+02 0.19659359936E+02 0.23109895681E+02 0.28103567851E+02
 0.35790922970E+02 0.47117535801E+02 0.62977349435E+02 0.83202865200E+02 0.10488220434E+03
 0.12215466914E+03 0.92232150133E+02 0.87482581805E+02 0.75192182193E+02 0.59904803444E+02
 0.45947235143E+02 0.35479350085E+02 0.28540040838E+02 0.24225721341E+02 0.21484668008E+02
 0.19583837757E+02 0.18548588432E+02 0.18409022678E+02 0.19139664257E+02 0.20611103206E+02
 0.22402091950E+02 0.23872297172E+02 0.24440250132E+02 0.23872297172E+02 0.22402091950E+02
 0.20611103206E+02 0.19139664257E+02 0.18409022678E+02 0.18548588432E+02 0.19583837757E+02
 0.21484668008E+02 0.24225721341E+02 0.28540040838E+02 0.35479350085E+02 0.45947235143E+02
 0.59904803444E+02 0.75192182193E+02 0.87482581805E+02 0.61552180583E+02 0.58647938641E+02
 0.51164387541E+02 0.41951141273E+02 0.33712751502E+02 0.27775461222E+02 0.24097614878E+02
 0.21970676607E+02 0.20730485062E+02 0.20298038821E+02 0.20691066016E+02 0.22046099268E+02
 0.24450322955E+02 0.27670234847E+02 0.31049187425E+02 0.33648945839E+02 0.34628286585E+02
 0.33648945839E+02 0.31049187425E+02 0.27670234847E+02 0.24450322955E+02 0.22046099268E+02
 0.20691066016E+02 0.20298038821E+02 0.20730485062E+02 0.21970676607E+02 0.24097614878E+02
 0.27775461222E+02 0.33712751502E+02 0.41951141273E+02 0.51164387541E+02 0.58647938641E+02
 0.39155344637E+02 0.37698244499E+02 0.33967784898E+02 0.29442257302E+02 0.25507369839E+02
 0.22814017642E+02 0.21275512985E+02 0.20613278162E+02 0.20767605405E+02 0.21732834658E+02
 0.23749361528E+02 0.27074519446E+02 0.31728523180E+02 0.37282760077E+02 0.42761831760E+02
 0.46843617286E+02 0.48360271699E+02 0.46843617286E+02 0.42761831760E+02 0.37282760077E+02
 0.31728523180E+02 0.27074519446E+02 0.23749361528E+02 0.21732834658E+02 0.20767605405E+02
 0.20613278162E+02 0.21275512985E+02 0.22814017642E+02 0.25507369839E+02 0.29442257302E+02
 0.33967784898E+02 0.37698244499E+02 0.25677751426E+02 0.25074488571E+02 0.23543828460E+02
 0.21728762998E+02 0.20227126598E+02 0.19359117864E+02 0.19294499281E+02 0.20044088893E+02
 0.21561617567E+02 0.24086684571E+02 0.27955249479E+02 0.33371833966E+02 0.40256758255E+02
 0.48021920099E+02 0.55446792438E+02 0.60892655039E+02 0.62903543240E+02 0.60892655039E+02
 0.55446792438E+02 0.48021920099E+02 0.40256758255E+02 0.33371833966E+02 0.27955249479E+02
 0.24086684571E+02 0.21561617567E+02 0.20044088893E+02 0.19294499281E+02 0.19359117864E+02
 0.20227126598E+02 0.21728762998E+02 0.23543828460E+02 0.25074488571E+02 0.18414545752E+02
 0.18140158542E+02 0.17462231759E+02 0.16751350608E+02 0.16442176568E+02 0.16864035386E+02
 0.18150389231E+02 0.20254360799E+02 0.23306345679E+02 0.27623228513E+02 0.33364673222E+02
 0.40548618317E+02 0.48996607238E+02 0.58113024837E+02 0.66661862937E+02 0.72894890111E+02
 0.75194402481E+02 0.72894890111E+02 0.66661862937E+02 0.58113024837E+02 0.48996607238E+02
 0.40548618317E+02 0.33364673222E+02 0.27623228513E+02 0.23306345679E+02 0.20254360799E+02
 0.18150389231E+02 0.16864035386E+02 0.16442176568E+02 0.16751350608E+02 0.17462231759E+02
 0.18140158542E+02 0.13997337616E+02 0.13857575159E+02 0.13570490545E+02 0.13477266022E+02
 0.13986250605E+02 0.15411622313E+02 0.17860003817E+02 0.21352017368E+02 0.26222486848E+02
 0.32552145536E+02 0.40101583527E+02 0.48557447919E+02 0.57676936903E+02 0.67067681709E+02
 0.75757007398E+02 0.82110471165E+02 0.84465717071E+02 0.82110471165E+02 0.75757007398E+02
 0.67067681709E+02 0.57676936903E+02 0.48557447919E+02 0.40101583527E+02 0.32552145536E+02
 0.26222486848E+02 0.21352017368E+02 0.17860003817E+02 0.15411622312E+02 0.13986250605E+02
 0.13477266022E+02 0.13570490545E+02 0.13857575159E+02 0.11584534284E+02 0.11520171604E+02
 0.11457496217E+02 0.11739553082E+02 0.12793779672E+02 0.14969317362E+02 0.18403866378E+02
 0.23417399776E+02 0.30373995887E+02 0.38959285016E+02 0.48359111422E+02 0.57829593608E+02
 0.67115363749E+02 0.76198936129E+02 0.84549052768E+02 0.90735242879E+02 0.93054437619E+02
 0.90735242879E+02 0.84549052768E+02 0.76198936129E+02 0.67115363749E+02 0.57829593608E+02
 0.48359111422E+02 0.38959285016E+02 0.30373995887E+02 0.23417399776E+02 0.18403866378E+02
 0.14969317362E+02 0.12793779672E+02 0.11739553082E+02 0.11457496217E+02 0.11520171604E+02
 0.10514922233E+02 0.10509892279E+02 0.10618053607E+02 0.11173839158E+02 0.12621310843E+02
 0.15359896199E+02 0.19669166426E+02 0.26263403835E+02 0.35454432222E+02 0.46485074843E+02
 0.57907300072E+02 0.68531752732E+02 0.78135725885E+02 0.87133037988E+02 0.95427955624E+02
 0.10170130547E+03 0.10408783150E+03 0.10170130547E+03 0.95427955624E+02 0.87133037988E+02
 0.78135725885E+02 0.68531752732E+02 0.57907300072E+02 0.46485074843E+02 0.35454432222E+02
 0.26263403835E+02 0.19669166426E+02 0.15359896199E+02 0.12621310843E+02 0.11173839158E+02
 0.10618053607E+02 0.10509892279E+02 0.10158750020E+02 0.10215460936E+02 0.10491907206E+02
 0.11290315939E+02 0.13047796582E+02 0.16204312285E+02 0.21269974744E+02 0.29312570560E+02
 0.40601254373E+02 0.53992705526E+02 0.67482732255E+02 0.79508880689E+02 0.89901843689E+02
 0.99440812515E+02 0.10832016566E+03 0.11515757032E+03 0.11778767362E+03 0.11515757032E+03
 0.10832016566E+03 0.99440812515E+02 0.89901843689E+02 0.79508880689E+02 0.67482732255E+02
 0.53992705526E+02 0.40601254373E+02 0.29312570560E+02 0.21269974744E+02 0.16204312285E+02
 0.13047796582E+02 0.11290315939E+02 0.10491907206E+02 0.10215460936E+02 0.10070423921E+02
 0.10180757605E+02 0.10599461716E+02 0.11590102416E+02 0.13569202164E+02 0.17000169715E+02
 0.22606801458E+02 0.31693619460E+02 0.44517501455E+02 0.59680779204E+02 0.74807966768E+02
 0.88095766623E+02 0.99420596115E+02 0.10979009643E+03 0.11952576862E+03 0.12709258393E+03
 0.13001777397E+03 0.12709258393E+03 0.11952576862E+03 0.10979009643E+03 0.99420596115E+02
 0.88095766623E+02 0.74807966768E+02 0.59680779204E+02 0.44517501455E+02 0.31693619460E+02
 0.22606801458E+02 0.17000169715E+02 0.13569202164E+02 0.11590102416E+02 0.10599461716E+02
 0.10180757605E+02 0.10053635631E+02 0.10185848187E+02 0.10662093014E+02 0.11728652423E+02
 0.13791242840E+02 0.17321122253E+02 0.23127027076E+02 0.32597614672E+02 0.45989432419E+02
 0.61817258702E+02 0.77576454485E+02 0.91381487141E+02 0.10312639811E+03 0.11389428405E+03
 0.12403558600E+03 0.13193721594E+03 0.13499541691E+03 0.13193721594E+03 0.12403558600E+03
 0.11389428405E+03 0.10312639811E+03 0.91381487141E+02 0.77576454485E+02 0.61817258702E+02
 0.45989432419E+02 0.32597614672E+02 0.23127027076E+02 0.17321122253E+02 0.13791242840E+02
 0.11728652423E+02 0.10662093014E+02 0.10185848187E+02 0.10070423921E+02 0.10180757605E+02
 0.10599461716E+02 0.11590102416E+02 0.13569202164E+02 0.17000169715E+02 0.22606801458E+02
 0.31693619460E+02 0.44517501455E+02 0.59680779204E+02 0.74807966768E+02 0.88095766623E+02
 0.99420596115E+02 0.10979009643E+03 0.11952576862E+03 0.12709258393E+03 0.13001777397E+03
 0.12709258393E+03 0.11952576862E+03 0.10979009643E+03 0.99420596115E+02 0.88095766623E+02
 0.74807966768E+02 0.59680779204E+02 0.44517501455E+02 0.31693619460E+02 0.22606801458E+02
 0.17000169715E+02 0.13569202164E+02 0.11590102416E+02 0.10599461716E+02 0.10180757605E+02
 0.10158750020E+02 0.10215460936E+02 0.10491907206E+02 0.11290315939E+02 0.13047796582E+02
 0.16204312285E+02 0.21269974744E+02 0.29312570560E+02 0.40601254373E+02 0.53992705526E+02
 0.67482732255E+02 0.79508880689E+02 0.89901843689E+02 0.99440812515E+02 0.10832016566E+03
 0.11515757032E+03 0.11778767362E+03 0.11515757032E+03 0.10832016566E+03 0.99440812515E+02
 0.89901843689E+02 0.79508880689E+02 0.67482732255E+02 0.53992705526E+02 0.40601254373E+02