   4   4   0   0
  0.1200752E+02  0.3635000E-09  0.3635000E-09  0.3635000E-09  0.5000000E-15
  1.000000000000000E-004
  CAR 
 unknown system                          
     27.89531083     -0.59092956  301     14.60164274      1.00000000
     -0.591  0.0000E+00  0.0000E+00
     -0.496  0.0000E+00  0.0000E+00
     -0.401  0.0000E+00  0.0000E+00
     -0.306  0.0000E+00  0.0000E+00
     -0.211 -0.1520E-26 -0.1444E-27
     -0.116 -0.2502E-23 -0.2377E-24
     -0.021 -0.2613E-20 -0.2483E-21
      0.074 -0.1731E-17 -0.1646E-18
      0.169 -0.7265E-15 -0.6915E-16
      0.264 -0.1872E-12 -0.1784E-13
      0.359 -0.3128E-10 -0.2988E-11
      0.454 -0.3291E-08 -0.3154E-09
      0.549 -0.2174E-06 -0.2096E-07
      0.643 -0.8968E-05 -0.8725E-06
      0.738 -0.2293E-03 -0.2264E-04
      0.833 -0.3581E-02 -0.3627E-03
      0.928 -0.3328E-01 -0.3523E-02
      1.023 -0.1733E+00 -0.1998E-01
      1.118 -0.4139E+00 -0.5928E-01
      1.213  0.1430E+00 -0.4570E-01
      1.308  0.3165E+01  0.2548E+00
      1.403  0.7317E+01  0.9496E+00
      1.498  0.7659E+01  0.1677E+01
      1.593  0.3713E+01  0.2029E+01
      1.688  0.3645E+00  0.2064E+01
      1.783 -0.4225E+00  0.2024E+01
      1.878 -0.2034E+00  0.2005E+01
      1.973 -0.4235E-01  0.2000E+01
      2.068 -0.4879E-02  0.2000E+01
      2.163 -0.3328E-03  0.2000E+01
      2.258 -0.1384E-04  0.2000E+01
      2.353 -0.3559E-06  0.2000E+01
      2.448 -0.5715E-08  0.2000E+01
      2.543 -0.5758E-10  0.2000E+01
      2.638 -0.7945E-12  0.2000E+01
      2.732 -0.6683E-10  0.2000E+01
      2.827 -0.6539E-08  0.2000E+01
      2.922 -0.4014E-06  0.2000E+01
      3.017 -0.1538E-04  0.2000E+01
      3.112 -0.3643E-03  0.2000E+01
      3.207 -0.5258E-02  0.1999E+01
      3.302 -0.4488E-01  0.1995E+01
      3.397 -0.2111E+00  0.1975E+01
      3.492 -0.4225E+00  0.1935E+01
      3.587  0.4260E+00  0.1975E+01
      3.682  0.3851E+01  0.2341E+01
      3.777  0.7731E+01  0.3075E+01
      3.872  0.7222E+01  0.3761E+01
      3.967  0.3033E+01  0.4049E+01
      4.062  0.9520E-01  0.4058E+01
      4.157 -0.4100E+00  0.4019E+01
      4.252 -0.1663E+00  0.4003E+01
      4.347 -0.3135E-01  0.4000E+01
      4.442 -0.3923E-02  0.4000E+01
      4.537 -0.8235E-02  0.3999E+01
      4.632 -0.6204E-01  0.3993E+01
      4.727 -0.2583E+00  0.3969E+01
      4.821 -0.4033E+00  0.3930E+01
      4.916  0.8367E+00  0.4010E+01
      5.011  0.4656E+01  0.4452E+01
      5.106  0.8035E+01  0.5215E+01
      5.201  0.6482E+01  0.5830E+01
      5.296  0.1894E+01  0.6010E+01
      5.391 -0.6135E+00  0.5952E+01
      5.486  0.1133E+01  0.6060E+01
      5.581  0.6729E+01  0.6699E+01
      5.676  0.1231E+02  0.7868E+01
      5.771  0.1311E+02  0.9113E+01
      5.866  0.1040E+02  0.1010E+02
      5.961  0.8662E+01  0.1092E+02
      6.056  0.7921E+01  0.1167E+02
      6.151  0.7594E+01  0.1240E+02
      6.246  0.8180E+01  0.1317E+02
      6.341  0.6662E+01  0.1381E+02
      6.436  0.2658E+01  0.1406E+02
      6.531 -0.5904E-02  0.1406E+02
      6.626 -0.4105E+00  0.1402E+02
      6.721 -0.1588E+00  0.1400E+02
      6.815 -0.2918E-01  0.1400E+02
      6.910 -0.3026E-02  0.1400E+02
      7.005 -0.1873E-03  0.1400E+02
      7.100 -0.7094E-05  0.1400E+02
      7.195 -0.1666E-06  0.1400E+02
      7.290 -0.2444E-08  0.1400E+02
      7.385 -0.2251E-10  0.1400E+02
      7.480 -0.1310E-12  0.1400E+02
      7.575  0.0000E+00  0.1400E+02
      7.670  0.0000E+00  0.1400E+02
      7.765  0.0000E+00  0.1400E+02
      7.860  0.0000E+00  0.1400E+02
      7.955  0.0000E+00  0.1400E+02
      8.050  0.0000E+00  0.1400E+02
      8.145 -0.4547E-27  0.1400E+02
      8.240 -0.8037E-24  0.1400E+02
      8.335 -0.9018E-21  0.1400E+02
      8.430 -0.6418E-18  0.1400E+02
      8.525 -0.2895E-15  0.1400E+02
      8.620 -0.8032E-13  0.1400E+02
      8.715 -0.1441E-10  0.1400E+02
      8.810 -0.1631E-08  0.1400E+02
      8.904 -0.1159E-06  0.1400E+02
      8.999 -0.5154E-05  0.1400E+02
      9.094 -0.1422E-03  0.1400E+02
      9.189 -0.2403E-02  0.1400E+02
      9.284 -0.2431E-01  0.1400E+02
      9.379 -0.1398E+00  0.1398E+02
      9.474 -0.3919E+00  0.1395E+02
      9.569 -0.1071E+00  0.1394E+02
      9.664  0.2325E+01  0.1416E+02
      9.759  0.6243E+01  0.1475E+02
      9.854  0.7658E+01  0.1548E+02
      9.949  0.7344E+01  0.1617E+02
     10.044  0.1048E+02  0.1717E+02
     10.139  0.1422E+02  0.1852E+02
     10.234  0.1161E+02  0.1962E+02
     10.329  0.4724E+01  0.2007E+02
     10.424  0.2270E+00  0.2009E+02
     10.519 -0.6310E+00  0.2003E+02
     10.614 -0.2847E+00  0.2001E+02
     10.709 -0.5988E-01  0.2000E+02
     10.804 -0.7140E-02  0.2000E+02
     10.899 -0.5103E-03  0.2000E+02
     10.993 -0.2238E-04  0.2000E+02
     11.088 -0.6105E-06  0.2000E+02
     11.183 -0.8532E-07  0.2000E+02
     11.278 -0.3748E-05  0.2000E+02
     11.373 -0.1169E-03  0.2000E+02
     11.468 -0.2251E-02  0.2000E+02
     11.563 -0.2622E-01  0.2000E+02
     11.658 -0.1775E+00  0.1998E+02
     11.753 -0.6266E+00  0.1992E+02
     11.848 -0.6322E+00  0.1986E+02
     11.943  0.2880E+01  0.2013E+02
     12.038  0.1110E+02  0.2119E+02
     12.133  0.1632E+02  0.2274E+02
     12.228  0.1153E+02  0.2383E+02
     12.323  0.3206E+01  0.2414E+02
     12.418 -0.5725E+00  0.2408E+02
     12.513 -0.6531E+00  0.2402E+02
     12.608 -0.1934E+00  0.2400E+02
     12.703 -0.4090E-01  0.2400E+02
     12.798 -0.8453E-01  0.2399E+02
     12.893 -0.3032E+00  0.2396E+02
     12.988 -0.3490E+00  0.2393E+02
     13.082  0.1295E+01  0.2405E+02
     13.177  0.5381E+01  0.2456E+02
     13.272  0.8115E+01  0.2533E+02
     13.367  0.5568E+01  0.2586E+02
     13.462  0.8205E+00  0.2594E+02
     13.557 -0.1259E+00  0.2593E+02
     13.652  0.5946E+01  0.2649E+02
     13.747  0.1617E+02  0.2803E+02
     13.842  0.2095E+02  0.3002E+02
     13.937  0.1523E+02  0.3146E+02
     14.032  0.5625E+01  0.3200E+02
     14.127  0.1139E+01  0.3211E+02
     14.222  0.3378E+01  0.3243E+02
     14.317  0.7869E+01  0.3317E+02
     14.412  0.1338E+02  0.3444E+02
     14.507  0.2326E+02  0.3665E+02
     14.602  0.3528E+02  0.4000E+02
     14.697  0.3963E+02  0.4377E+02
     14.792  0.3018E+02  0.4663E+02
     14.887  0.1400E+02  0.4796E+02
     14.982  0.2613E+01  0.4821E+02
     15.077 -0.1022E+01  0.4811E+02
     15.171 -0.8593E+00  0.4803E+02
     15.266 -0.2716E+00  0.4801E+02
     15.361 -0.4780E-01  0.4800E+02
     15.456 -0.5041E-02  0.4800E+02
     15.551 -0.3263E-03  0.4800E+02
     15.646 -0.1311E-04  0.4800E+02
     15.741 -0.3292E-06  0.4800E+02
     15.836 -0.5187E-08  0.4800E+02
     15.931 -0.5143E-10  0.4800E+02
     16.026 -0.3227E-12  0.4800E+02
     16.121  0.0000E+00  0.4800E+02
     16.216  0.0000E+00  0.4800E+02
     16.311  0.0000E+00  0.4800E+02
     16.406  0.0000E+00  0.4800E+02
     16.501  0.0000E+00  0.4800E+02
     16.596  0.0000E+00  0.4800E+02
     16.691  0.0000E+00  0.4800E+02
     16.786  0.0000E+00  0.4800E+02
     16.881  0.0000E+00  0.4800E+02
     16.976  0.0000E+00  0.4800E+02
     17.071  0.0000E+00  0.4800E+02
     17.165  0.0000E+00  0.4800E+02
     17.260  0.0000E+00  0.4800E+02
     17.355  0.0000E+00  0.4800E+02
     17.450  0.0000E+00  0.4800E+02
     17.545  0.0000E+00  0.4800E+02
     17.640  0.0000E+00  0.4800E+02
     17.735  0.0000E+00  0.4800E+02
     17.830  0.0000E+00  0.4800E+02
     17.925  0.0000E+00  0.4800E+02
     18.020  0.0000E+00  0.4800E+02
     18.115  0.0000E+00  0.4800E+02
     18.210  0.0000E+00  0.4800E+02
     18.305  0.0000E+00  0.4800E+02
     18.400  0.0000E+00  0.4800E+02
     18.495  0.0000E+00  0.4800E+02
     18.590  0.0000E+00  0.4800E+02
     18.685  0.0000E+00  0.4800E+02
     18.780  0.0000E+00  0.4800E+02
     18.875  0.0000E+00  0.4800E+02
     18.970  0.0000E+00  0.4800E+02
     19.065  0.0000E+00  0.4800E+02
     19.160  0.0000E+00  0.4800E+02
     19.254  0.0000E+00  0.4800E+02
     19.349  0.0000E+00  0.4800E+02
     19.444  0.0000E+00  0.4800E+02
     19.539  0.0000E+00  0.4800E+02
     19.634  0.0000E+00  0.4800E+02
     19.729  0.0000E+00  0.4800E+02
     19.824  0.0000E+00  0.4800E+02
     19.919  0.0000E+00  0.4800E+02
     20.014  0.0000E+00  0.4800E+02
     20.109  0.0000E+00  0.4800E+02
     20.204  0.0000E+00  0.4800E+02
     20.299  0.0000E+00  0.4800E+02
     20.394  0.0000E+00  0.4800E+02
     20.489  0.0000E+00  0.4800E+02
     20.584  0.0000E+00  0.4800E+02
     20.679  0.0000E+00  0.4800E+02
     20.774  0.0000E+00  0.4800E+02
     20.869  0.0000E+00  0.4800E+02
     20.964  0.0000E+00  0.4800E+02
     21.059  0.0000E+00  0.4800E+02
     21.154  0.0000E+00  0.4800E+02
     21.249  0.0000E+00  0.4800E+02
     21.343  0.0000E+00  0.4800E+02
     21.438  0.0000E+00  0.4800E+02
     21.533  0.0000E+00  0.4800E+02
     21.628  0.0000E+00  0.4800E+02
     21.723  0.0000E+00  0.4800E+02
     21.818  0.0000E+00  0.4800E+02
     21.913  0.0000E+00  0.4800E+02
     22.008  0.0000E+00  0.4800E+02
     22.103  0.0000E+00  0.4800E+02
     22.198  0.0000E+00  0.4800E+02
     22.293 -0.9823E-27  0.4800E+02
     22.388 -0.1659E-23  0.4800E+02
     22.483 -0.1778E-20  0.4800E+02
     22.578 -0.1209E-17  0.4800E+02
     22.673 -0.5209E-15  0.4800E+02
     22.768 -0.1374E-12  0.4800E+02
     22.863 -0.2364E-10  0.4800E+02
     22.958 -0.2554E-08  0.4800E+02
     23.053 -0.1733E-06  0.4800E+02
     23.148 -0.7346E-05  0.4800E+02
     23.243 -0.1931E-03  0.4800E+02
     23.338 -0.3106E-02  0.4800E+02
     23.432 -0.2985E-01  0.4800E+02
     23.527 -0.1625E+00  0.4798E+02
     23.622 -0.4277E+00  0.4794E+02
     23.717 -0.8283E-01  0.4793E+02
     23.812  0.2436E+01  0.4816E+02
     23.907  0.6563E+01  0.4879E+02
     24.002  0.9548E+01  0.4969E+02
     24.097  0.1201E+02  0.5083E+02
     24.192  0.1487E+02  0.5225E+02
     24.287  0.1518E+02  0.5369E+02
     24.382  0.1295E+02  0.5492E+02
     24.477  0.1125E+02  0.5599E+02
     24.572  0.1036E+02  0.5697E+02
     24.667  0.7880E+01  0.5772E+02
     24.762  0.3456E+01  0.5805E+02
     24.857  0.2518E+00  0.5807E+02
     24.952 -0.4682E+00  0.5803E+02
     25.047 -0.2225E+00  0.5801E+02
     25.142 -0.4728E-01  0.5800E+02
     25.237 -0.5914E-02  0.5800E+02
     25.332 -0.5269E-02  0.5800E+02
     25.427 -0.4237E-01  0.5800E+02
     25.521 -0.2034E+00  0.5798E+02
     25.616 -0.4225E+00  0.5794E+02
     25.711  0.3645E+00  0.5797E+02
     25.806  0.3713E+01  0.5832E+02
     25.901  0.7659E+01  0.5905E+02
     25.996  0.7317E+01  0.5975E+02
     26.091  0.3165E+01  0.6005E+02
     26.186  0.1430E+00  0.6006E+02
     26.281 -0.4139E+00  0.6002E+02
     26.376 -0.1733E+00  0.6000E+02
     26.471 -0.3328E-01  0.6000E+02
     26.566 -0.3581E-02  0.6000E+02
     26.661 -0.2293E-03  0.6000E+02
     26.756 -0.8968E-05  0.6000E+02
     26.851 -0.2174E-06  0.6000E+02
     26.946 -0.3291E-08  0.6000E+02
     27.041 -0.3127E-10  0.6000E+02
     27.136 -0.1871E-12  0.6000E+02
     27.231  0.0000E+00  0.6000E+02
     27.326  0.0000E+00  0.6000E+02
     27.421  0.0000E+00  0.6000E+02
     27.515  0.0000E+00  0.6000E+02
     27.610  0.0000E+00  0.6000E+02
     27.705  0.0000E+00  0.6000E+02
     27.800  0.0000E+00  0.6000E+02
     27.895  0.0000E+00  0.6000E+02
