    4    4    1    1
  0.1200752E+02  0.3635000E-09  0.3635000E-09  0.3635000E-09  0.5000000E-15
  1.000000000000000E-004
  CAR 
 unknown system                          
     40      1     30
 
  0.0000000E+00  0.0000000E+00  0.0000000E+00  0.1000000E+01
    1        1.409070   1.000000
    2        3.768061   1.000000
    3        5.080454   1.000000
    4        5.616199   1.000000
    5        5.746608   1.000000
    6        5.973720   1.000000
    7        6.233442   1.000000
    8        9.779978   1.000000
    9       10.054217   1.000000
   10       10.157783   1.000000
   11       12.076228   1.000000
   12       12.099454   1.000000
   13       13.231031   1.000000
   14       13.728407   1.000000
   15       13.775318   1.000000
   16       13.880209   1.000002
   17       14.276181   1.021808
   18       14.480670   0.922184
   19       14.495648   0.886115
   20       14.614468   0.445854
   21       14.630958   0.377421
   22       14.671637   0.222978
   23       14.696228   0.145132
   24       14.795266  -0.021494
   25       23.918624   0.000000
   26       24.127720   0.000000
   27       24.223952   0.000000
   28       24.391568   0.000000
   29       24.583054   0.000000
   30       25.895311   0.000000
