 vasp.6.2.0 18Jan21 (build Mar 17 2021 09:06:54) complex                        
  
 executed on             LinuxIFC date 2021.06.11  11:30:26
 serial version


--------------------------------------------------------------------------------------------------------


 INCAR:
   ENCUT = 270.000000
   SIGMA = 0.200000
   EDIFF = 1.00e-06
   GGA = PE
   PREC = normal
   IBRION = -1
   ICHARG = 1
   ISMEAR = 1
   KPAR = 1
   NBANDS = 30
   NSW = 0
   NCORE = 1
   LCHARG = .TRUE.

 POTCAR:    PAW_PBE Pd 04Jan2005                  
 POTCAR:    PAW_PBE Ir 06Sep2000                  
 POTCAR:    PAW_PBE Pt 04Feb2005                  
 POTCAR:    PAW_PBE Cu 22Jun2005                  
 POTCAR:    PAW_PBE Pd 04Jan2005                  
   SHA256 =  dd6f6f02930356371984e2b707ff5e456046761dc76b07c1eba30abd15eb3c39 Pd/POTCAR             
   COPYR  = (c) Copyright 04Jan2005 Georg Kresse                                                    
   COPYR  = This file is part of the software VASP. Any use, copying, and all other rights are regul
   COPYR  = If you do not have a valid VASP license, you may not use, copy or distribute this file. 
   VRHFIN =Pd : s1 d9                                                                               
   LEXCH  = PE                                                                                      
   EATOM  =   809.7530 eV,   59.5152 Ry                                                             
                                                                                                    
   TITEL  = PAW_PBE Pd 04Jan2005                                                                    
   LULTRA =        F    use ultrasoft PP ?                                                          
   IUNSCR =        1    unscreen: 0-lin 1-nonlin 2-no                                               
   RPACOR =    2.000    partial core radius                                                         
   POMASS =  106.420; ZVAL   =   10.000    mass and valenz                                          
   RCORE  =    2.600    outmost cutoff radius                                                       
   RWIGS  =    2.710; RWIGS  =    1.434    wigner-seitz radius (au A)                               
   ENMAX  =  250.925; ENMIN  =  188.194 eV                                                          
   ICORE  =        3    local potential                                                             
   LCOR   =        T    correct aug charges                                                         
   LPAW   =        T    paw PP                                                                      
   EAUG   =  416.230                                                                                
   DEXC   =    0.000                                                                                
   RMAX   =    2.653    core radius for proj-oper                                                   
   RAUG   =    1.300    factor for augmentation sphere                                              
   RDEP   =    2.734    radius for radial grids                                                     
   RDEPT  =    2.103    core radius for aug-charge                                                  
                                                                                                    
   Atomic configuration                                                                             
   12 entries                                                                                       
     n  l   j            E        occ.                                                              
     1  0  0.50    -24164.6631   2.0000                                                             
     2  0  0.50     -3530.9218   2.0000                                                             
     2  1  1.50     -3165.6822   6.0000                                                             
     3  0  0.50      -639.4577   2.0000                                                             
     3  1  1.50      -519.4532   6.0000                                                             
     3  2  2.50      -328.9757  10.0000                                                             
     4  0  0.50       -88.7014   2.0000                                                             
     4  1  1.50       -54.4540   6.0000                                                             
     4  2  2.50        -6.6878   9.0000                                                             
     5  0  0.50        -4.3543   1.0000                                                             
     5  1  0.50        -1.3606   0.0000                                                             
     4  3  2.50        -1.3606   0.0000                                                             
   Description                                                                                      
     l       E           TYP  RCUT    TYP  RCUT                                                     
     2     -6.6878251     23  2.400                                                                 
     2     -8.0484077     23  2.400                                                                 
     0     -4.3542939     23  2.400                                                                 
     0      4.3406793     23  2.400                                                                 
     1     -4.0817478     23  2.600                                                                 
     1     15.8380318     23  2.600                                                                 
     3     -4.0817478     23  2.400                                                                 
  local pseudopotential read in
  partial core-charges read in
  partial kinetic energy density read in
  atomic valenz-charges read in
  non local Contribution for L=           2  read in
    real space projection operators read in
  non local Contribution for L=           2  read in
    real space projection operators read in
  non local Contribution for L=           0  read in
    real space projection operators read in
  non local Contribution for L=           0  read in
    real space projection operators read in
  non local Contribution for L=           1  read in
    real space projection operators read in
  non local Contribution for L=           1  read in
    real space projection operators read in
    PAW grid and wavefunctions read in
 
   number of l-projection  operators is LMAX  =           6
   number of lm-projection operators is LMMAX =          18
 
 POTCAR:    PAW_PBE Ir 06Sep2000                  
   SHA256 =  7c6af8d4d487b237782eb51e6f62977b27a1da78c3c96acd1cebefd6c308f120 Ir/POTCAR             
   COPYR  = (c) Copyright 06Sep2000 Georg Kresse                                                    
   COPYR  = This file is part of the software VASP. Any use, copying, and all other rights are regul
   COPYR  = If you do not have a valid VASP license, you may not use, copy or distribute this file. 
   VRHFIN =Ir: s1d8                                                                                 
   LEXCH  = PE                                                                                      
   EATOM  =   560.1833 eV,   41.1723 Ry                                                             
                                                                                                    
   TITEL  = PAW_PBE Ir 06Sep2000                                                                    
   LULTRA =        F    use ultrasoft PP ?                                                          
   IUNSCR =        1    unscreen: 0-lin 1-nonlin 2-no                                               
   RPACOR =    2.250    partial core radius                                                         
   POMASS =  192.220; ZVAL   =    9.000    mass and valenz                                          
   RCORE  =    2.600    outmost cutoff radius                                                       
   RWIGS  =    2.690; RWIGS  =    1.423    wigner-seitz radius (au A)                               
   ENMAX  =  210.864; ENMIN  =  158.148 eV                                                          
   RCLOC  =    1.857    cutoff for local pot                                                        
   LCOR   =        T    correct aug charges                                                         
   LPAW   =        T    paw PP                                                                      
   EAUG   =  318.962                                                                                
   DEXC   =    0.000                                                                                
   RMAX   =    2.667    core radius for proj-oper                                                   
   RAUG   =    1.300    factor for augmentation sphere                                              
   RDEP   =    2.748    radius for radial grids                                                     
   RDEPT  =    2.300    core radius for aug-charge                                                  
                                                                                                    
   Atomic configuration                                                                             
   16 entries                                                                                       
     n  l   j            E        occ.                                                              
     1  0  0.50    -76100.0449   2.0000                                                             
     2  0  0.50    -13308.1683   2.0000                                                             
     2  1  1.50    -11558.0021   6.0000                                                             
     3  0  0.50     -3110.7274   2.0000                                                             
     3  1  1.50     -2599.2109   6.0000                                                             
     3  2  2.50     -2037.1515  10.0000                                                             
     4  0  0.50      -661.6001   2.0000                                                             
     4  1  1.50      -493.8981   6.0000                                                             
     4  2  2.50      -288.1909  10.0000                                                             
     4  3  3.50       -59.5718  14.0000                                                             
     5  0  0.50       -95.3879   2.0000                                                             
     5  1  1.50       -52.2747   6.0000                                                             
     5  2  2.50        -5.4180   8.0000                                                             
     6  0  0.50        -5.5479   1.0000                                                             
     6  1  1.50        -6.8029   0.0000                                                             
     5  3  2.50        -1.3606   0.0000                                                             
   Description                                                                                      
     l       E           TYP  RCUT    TYP  RCUT                                                     
     2     -5.4179967     23  2.600                                                                 
     2     -6.7785793     23  2.600                                                                 
     0     -5.5478636     23  2.600                                                                 
     0      2.2542272     23  2.600                                                                 
     1     -2.7211652     23  2.600                                                                 
     1     20.4087390     23  2.600                                                                 
  local pseudopotential read in
  partial core-charges read in
  partial kinetic energy density read in
  atomic valenz-charges read in
  non local Contribution for L=           2  read in
    real space projection operators read in
  non local Contribution for L=           2  read in
    real space projection operators read in
  non local Contribution for L=           0  read in
    real space projection operators read in
  non local Contribution for L=           0  read in
    real space projection operators read in
  non local Contribution for L=           1  read in
    real space projection operators read in
  non local Contribution for L=           1  read in
    real space projection operators read in
    PAW grid and wavefunctions read in
 
   number of l-projection  operators is LMAX  =           6
   number of lm-projection operators is LMMAX =          18
 
 POTCAR:    PAW_PBE Pt 04Feb2005                  
   SHA256 =  3ed90460adef76debcff1cfb73ee1349b515b1a3db03439735b44de3a8db7dc8 Pt/POTCAR             
   COPYR  = (c) Copyright 04Feb2005 Georg Kresse                                                    
   COPYR  = This file is part of the software VASP. Any use, copying, and all other rights are regul
   COPYR  = If you do not have a valid VASP license, you may not use, copy or distribute this file. 
   VRHFIN =Pt: s1d9                                                                                 
   LEXCH  = PE                                                                                      
   EATOM  =   729.1176 eV,   53.5886 Ry                                                             
                                                                                                    
   TITEL  = PAW_PBE Pt 04Feb2005                                                                    
   LULTRA =        F    use ultrasoft PP ?                                                          
   IUNSCR =        1    unscreen: 0-lin 1-nonlin 2-no                                               
   RPACOR =    2.330    partial core radius                                                         
   POMASS =  195.080; ZVAL   =   10.000    mass and valenz                                          
   RCORE  =    2.600    outmost cutoff radius                                                       
   RWIGS  =    2.750; RWIGS  =    1.455    wigner-seitz radius (au A)                               
   ENMAX  =  230.283; ENMIN  =  172.712 eV                                                          
   ICORE  =        3    local potential                                                             
   LCOR   =        T    correct aug charges                                                         
   LPAW   =        T    paw PP                                                                      
   EAUG   =  358.966                                                                                
   DEXC   =    0.000                                                                                
   RMAX   =    2.658    core radius for proj-oper                                                   
   RAUG   =    1.300    factor for augmentation sphere                                              
   RDEP   =    2.761    radius for radial grids                                                     
   RDEPT  =    2.203    core radius for aug-charge                                                  
                                                                                                    
   Atomic configuration                                                                             
   16 entries                                                                                       
     n  l   j            E        occ.                                                              
     1  0  0.50    -78401.1885   2.0000                                                             
     2  0  0.50    -13770.7750   2.0000                                                             
     2  1  1.50    -11931.0468   6.0000                                                             
     3  0  0.50     -3234.7234   2.0000                                                             
     3  1  1.50     -2699.2216   6.0000                                                             
     3  2  2.50     -2119.5714  10.0000                                                             
     4  0  0.50      -695.1528   2.0000                                                             
     4  1  1.50      -519.6034   6.0000                                                             
     4  2  2.50      -306.6786  10.0000                                                             
     4  3  3.50       -70.1041  14.0000                                                             
     5  0  0.50      -101.7747   2.0000                                                             
     5  1  1.50       -55.9873   6.0000                                                             
     5  2  2.50        -6.1423   9.0000                                                             
     6  0  0.50        -5.6573   1.0000                                                             
     6  1  1.50        -6.8029   0.0000                                                             
     5  3  2.50        -1.3606   0.0000                                                             
   Description                                                                                      
     l       E           TYP  RCUT    TYP  RCUT                                                     
     2     -6.1423404     23  2.500                                                                 
     2     -7.5029230     23  2.500                                                                 
     0     -5.6573207     23  2.500                                                                 
     0      0.7416693     23  2.500                                                                 
     1     -2.7211652     23  2.600                                                                 
     1     20.4087390     23  2.600                                                                 
     3     -1.3605826     23  2.500                                                                 
  local pseudopotential read in
  partial core-charges read in
  partial kinetic energy density read in
  atomic valenz-charges read in
  non local Contribution for L=           2  read in
    real space projection operators read in
  non local Contribution for L=           2  read in
    real space projection operators read in
  non local Contribution for L=           0  read in
    real space projection operators read in
  non local Contribution for L=           0  read in
    real space projection operators read in
  non local Contribution for L=           1  read in
    real space projection operators read in
  non local Contribution for L=           1  read in
    real space projection operators read in
    PAW grid and wavefunctions read in
 
   number of l-projection  operators is LMAX  =           6
   number of lm-projection operators is LMMAX =          18
 
 POTCAR:    PAW_PBE Cu 22Jun2005                  
   SHA256 =  0e71e558f37a4e8407882b4609ceaae59938afaad9ced71dfe8490308a0ab630 Cu/POTCAR             
   COPYR  = (c) Copyright 22Jun2005 Georg Kresse                                                    
   COPYR  = This file is part of the software VASP. Any use, copying, and all other rights are regul
   COPYR  = If you do not have a valid VASP license, you may not use, copy or distribute this file. 
   VRHFIN =Cu: d10 p1                                                                               
   LEXCH  = PE                                                                                      
   EATOM  =  1390.9808 eV,  102.2342 Ry                                                             
                                                                                                    
   TITEL  = PAW_PBE Cu 22Jun2005                                                                    
   LULTRA =        F    use ultrasoft PP ?                                                          
   IUNSCR =        1    unscreen: 0-lin 1-nonlin 2-no                                               
   RPACOR =    2.000    partial core radius                                                         
   POMASS =   63.546; ZVAL   =   11.000    mass and valenz                                          
   RCORE  =    2.300    outmost cutoff radius                                                       
   RWIGS  =    2.200; RWIGS  =    1.164    wigner-seitz radius (au A)                               
   ENMAX  =  295.446; ENMIN  =  221.585 eV                                                          
   ICORE  =        3    local potential                                                             
   LCOR   =        T    correct aug charges                                                         
   LPAW   =        T    paw PP                                                                      
   EAUG   =  586.980                                                                                
   DEXC   =    0.000                                                                                
   RMAX   =    2.344    core radius for proj-oper                                                   
   RAUG   =    1.300    factor for augmentation sphere                                              
   RDEP   =    2.302    radius for radial grids                                                     
   RDEPT  =    1.771    core radius for aug-charge                                                  
                                                                                                    
   Atomic configuration                                                                             
    9 entries                                                                                       
     n  l   j            E        occ.                                                              
     1  0  0.50     -8850.2468   2.0000                                                             
     2  0  0.50     -1062.3498   2.0000                                                             
     2  1  1.50      -916.8226   6.0000                                                             
     3  0  0.50      -114.6929   2.0000                                                             
     3  1  1.50       -72.1325   6.0000                                                             
     3  2  2.50        -5.0394  10.0000                                                             
     4  0  0.50        -4.6097   1.0000                                                             
     4  1  0.50        -4.0817   0.0000                                                             
     4  3  2.50        -1.3606   0.0000                                                             
   Description                                                                                      
     l       E           TYP  RCUT    TYP  RCUT                                                     
     2     -5.0393973     23  2.200                                                                 
     2     10.8846608     23  2.200                                                                 
     0     -4.6097109     23  2.200                                                                 
     0      8.2520465     23  2.200                                                                 
     1     -2.7211652     23  2.200                                                                 
     1     21.7055443     23  2.200                                                                 
     3      2.7211652     23  2.300                                                                 
  local pseudopotential read in
  partial core-charges read in
  partial kinetic energy density read in
  atomic valenz-charges read in
  non local Contribution for L=           2  read in
    real space projection operators read in
  non local Contribution for L=           2  read in
    real space projection operators read in
  non local Contribution for L=           0  read in
    real space projection operators read in
  non local Contribution for L=           0  read in
    real space projection operators read in
  non local Contribution for L=           1  read in
    real space projection operators read in
  non local Contribution for L=           1  read in
    real space projection operators read in
    PAW grid and wavefunctions read in
 
   number of l-projection  operators is LMAX  =           6
   number of lm-projection operators is LMMAX =          18
 
  PAW_PBE Pd 04Jan2005                  :
 energy of atom  1       EATOM= -809.7530
 kinetic energy error for atom=    0.0525 (will be added to EATOM!!)
  PAW_PBE Ir 06Sep2000                  :
 energy of atom  2       EATOM= -560.1833
 kinetic energy error for atom=    0.0351 (will be added to EATOM!!)
  PAW_PBE Pt 04Feb2005                  :
 energy of atom  3       EATOM= -729.1176
 kinetic energy error for atom=    0.0526 (will be added to EATOM!!)
  PAW_PBE Cu 22Jun2005                  :
 energy of atom  4       EATOM=-1390.9808
 kinetic energy error for atom=    0.1077 (will be added to EATOM!!)
 
 
 POSCAR: Pd Ir Pt Cu
  positions in cartesian coordinates
  No initial velocities read in
 exchange correlation table for  LEXCH =        8
   RHO(1)=    0.500       N(1)  =     2000
   RHO(2)=  100.500       N(2)  =     4000
 


--------------------------------------------------------------------------------------------------------


 ion  position               nearest neighbor table
   1  0.000  0.000  0.000-   2 2.57   3 2.57   4 2.57   3 2.57   4 2.57   2 2.57   4 2.57   4 2.57
                             2 2.57   3 2.57   3 2.57   2 2.57
   2  0.500  0.500  0.000-   1 2.57   3 2.57   4 2.57   3 2.57   4 2.57   1 2.57   3 2.57   3 2.57
                             1 2.57   4 2.57   4 2.57   1 2.57
   3  0.500  0.000  0.500-   1 2.57   2 2.57   4 2.57   1 2.57   2 2.57   2 2.57   4 2.57   2 2.57
                             1 2.57   4 2.57   1 2.57   4 2.57
   4  0.000  0.500  0.500-   1 2.57   2 2.57   3 2.57   1 2.57   2 2.57   1 2.57   3 2.57   1 2.57
                             2 2.57   3 2.57   2 2.57   3 2.57
 
  LATTYP: Found a simple cubic cell.
 ALAT       =     3.6350000000
  
  Lattice vectors:
  
 A1 = (   3.6350000000,   0.0000000000,   0.0000000000)
 A2 = (   0.0000000000,   3.6350000000,   0.0000000000)
 A3 = (   0.0000000000,   0.0000000000,   3.6350000000)


Analysis of symmetry for initial positions (statically):
=====================================================================
 Subroutine PRICEL returns:
 Original cell was already a primitive cell.
 

 Routine SETGRP: Setting up the symmetry group for a 
 simple cubic supercell.


 Subroutine GETGRP returns: Found  8 space group operations
 (whereof  8 operations were pure point group operations)
 out of a pool of 48 trial point group operations.


The static configuration has the point symmetry D_2h.


Analysis of symmetry for dynamics (positions and initial velocities):
=====================================================================
 Subroutine PRICEL returns:
 Original cell was already a primitive cell.
 

 Routine SETGRP: Setting up the symmetry group for a 
 simple cubic supercell.


 Subroutine GETGRP returns: Found  8 space group operations
 (whereof  8 operations were pure point group operations)
 out of a pool of 48 trial point group operations.


The dynamic configuration has the point symmetry D_2h.


 Subroutine INISYM returns: Found  8 space group operations
 (whereof  8 operations are pure point group operations),
 and found     1 'primitive' translations


----------------------------------------------------------------------------------------

                                     Primitive cell                                     

  volume of cell :      48.0301

  direct lattice vectors                    reciprocal lattice vectors
     3.635000000  0.000000000  0.000000000     0.275103164  0.000000000  0.000000000
     0.000000000  3.635000000  0.000000000     0.000000000  0.275103164  0.000000000
     0.000000000  0.000000000  3.635000000     0.000000000  0.000000000  0.275103164

  length of vectors
     3.635000000  3.635000000  3.635000000     0.275103164  0.275103164  0.275103164

  position of ions in fractional coordinates (direct lattice)
     0.000000000  0.000000000  0.000000000
     0.500000000  0.500000000  0.000000000
     0.500000000  0.000000000  0.500000000
     0.000000000  0.500000000  0.500000000

  ion indices of the primitive-cell ions
   primitive index   ion index
                 1           1
                 2           2
                 3           3
                 4           4

----------------------------------------------------------------------------------------

 
 
 KPOINTS: KPOINTS created by Atomic Simulation Env

Automatic generation of k-mesh.
 Grid dimensions read from file:
 generate k-points for:    1    1    1

 Generating k-lattice:

  Cartesian coordinates                     Fractional coordinates (reciprocal lattice)
     0.275103164  0.000000000  0.000000000     1.000000000  0.000000000  0.000000000
     0.000000000  0.275103164  0.000000000     0.000000000  1.000000000  0.000000000
     0.000000000  0.000000000  0.275103164     0.000000000  0.000000000  1.000000000

  Length of vectors
     0.275103164  0.275103164  0.275103164

  Shift w.r.t. Gamma in fractional coordinates (k-lattice)
     0.000000000  0.000000000  0.000000000

 
 Subroutine IBZKPT returns following result:
 ===========================================
 
 Found      1 irreducible k-points:
 
 Following reciprocal coordinates:
            Coordinates               Weight
  0.000000  0.000000  0.000000      1.000000
 
 Following cartesian coordinates:
            Coordinates               Weight
  0.000000  0.000000  0.000000      1.000000
 


--------------------------------------------------------------------------------------------------------




 Dimension of arrays:
   k-points           NKPTS =      1   k-points in BZ     NKDIM =      1   number of bands    NBANDS=     30
   number of dos      NEDOS =    301   number of ions     NIONS =      4
   non local maximal  LDIM  =      6   non local SUM 2l+1 LMDIM =     18
   total plane-waves  NPLWV =   4096
   max r-space proj   IRMAX =      1   max aug-charges    IRDMAX=   6366
   dimension x,y,z NGX =    16 NGY =   16 NGZ =   16
   dimension x,y,z NGXF=    32 NGYF=   32 NGZF=   32
   support grid    NGXF=    32 NGYF=   32 NGZF=   32
   ions per type =               1   1   1   1
   NGX,Y,Z   is equivalent  to a cutoff of   7.32,  7.32,  7.32 a.u.
   NGXF,Y,Z  is equivalent  to a cutoff of  14.64, 14.64, 14.64 a.u.

 SYSTEM =  unknown system                          
 POSCAR =  Pd Ir Pt Cu                             

 Startparameter for this run:
   NWRITE =      2    write-flag & timer
   PREC   = normal    normal or accurate (medium, high low for compatibility)
   ISTART =      0    job   : 0-new  1-cont  2-samecut
   ICHARG =      1    charge: 1-file 2-atom 10-const
   ISPIN  =      1    spin polarized calculation?
   LNONCOLLINEAR =      F non collinear calculations
   LSORBIT =      F    spin-orbit coupling
   INIWAV =      1    electr: 0-lowe 1-rand  2-diag
   LASPH  =      F    aspherical Exc in radial PAW
   METAGGA=      F    non-selfconsistent MetaGGA calc.

 Electronic Relaxation 1
   ENCUT  =  270.0 eV  19.84 Ry    4.45 a.u.   4.87  4.87  4.87*2*pi/ulx,y,z
   ENINI  =  270.0     initial cutoff
   ENAUG  =  587.0 eV  augmentation charge cutoff
   NELM   =     60;   NELMIN=  2; NELMDL= -5     # of ELM steps 
   EDIFF  = 0.1E-05   stopping-criterion for ELM
   LREAL  =      F    real-space projection
   NLSPLINE    = F    spline interpolate recip. space projectors
   LCOMPAT=      F    compatible to vasp.4.4
   GGA_COMPAT  = T    GGA compatible to vasp.4.4-vasp.4.6
   LMAXPAW     = -100 max onsite density
   LMAXMIX     =    2 max onsite mixed and CHGCAR
   VOSKOWN=      0    Vosko Wilk Nusair interpolation
   ROPT   =    0.00000   0.00000   0.00000   0.00000
 Ionic relaxation
   EDIFFG = 0.1E-04   stopping-criterion for IOM
   NSW    =      0    number of steps for IOM
   NBLOCK =      1;   KBLOCK =      1    inner block; outer block 
   IBRION =     -1    ionic relax: 0-MD 1-quasi-New 2-CG
   NFREE  =      0    steps in history (QN), initial steepest desc. (CG)
   ISIF   =      2    stress and relaxation
   IWAVPR =      0    prediction:  0-non 1-charg 2-wave 3-comb
   ISYM   =      2    0-nonsym 1-usesym 2-fastsym
   LCORR  =      T    Harris-Foulkes like correction to forces

   POTIM  = 0.5000    time-step for ionic-motion
   TEIN   =    0.0    initial temperature
   TEBEG  =    0.0;   TEEND  =   0.0 temperature during run
   SMASS  =  -3.00    Nose mass-parameter (am)
   estimated Nose-frequenzy (Omega)   =  0.10E-29 period in steps = 0.13E+47 mass=  -0.302E-27a.u.
   SCALEE = 1.0000    scale energy and forces
   NPACO  =    256;   APACO  = 16.0  distance and # of slots for P.C.
   PSTRESS=    0.0 pullay stress

  Mass of Ions in am
   POMASS = 106.42192.22195.08 63.55
  Ionic Valenz
   ZVAL   =  10.00  9.00 10.00 11.00
  Atomic Wigner-Seitz radii
   RWIGS  =  -1.00 -1.00 -1.00 -1.00
  virtual crystal weights 
   VCA    =   1.00  1.00  1.00  1.00
   NELECT =      40.0000    total number of electrons
   NUPDOWN=      -1.0000    fix difference up-down

 DOS related values:
   EMIN   =  10.00;   EMAX   =-10.00  energy-range for DOS
   EFERMI =   0.00
   ISMEAR =     1;   SIGMA  =   0.20  broadening in eV -4-tet -1-fermi 0-gaus

 Electronic relaxation 2 (details)
   IALGO  =     38    algorithm
   LDIAG  =      T    sub-space diagonalisation (order eigenvalues)
   LSUBROT=      F    optimize rotation matrix (better conditioning)
   TURBO    =      0    0=normal 1=particle mesh
   IRESTART =      0    0=no restart 2=restart with 2 vectors
   NREBOOT  =      0    no. of reboots
   NMIN     =      0    reboot dimension
   EREF     =   0.00    reference energy to select bands
   IMIX   =      4    mixing-type and parameters
     AMIX     =   0.40;   BMIX     =  1.00
     AMIX_MAG =   1.60;   BMIX_MAG =  1.00
     AMIN     =   0.10
     WC   =   100.;   INIMIX=   1;  MIXPRE=   1;  MAXMIX= -45

 Intra band minimization:
   WEIMIN = 0.0000     energy-eigenvalue tresh-hold
   EBREAK =  0.83E-08  absolut break condition
   DEPER  =   0.30     relativ break condition  

   TIME   =   0.40     timestep for ELM

  volume/ion in A,a.u.               =      12.01        81.03
  Fermi-wavevector in a.u.,A,eV,Ry     =   1.540247  2.910645 32.277935  2.372361
  Thomas-Fermi vector in A             =   2.646361
 
 Write flags
   LWAVE        =      T    write WAVECAR
   LDOWNSAMPLE  =      F    k-point downsampling of WAVECAR
   LCHARG       =      T    write CHGCAR
   LVTOT        =      F    write LOCPOT, total local potential
   LVHAR        =      F    write LOCPOT, Hartree potential only
   LELF         =      F    write electronic localiz. function (ELF)
   LORBIT       =      0    0 simple, 1 ext, 2 COOP (PROOUT), +10 PAW based schemes


 Dipole corrections
   LMONO  =      F    monopole corrections only (constant potential shift)
   LDIPOL =      F    correct potential (dipole corrections)
   IDIPOL =      0    1-x, 2-y, 3-z, 4-all directions 
   EPSILON=  1.0000000 bulk dielectric constant

 Exchange correlation treatment:
   GGA     =    PE    GGA type
   LEXCH   =     8    internal setting for exchange type
   VOSKOWN=      0    Vosko Wilk Nusair interpolation
   LHFCALC =     F    Hartree Fock is set to
   LHFONE  =     F    Hartree Fock one center treatment
   AEXX    =    0.0000 exact exchange contribution

 Linear response parameters
   LEPSILON=     F    determine dielectric tensor
   LRPA    =     F    only Hartree local field effects (RPA)
   LNABLA  =     F    use nabla operator in PAW spheres
   LVEL    =     F    velocity operator in full k-point grid
   LINTERFAST=   F  fast interpolation
   KINTER  =     0    interpolate to denser k-point grid
   CSHIFT  =0.1000    complex shift for real part using Kramers Kronig
   OMEGAMAX=  -1.0    maximum frequency
   DEG_THRESHOLD= 0.2000000E-02 threshold for treating states as degnerate
   RTIME   =   -0.100 relaxation time in fs
  (WPLASMAI=    0.000 imaginary part of plasma frequency in eV, 0.658/RTIME)
   DFIELD  = 0.0000000 0.0000000 0.0000000 field for delta impulse in time
 
 Orbital magnetization related:
   ORBITALMAG=     F  switch on orbital magnetization
   LCHIMAG   =     F  perturbation theory with respect to B field
   DQ        =  0.001000  dq finite difference perturbation B field
   LLRAUG    =     F  two centre corrections for induced B field



--------------------------------------------------------------------------------------------------------


 Static calculation
 charge density and potential will be updated during run
 non-spin polarized calculation
 Variant of blocked Davidson
 Davidson routine will perform the subspace rotation
 perform sub-space diagonalisation
    after iterative eigenvector-optimisation
 modified Broyden-mixing scheme, WC =      100.0
 initial mixing is a Kerker type mixing with AMIX =  0.4000 and BMIX =      1.0000
 Hartree-type preconditioning will be used
 using additional bands           10
 reciprocal scheme for non local part
 use partial core corrections
 calculate Harris-corrections to forces 
   (improved forces if not selfconsistent)
 use gradient corrections 
 use of overlap-Matrix (Vanderbilt PP)
 Methfessel and Paxton  Order N= 1 SIGMA  =   0.20


--------------------------------------------------------------------------------------------------------


  energy-cutoff  :      270.00
  volume of cell :       48.03
      direct lattice vectors                 reciprocal lattice vectors
     3.635000000  0.000000000  0.000000000     0.275103164  0.000000000  0.000000000
     0.000000000  3.635000000  0.000000000     0.000000000  0.275103164  0.000000000
     0.000000000  0.000000000  3.635000000     0.000000000  0.000000000  0.275103164

  length of vectors
     3.635000000  3.635000000  3.635000000     0.275103164  0.275103164  0.275103164


 
 k-points in units of 2pi/SCALE and weight: KPOINTS created by Atomic Simulation Env
   0.00000000  0.00000000  0.00000000       1.000
 
 k-points in reciprocal lattice and weights: KPOINTS created by Atomic Simulation Env
   0.00000000  0.00000000  0.00000000       1.000
 
 position of ions in fractional coordinates (direct lattice) 
   0.00000000  0.00000000  0.00000000
   0.50000000  0.50000000  0.00000000
   0.50000000  0.00000000  0.50000000
   0.00000000  0.50000000  0.50000000
 
 position of ions in cartesian coordinates  (Angst):
   0.00000000  0.00000000  0.00000000
   1.81750000  1.81750000  0.00000000
   1.81750000  0.00000000  1.81750000
   0.00000000  1.81750000  1.81750000
 


--------------------------------------------------------------------------------------------------------


 k-point   1 :   0.0000 0.0000 0.0000  plane waves:     461

 maximum number of plane-waves:       461
 maximum index in each direction: 
   IXMAX=    4   IYMAX=    4   IZMAX=    4
   IXMIN=   -4   IYMIN=   -4   IZMIN=   -4


 total amount of memory used by VASP MPI-rank0    33253. kBytes
=======================================================================

   base      :      30000. kBytes
   nonl-proj :        295. kBytes
   grid      :       2641. kBytes
   one-center:         62. kBytes
   wavefun   :        255. kBytes
 
     INWAV:  cpu time    0.0000: real time    0.0000
 Broyden mixing: mesh for mixing (old mesh)
   NGX =  9   NGY =  9   NGZ =  9
  (NGX  = 32   NGY  = 32   NGZ  = 32)
  gives a total of    729 points

 initial charge density was supplied:
 charge density of overlapping atoms calculated
 number of electron      40.0000000 magnetization 
 keeping initial charge density in first step


--------------------------------------------------------------------------------------------------------


 Maximum index for augmentation-charges         6031 (set IRDMAX)


--------------------------------------------------------------------------------------------------------


 First call to EWALD:  gamma=   0.488
 Maximum number of real-space cells 3x 3x 3
 Maximum number of reciprocal cells 3x 3x 3

    FEWALD:  cpu time    0.0009: real time    0.0009


--------------------------------------- Iteration      1(   1)  ---------------------------------------


    POTLOK:  cpu time    0.0082: real time    0.0082
    SETDIJ:  cpu time    0.0044: real time    0.0044
     EDDAV:  cpu time    0.0165: real time    0.0236
       DOS:  cpu time    0.0001: real time    0.0001
    --------------------------------------------
      LOOP:  cpu time    0.0293: real time    0.0364

 eigenvalue-minimisations  :    68
 total energy-change (2. order) : 0.2403032E+03  (-0.1201454E+04)
 number of electron      40.0000000 magnetization 
 augmentation part       40.0000000 magnetization 

 Free energy of the ion-electron system (eV)
  ---------------------------------------------------
  alpha Z        PSCENC =       294.32394985
  Ewald energy   TEWEN  =     -3641.45145672
  -Hartree energ DENC   =      -571.19890525
  -exchange      EXHF   =         0.00000000
  -V(xc)+E(xc)   XCENC  =         6.42737968
  PAW double counting   =      3282.45812088    -3257.47686163
  entropy T*S    EENTRO =         0.01284543
  eigenvalues    EBANDS =       637.42147527
  atomic energy  EATOM  =      3489.78669473
  Solvation  Ediel_sol  =         0.00000000
  ---------------------------------------------------
  free energy    TOTEN  =       240.30324223 eV

  energy without entropy =      240.29039680  energy(sigma->0) =      240.29896042


--------------------------------------------------------------------------------------------------------




--------------------------------------- Iteration      1(   2)  ---------------------------------------


     EDDAV:  cpu time    0.0126: real time    0.0126
       DOS:  cpu time    0.0002: real time    0.0002
    --------------------------------------------
      LOOP:  cpu time    0.0128: real time    0.0128

 eigenvalue-minimisations  :    66
 total energy-change (2. order) :-0.2348073E+03  (-0.2231939E+03)
 number of electron      40.0000000 magnetization 
 augmentation part       40.0000000 magnetization 

 Free energy of the ion-electron system (eV)
  ---------------------------------------------------
  alpha Z        PSCENC =       294.32394985
  Ewald energy   TEWEN  =     -3641.45145672
  -Hartree energ DENC   =      -571.19890525
  -exchange      EXHF   =         0.00000000
  -V(xc)+E(xc)   XCENC  =         6.42737968
  PAW double counting   =      3282.45812088    -3257.47686163
  entropy T*S    EENTRO =        -0.00596844
  eigenvalues    EBANDS =       402.63301701
  atomic energy  EATOM  =      3489.78669473
  Solvation  Ediel_sol  =         0.00000000
  ---------------------------------------------------
  free energy    TOTEN  =         5.49597010 eV

  energy without entropy =        5.50193854  energy(sigma->0) =        5.49795958


--------------------------------------------------------------------------------------------------------




--------------------------------------- Iteration      1(   3)  ---------------------------------------


     EDDAV:  cpu time    0.0123: real time    0.0123
       DOS:  cpu time    0.0002: real time    0.0002
    --------------------------------------------
      LOOP:  cpu time    0.0125: real time    0.0125

 eigenvalue-minimisations  :    66
 total energy-change (2. order) :-0.9729064E+01  (-0.9393431E+01)
 number of electron      40.0000000 magnetization 
 augmentation part       40.0000000 magnetization 

 Free energy of the ion-electron system (eV)
  ---------------------------------------------------
  alpha Z        PSCENC =       294.32394985
  Ewald energy   TEWEN  =     -3641.45145672
  -Hartree energ DENC   =      -571.19890525
  -exchange      EXHF   =         0.00000000
  -V(xc)+E(xc)   XCENC  =         6.42737968
  PAW double counting   =      3282.45812088    -3257.47686163
  entropy T*S    EENTRO =        -0.08714569
  eigenvalues    EBANDS =       392.98513048
  atomic energy  EATOM  =      3489.78669473
  Solvation  Ediel_sol  =         0.00000000
  ---------------------------------------------------
  free energy    TOTEN  =        -4.23309368 eV

  energy without entropy =       -4.14594800  energy(sigma->0) =       -4.20404512


--------------------------------------------------------------------------------------------------------




--------------------------------------- Iteration      1(   4)  ---------------------------------------


     EDDAV:  cpu time    0.0138: real time    0.0138
       DOS:  cpu time    0.0002: real time    0.0002
    --------------------------------------------
      LOOP:  cpu time    0.0139: real time    0.0139

 eigenvalue-minimisations  :    72
 total energy-change (2. order) :-0.2735641E+00  (-0.2714427E+00)
 number of electron      40.0000000 magnetization 
 augmentation part       40.0000000 magnetization 

 Free energy of the ion-electron system (eV)
  ---------------------------------------------------
  alpha Z        PSCENC =       294.32394985
  Ewald energy   TEWEN  =     -3641.45145672
  -Hartree energ DENC   =      -571.19890525
  -exchange      EXHF   =         0.00000000
  -V(xc)+E(xc)   XCENC  =         6.42737968
  PAW double counting   =      3282.45812088    -3257.47686163
  entropy T*S    EENTRO =        -0.08752215
  eigenvalues    EBANDS =       392.71194284
  atomic energy  EATOM  =      3489.78669473
  Solvation  Ediel_sol  =         0.00000000
  ---------------------------------------------------
  free energy    TOTEN  =        -4.50665778 eV

  energy without entropy =       -4.41913563  energy(sigma->0) =       -4.47748373


--------------------------------------------------------------------------------------------------------




--------------------------------------- Iteration      1(   5)  ---------------------------------------


     EDDAV:  cpu time    0.0144: real time    0.0144
       DOS:  cpu time    0.0002: real time    0.0002
    CHARGE:  cpu time    0.0029: real time    0.0029
    MIXING:  cpu time    0.0002: real time    0.0002
    --------------------------------------------
      LOOP:  cpu time    0.0177: real time    0.0177

 eigenvalue-minimisations  :    76
 total energy-change (2. order) :-0.1596655E-01  (-0.1596390E-01)
 number of electron      40.0000186 magnetization 
 augmentation part       17.7542808 magnetization 

 Broyden mixing:
  rms(total) = 0.72994E+01    rms(broyden)= 0.72978E+01
  rms(prec ) = 0.74399E+01
  weight for this iteration     100.00

 Free energy of the ion-electron system (eV)
  ---------------------------------------------------
  alpha Z        PSCENC =       294.32394985
  Ewald energy   TEWEN  =     -3641.45145672
  -Hartree energ DENC   =      -571.19890525
  -exchange      EXHF   =         0.00000000
  -V(xc)+E(xc)   XCENC  =         6.42737968
  PAW double counting   =      3282.45812088    -3257.47686163
  entropy T*S    EENTRO =        -0.08740524
  eigenvalues    EBANDS =       392.69585938
  atomic energy  EATOM  =      3489.78669473
  Solvation  Ediel_sol  =         0.00000000
  ---------------------------------------------------
  free energy    TOTEN  =        -4.52262433 eV

  energy without entropy =       -4.43521909  energy(sigma->0) =       -4.49348925


--------------------------------------------------------------------------------------------------------




--------------------------------------- Iteration      1(   6)  ---------------------------------------


    POTLOK:  cpu time    0.0077: real time    0.0077
    SETDIJ:  cpu time    0.0044: real time    0.0044
     EDDAV:  cpu time    0.0140: real time    0.0140
       DOS:  cpu time    0.0002: real time    0.0002
    CHARGE:  cpu time    0.0027: real time    0.0027
    MIXING:  cpu time    0.0003: real time    0.0003
    --------------------------------------------
      LOOP:  cpu time    0.0293: real time    0.0293

 eigenvalue-minimisations  :    74
 total energy-change (2. order) :-0.6396490E+00  (-0.1449188E+01)
 number of electron      40.0000303 magnetization 
 augmentation part       15.5573838 magnetization 

 Broyden mixing:
  rms(total) = 0.60250E+01    rms(broyden)= 0.60098E+01
  rms(prec ) = 0.93157E+01
  weight for this iteration     100.00

 eigenvalues of (default mixing * dielectric matrix)
  average eigenvalue GAMMA=   0.9922
  0.9922

 Free energy of the ion-electron system (eV)
  ---------------------------------------------------
  alpha Z        PSCENC =       294.32394985
  Ewald energy   TEWEN  =     -3641.45145672
  -Hartree energ DENC   =      -577.65489923
  -exchange      EXHF   =         0.00000000
  -V(xc)+E(xc)   XCENC  =         6.71947429
  PAW double counting   =      4188.53769589    -4171.70351930
  entropy T*S    EENTRO =        -0.07694037
  eigenvalues    EBANDS =       406.35672758
  atomic energy  EATOM  =      3489.78669473
  Solvation  Ediel_sol  =         0.00000000
  ---------------------------------------------------
  free energy    TOTEN  =        -5.16227330 eV

  energy without entropy =       -5.08533292  energy(sigma->0) =       -5.13662651


--------------------------------------------------------------------------------------------------------




--------------------------------------- Iteration      1(   7)  ---------------------------------------


    POTLOK:  cpu time    0.0075: real time    0.0076
    SETDIJ:  cpu time    0.0043: real time    0.0043
     EDDAV:  cpu time    0.0117: real time    0.0117
       DOS:  cpu time    0.0001: real time    0.0001
    CHARGE:  cpu time    0.0025: real time    0.0025
    MIXING:  cpu time    0.0003: real time    0.0003
    --------------------------------------------
      LOOP:  cpu time    0.0265: real time    0.0265

 eigenvalue-minimisations  :    66
 total energy-change (2. order) :-0.2708585E+01  (-0.1439923E+02)
 number of electron      40.0000230 magnetization 
 augmentation part       15.6226642 magnetization 

 Broyden mixing:
  rms(total) = 0.24668E+01    rms(broyden)= 0.24378E+01
  rms(prec ) = 0.59562E+01
  weight for this iteration     100.00

 eigenvalues of (default mixing * dielectric matrix)
  average eigenvalue GAMMA=   0.7678
  1.3003  0.2353

 Free energy of the ion-electron system (eV)
  ---------------------------------------------------
  alpha Z        PSCENC =       294.32394985
  Ewald energy   TEWEN  =     -3641.45145672
  -Hartree energ DENC   =      -545.82972942
  -exchange      EXHF   =         0.00000000
  -V(xc)+E(xc)   XCENC  =         5.31697775
  PAW double counting   =      4364.41379722    -4341.43774139
  entropy T*S    EENTRO =         0.03094338
  eigenvalues    EBANDS =       366.97570676
  atomic energy  EATOM  =      3489.78669473
  Solvation  Ediel_sol  =         0.00000000
  ---------------------------------------------------
  free energy    TOTEN  =        -7.87085784 eV

  energy without entropy =       -7.90180122  energy(sigma->0) =       -7.88117230


--------------------------------------------------------------------------------------------------------




--------------------------------------- Iteration      1(   8)  ---------------------------------------


    POTLOK:  cpu time    0.0075: real time    0.0075
    SETDIJ:  cpu time    0.0042: real time    0.0042
     EDDAV:  cpu time    0.0138: real time    0.0138
       DOS:  cpu time    0.0001: real time    0.0001
    CHARGE:  cpu time    0.0026: real time    0.0026
    MIXING:  cpu time    0.0003: real time    0.0003
    --------------------------------------------
      LOOP:  cpu time    0.0285: real time    0.0285

 eigenvalue-minimisations  :    82
 total energy-change (2. order) : 0.4934398E-01  (-0.1045442E+02)
 number of electron      40.0000196 magnetization 
 augmentation part       19.4756475 magnetization 

 Broyden mixing:
  rms(total) = 0.43567E+01    rms(broyden)= 0.43525E+01
  rms(prec ) = 0.54957E+01
  weight for this iteration     100.00

 eigenvalues of (default mixing * dielectric matrix)
  average eigenvalue GAMMA=   0.7780
  1.8263  0.3255  0.1822

 Free energy of the ion-electron system (eV)
  ---------------------------------------------------
  alpha Z        PSCENC =       294.32394985
  Ewald energy   TEWEN  =     -3641.45145672
  -Hartree energ DENC   =      -515.51378271
  -exchange      EXHF   =         0.00000000
  -V(xc)+E(xc)   XCENC  =         4.38209354
  PAW double counting   =      4739.92638704    -4728.06659882
  entropy T*S    EENTRO =         0.05891564
  eigenvalues    EBANDS =       348.73228359
  atomic energy  EATOM  =      3489.78669473
  Solvation  Ediel_sol  =         0.00000000
  ---------------------------------------------------
  free energy    TOTEN  =        -7.82151386 eV

  energy without entropy =       -7.88042950  energy(sigma->0) =       -7.84115241


--------------------------------------------------------------------------------------------------------




--------------------------------------- Iteration      1(   9)  ---------------------------------------


    POTLOK:  cpu time    0.0075: real time    0.0075
    SETDIJ:  cpu time    0.0042: real time    0.0042
     EDDAV:  cpu time    0.0116: real time    0.0116
       DOS:  cpu time    0.0001: real time    0.0001
    CHARGE:  cpu time    0.0026: real time    0.0026
    MIXING:  cpu time    0.0003: real time    0.0003
    --------------------------------------------
      LOOP:  cpu time    0.0263: real time    0.0263

 eigenvalue-minimisations  :    66
 total energy-change (2. order) : 0.1189155E+01  (-0.1387635E+01)
 number of electron      40.0000195 magnetization 
 augmentation part       18.0499533 magnetization 

 Broyden mixing:
  rms(total) = 0.22716E+01    rms(broyden)= 0.22684E+01
  rms(prec ) = 0.37171E+01
  weight for this iteration     100.00

 eigenvalues of (default mixing * dielectric matrix)
  average eigenvalue GAMMA=   0.8341
  2.3149  0.4096  0.4096  0.2021

 Free energy of the ion-electron system (eV)
  ---------------------------------------------------
  alpha Z        PSCENC =       294.32394985
  Ewald energy   TEWEN  =     -3641.45145672
  -Hartree energ DENC   =      -524.81999597
  -exchange      EXHF   =         0.00000000
  -V(xc)+E(xc)   XCENC  =         4.73880517
  PAW double counting   =      5388.15042513    -5381.55027635
  entropy T*S    EENTRO =        -0.11607435
  eigenvalues    EBANDS =       364.30556974
  atomic energy  EATOM  =      3489.78669473
  Solvation  Ediel_sol  =         0.00000000
  ---------------------------------------------------
  free energy    TOTEN  =        -6.63235879 eV

  energy without entropy =       -6.51628443  energy(sigma->0) =       -6.59366734


--------------------------------------------------------------------------------------------------------




--------------------------------------- Iteration      1(  10)  ---------------------------------------


    POTLOK:  cpu time    0.0075: real time    0.0075
    SETDIJ:  cpu time    0.0042: real time    0.0042
     EDDAV:  cpu time    0.0126: real time    0.0126
       DOS:  cpu time    0.0001: real time    0.0001
    CHARGE:  cpu time    0.0025: real time    0.0025
    MIXING:  cpu time    0.0003: real time    0.0003
    --------------------------------------------
      LOOP:  cpu time    0.0273: real time    0.0273

 eigenvalue-minimisations  :    74
 total energy-change (2. order) : 0.1283326E+01  (-0.3888065E+00)
 number of electron      40.0000202 magnetization 
 augmentation part       19.0571451 magnetization 

 Broyden mixing:
  rms(total) = 0.25681E+01    rms(broyden)= 0.25674E+01
  rms(prec ) = 0.35924E+01
  weight for this iteration     100.00

 eigenvalues of (default mixing * dielectric matrix)
  average eigenvalue GAMMA=   0.6850
  2.3593  0.4045  0.4045  0.2011  0.0559

 Free energy of the ion-electron system (eV)
  ---------------------------------------------------
  alpha Z        PSCENC =       294.32394985
  Ewald energy   TEWEN  =     -3641.45145672
  -Hartree energ DENC   =      -521.72868755
  -exchange      EXHF   =         0.00000000
  -V(xc)+E(xc)   XCENC  =         4.63550301
  PAW double counting   =      5638.05645889    -5632.00086537
  entropy T*S    EENTRO =        -0.11720973
  eigenvalues    EBANDS =       363.14657969
  atomic energy  EATOM  =      3489.78669473
  Solvation  Ediel_sol  =         0.00000000
  ---------------------------------------------------
  free energy    TOTEN  =        -5.34903321 eV

  energy without entropy =       -5.23182348  energy(sigma->0) =       -5.30996330


--------------------------------------------------------------------------------------------------------




--------------------------------------- Iteration      1(  11)  ---------------------------------------


    POTLOK:  cpu time    0.0075: real time    0.0075
    SETDIJ:  cpu time    0.0042: real time    0.0042
     EDDAV:  cpu time    0.0120: real time    0.0120
       DOS:  cpu time    0.0001: real time    0.0001
    CHARGE:  cpu time    0.0026: real time    0.0026
    MIXING:  cpu time    0.0003: real time    0.0003
    --------------------------------------------
      LOOP:  cpu time    0.0267: real time    0.0267

 eigenvalue-minimisations  :    68
 total energy-change (2. order) : 0.1170501E+00  (-0.1236789E+00)
 number of electron      40.0000203 magnetization 
 augmentation part       18.4160735 magnetization 

 Broyden mixing:
  rms(total) = 0.13198E+01    rms(broyden)= 0.13190E+01
  rms(prec ) = 0.24187E+01
  weight for this iteration     100.00

 eigenvalues of (default mixing * dielectric matrix)
  average eigenvalue GAMMA=   0.7026
  2.3589  0.5941  0.5941  0.3572  0.2060  0.1053

 Free energy of the ion-electron system (eV)
  ---------------------------------------------------
  alpha Z        PSCENC =       294.32394985
  Ewald energy   TEWEN  =     -3641.45145672
  -Hartree energ DENC   =      -522.61174078
  -exchange      EXHF   =         0.00000000
  -V(xc)+E(xc)   XCENC  =         4.66546413
  PAW double counting   =      5674.43966761    -5668.15275197
  entropy T*S    EENTRO =        -0.14946955
  eigenvalues    EBANDS =       363.91765957
  atomic energy  EATOM  =      3489.78669473
  Solvation  Ediel_sol  =         0.00000000
  ---------------------------------------------------
  free energy    TOTEN  =        -5.23198314 eV

  energy without entropy =       -5.08251359  energy(sigma->0) =       -5.18215996


--------------------------------------------------------------------------------------------------------




--------------------------------------- Iteration      1(  12)  ---------------------------------------


    POTLOK:  cpu time    0.0075: real time    0.0075
    SETDIJ:  cpu time    0.0043: real time    0.0043
     EDDAV:  cpu time    0.0129: real time    0.0129
       DOS:  cpu time    0.0001: real time    0.0001
    CHARGE:  cpu time    0.0025: real time    0.0025
    MIXING:  cpu time    0.0003: real time    0.0003
    --------------------------------------------
      LOOP:  cpu time    0.0276: real time    0.0276

 eigenvalue-minimisations  :    74
 total energy-change (2. order) : 0.6298354E+00  (-0.7408923E-01)
 number of electron      40.0000202 magnetization 
 augmentation part       18.5097695 magnetization 

 Broyden mixing:
  rms(total) = 0.18800E+01    rms(broyden)= 0.18794E+01
  rms(prec ) = 0.27285E+01
  weight for this iteration     100.00

 eigenvalues of (default mixing * dielectric matrix)
  average eigenvalue GAMMA=   0.7836
  2.4378  0.9665  0.9665  0.4052  0.4052  0.2032  0.1006

 Free energy of the ion-electron system (eV)
  ---------------------------------------------------
  alpha Z        PSCENC =       294.32394985
  Ewald energy   TEWEN  =     -3641.45145672
  -Hartree energ DENC   =      -529.82617071
  -exchange      EXHF   =         0.00000000
  -V(xc)+E(xc)   XCENC  =         4.94522528
  PAW double counting   =      5687.63154172    -5681.07502797
  entropy T*S    EENTRO =        -0.13941649
  eigenvalues    EBANDS =       371.20251255
  atomic energy  EATOM  =      3489.78669473
  Solvation  Ediel_sol  =         0.00000000
  ---------------------------------------------------
  free energy    TOTEN  =        -4.60214777 eV

  energy without entropy =       -4.46273128  energy(sigma->0) =       -4.55567560


--------------------------------------------------------------------------------------------------------




--------------------------------------- Iteration      1(  13)  ---------------------------------------


    POTLOK:  cpu time    0.0074: real time    0.0074
    SETDIJ:  cpu time    0.0042: real time    0.0042
     EDDAV:  cpu time    0.0149: real time    0.0149
       DOS:  cpu time    0.0001: real time    0.0001
    CHARGE:  cpu time    0.0025: real time    0.0025
    MIXING:  cpu time    0.0003: real time    0.0003
    --------------------------------------------
      LOOP:  cpu time    0.0295: real time    0.0295

 eigenvalue-minimisations  :    88
 total energy-change (2. order) : 0.2591707E+00  (-0.1065929E+00)
 number of electron      40.0000202 magnetization 
 augmentation part       18.5677985 magnetization 

 Broyden mixing:
  rms(total) = 0.11423E+01    rms(broyden)= 0.11404E+01
  rms(prec ) = 0.20169E+01
  weight for this iteration     100.00

 eigenvalues of (default mixing * dielectric matrix)
  average eigenvalue GAMMA=   0.7575
  2.5266  1.1352  1.1352  0.4219  0.4219  0.2035  0.1195  0.0960

 Free energy of the ion-electron system (eV)
  ---------------------------------------------------
  alpha Z        PSCENC =       294.32394985
  Ewald energy   TEWEN  =     -3641.45145672
  -Hartree energ DENC   =      -532.72994864
  -exchange      EXHF   =         0.00000000
  -V(xc)+E(xc)   XCENC  =         5.07240235
  PAW double counting   =      5719.29838061    -5712.38130511
  entropy T*S    EENTRO =        -0.10172800
  eigenvalues    EBANDS =       373.84003383
  atomic energy  EATOM  =      3489.78669473
  Solvation  Ediel_sol  =         0.00000000
  ---------------------------------------------------
  free energy    TOTEN  =        -4.34297712 eV

  energy without entropy =       -4.24124911  energy(sigma->0) =       -4.30906778


--------------------------------------------------------------------------------------------------------




--------------------------------------- Iteration      1(  14)  ---------------------------------------


    POTLOK:  cpu time    0.0075: real time    0.0075
    SETDIJ:  cpu time    0.0042: real time    0.0042
     EDDAV:  cpu time    0.0120: real time    0.0120
       DOS:  cpu time    0.0002: real time    0.0002
    CHARGE:  cpu time    0.0026: real time    0.0026
    MIXING:  cpu time    0.0004: real time    0.0004
    --------------------------------------------
      LOOP:  cpu time    0.0268: real time    0.0268

 eigenvalue-minimisations  :    66
 total energy-change (2. order) : 0.2735930E+00  (-0.3344187E-01)
 number of electron      40.0000201 magnetization 
 augmentation part       18.3594052 magnetization 

 Broyden mixing:
  rms(total) = 0.11706E+01    rms(broyden)= 0.11699E+01
  rms(prec ) = 0.19073E+01
  weight for this iteration     100.00

 eigenvalues of (default mixing * dielectric matrix)
  average eigenvalue GAMMA=   0.8802
  2.5339  1.6501  1.6501  0.6227  0.4902  0.4902  0.2056  0.1802  0.0991

 Free energy of the ion-electron system (eV)
  ---------------------------------------------------
  alpha Z        PSCENC =       294.32394985
  Ewald energy   TEWEN  =     -3641.45145672
  -Hartree energ DENC   =      -536.94833560
  -exchange      EXHF   =         0.00000000
  -V(xc)+E(xc)   XCENC  =         5.24432963
  PAW double counting   =      5767.94149800    -5760.74505979
  entropy T*S    EENTRO =        -0.10197740
  eigenvalues    EBANDS =       377.88097318
  atomic energy  EATOM  =      3489.78669473
  Solvation  Ediel_sol  =         0.00000000
  ---------------------------------------------------
  free energy    TOTEN  =        -4.06938413 eV

  energy without entropy =       -3.96740673  energy(sigma->0) =       -4.03539166


--------------------------------------------------------------------------------------------------------




--------------------------------------- Iteration      1(  15)  ---------------------------------------


    POTLOK:  cpu time    0.0076: real time    0.0076
    SETDIJ:  cpu time    0.0043: real time    0.0043
     EDDAV:  cpu time    0.0137: real time    0.0137
       DOS:  cpu time    0.0001: real time    0.0001
    CHARGE:  cpu time    0.0028: real time    0.0028
    MIXING:  cpu time    0.0005: real time    0.0005
    --------------------------------------------
      LOOP:  cpu time    0.0290: real time    0.0290

 eigenvalue-minimisations  :    74
 total energy-change (2. order) : 0.1674184E+00  (-0.3652782E+00)
 number of electron      40.0000184 magnetization 
 augmentation part       17.8924259 magnetization 

 Broyden mixing:
  rms(total) = 0.18564E+01    rms(broyden)= 0.18471E+01
  rms(prec ) = 0.29220E+01
  weight for this iteration     100.00

 eigenvalues of (default mixing * dielectric matrix)
  average eigenvalue GAMMA=   0.7799
  2.4268  1.5847  1.5847  0.5894  0.5089  0.5089  0.2125  0.1975  0.0994  0.0860

 Free energy of the ion-electron system (eV)
  ---------------------------------------------------
  alpha Z        PSCENC =       294.32394985
  Ewald energy   TEWEN  =     -3641.45145672
  -Hartree energ DENC   =      -546.74911705
  -exchange      EXHF   =         0.00000000
  -V(xc)+E(xc)   XCENC  =         5.65541909
  PAW double counting   =      5865.10405516    -5856.53972952
  entropy T*S    EENTRO =        -0.19321301
  eigenvalues    EBANDS =       386.16143174
  atomic energy  EATOM  =      3489.78669473
  Solvation  Ediel_sol  =         0.00000000
  ---------------------------------------------------
  free energy    TOTEN  =        -3.90196575 eV

  energy without entropy =       -3.70875273  energy(sigma->0) =       -3.83756141


--------------------------------------------------------------------------------------------------------




--------------------------------------- Iteration      1(  16)  ---------------------------------------


    POTLOK:  cpu time    0.0079: real time    0.0079
    SETDIJ:  cpu time    0.0045: real time    0.0045
     EDDAV:  cpu time    0.0131: real time    0.0131
       DOS:  cpu time    0.0001: real time    0.0001
    CHARGE:  cpu time    0.0027: real time    0.0027
    MIXING:  cpu time    0.0005: real time    0.0005
    --------------------------------------------
      LOOP:  cpu time    0.0288: real time    0.0288

 eigenvalue-minimisations  :    66
 total energy-change (2. order) : 0.9871540E-01  (-0.3909817E+00)
 number of electron      40.0000199 magnetization 
 augmentation part       18.2719428 magnetization 

 Broyden mixing:
  rms(total) = 0.81049E+00    rms(broyden)= 0.79764E+00
  rms(prec ) = 0.14049E+01
  weight for this iteration     100.00

 eigenvalues of (default mixing * dielectric matrix)
  average eigenvalue GAMMA=   0.8454
  2.4143  1.9494  1.9494  0.7727  0.7727  0.4447  0.4447  0.2052  0.1805  0.0992
  0.0667

 Free energy of the ion-electron system (eV)
  ---------------------------------------------------
  alpha Z        PSCENC =       294.32394985
  Ewald energy   TEWEN  =     -3641.45145672
  -Hartree energ DENC   =      -544.29554642
  -exchange      EXHF   =         0.00000000
  -V(xc)+E(xc)   XCENC  =         5.54456409
  PAW double counting   =      5837.76424545    -5829.54511449
  entropy T*S    EENTRO =        -0.11171937
  eigenvalues    EBANDS =       384.18113254
  atomic energy  EATOM  =      3489.78669473
  Solvation  Ediel_sol  =         0.00000000
  ---------------------------------------------------
  free energy    TOTEN  =        -3.80325034 eV

  energy without entropy =       -3.69153097  energy(sigma->0) =       -3.76601055


--------------------------------------------------------------------------------------------------------




--------------------------------------- Iteration      1(  17)  ---------------------------------------


    POTLOK:  cpu time    0.0077: real time    0.0077
    SETDIJ:  cpu time    0.0043: real time    0.0043
     EDDAV:  cpu time    0.0131: real time    0.0131
       DOS:  cpu time    0.0002: real time    0.0002
    CHARGE:  cpu time    0.0026: real time    0.0026
    MIXING:  cpu time    0.0005: real time    0.0005
    --------------------------------------------
      LOOP:  cpu time    0.0283: real time    0.0283

 eigenvalue-minimisations  :    74
 total energy-change (2. order) : 0.8713065E-01  (-0.1887766E+00)
 number of electron      40.0000187 magnetization 
 augmentation part       18.3375473 magnetization 

 Broyden mixing:
  rms(total) = 0.16644E+01    rms(broyden)= 0.16605E+01
  rms(prec ) = 0.25133E+01
  weight for this iteration     100.00

 eigenvalues of (default mixing * dielectric matrix)
  average eigenvalue GAMMA=   0.7965
  2.4113  2.0027  2.0027  0.7544  0.7544  0.4325  0.4325  0.1961  0.2042  0.2042
  0.0991  0.0633

 Free energy of the ion-electron system (eV)
  ---------------------------------------------------
  alpha Z        PSCENC =       294.32394985
  Ewald energy   TEWEN  =     -3641.45145672
  -Hartree energ DENC   =      -547.76093224
  -exchange      EXHF   =         0.00000000
  -V(xc)+E(xc)   XCENC  =         5.69036746
  PAW double counting   =      5865.31966498    -5856.76342474
  entropy T*S    EENTRO =        -0.15652533
  eigenvalues    EBANDS =       387.29554234
  atomic energy  EATOM  =      3489.78669473
  Solvation  Ediel_sol  =         0.00000000
  ---------------------------------------------------
  free energy    TOTEN  =        -3.71611969 eV

  energy without entropy =       -3.55959436  energy(sigma->0) =       -3.66394458


--------------------------------------------------------------------------------------------------------




--------------------------------------- Iteration      1(  18)  ---------------------------------------


    POTLOK:  cpu time    0.0077: real time    0.0077
    SETDIJ:  cpu time    0.0043: real time    0.0043
     EDDAV:  cpu time    0.0155: real time    0.0155
       DOS:  cpu time    0.0001: real time    0.0001
    CHARGE:  cpu time    0.0027: real time    0.0027
    MIXING:  cpu time    0.0005: real time    0.0005
    --------------------------------------------
      LOOP:  cpu time    0.0308: real time    0.0308

 eigenvalue-minimisations  :    90
 total energy-change (2. order) : 0.1651020E+00  (-0.1060804E+00)
 number of electron      40.0000195 magnetization 
 augmentation part       18.3445995 magnetization 

 Broyden mixing:
  rms(total) = 0.90161E+00    rms(broyden)= 0.89803E+00
  rms(prec ) = 0.14624E+01
  weight for this iteration     100.00

 eigenvalues of (default mixing * dielectric matrix)
  average eigenvalue GAMMA=   0.9292
  2.4737  2.4737  2.5224  0.9207  0.9207  0.6497  0.6497  0.4592  0.4592  0.2055
  0.1820  0.0992  0.0641

 Free energy of the ion-electron system (eV)
  ---------------------------------------------------
  alpha Z        PSCENC =       294.32394985
  Ewald energy   TEWEN  =     -3641.45145672
  -Hartree energ DENC   =      -549.45888237
  -exchange      EXHF   =         0.00000000
  -V(xc)+E(xc)   XCENC  =         5.74335863
  PAW double counting   =      5882.20041176    -5873.28018708
  entropy T*S    EENTRO =        -0.13702304
  eigenvalues    EBANDS =       388.72211652
  atomic energy  EATOM  =      3489.78669473
  Solvation  Ediel_sol  =         0.00000000
  ---------------------------------------------------
  free energy    TOTEN  =        -3.55101773 eV

  energy without entropy =       -3.41399469  energy(sigma->0) =       -3.50534338


--------------------------------------------------------------------------------------------------------




--------------------------------------- Iteration      1(  19)  ---------------------------------------


    POTLOK:  cpu time    0.0077: real time    0.0077
    SETDIJ:  cpu time    0.0044: real time    0.0044
     EDDAV:  cpu time    0.0136: real time    0.0136
       DOS:  cpu time    0.0002: real time    0.0002
    CHARGE:  cpu time    0.0028: real time    0.0028
    MIXING:  cpu time    0.0006: real time    0.0006
    --------------------------------------------
      LOOP:  cpu time    0.0293: real time    0.0293

 eigenvalue-minimisations  :    74
 total energy-change (2. order) : 0.8781831E-01  (-0.6337520E-01)
 number of electron      40.0000186 magnetization 
 augmentation part       18.3184564 magnetization 

 Broyden mixing:
  rms(total) = 0.14660E+01    rms(broyden)= 0.14645E+01
  rms(prec ) = 0.22062E+01
  weight for this iteration     100.00

 eigenvalues of (default mixing * dielectric matrix)
  average eigenvalue GAMMA=   0.9483
  2.6344  2.6344  2.5533  1.0011  1.0011  0.7427  0.7427  0.4597  0.4597  0.4964
  0.2055  0.1821  0.0992  0.0641

 Free energy of the ion-electron system (eV)
  ---------------------------------------------------
  alpha Z        PSCENC =       294.32394985
  Ewald energy   TEWEN  =     -3641.45145672
  -Hartree energ DENC   =      -553.76923268
  -exchange      EXHF   =         0.00000000
  -V(xc)+E(xc)   XCENC  =         5.91160400
  PAW double counting   =      5930.96472362    -5921.64654132
  entropy T*S    EENTRO =        -0.14838317
  eigenvalues    EBANDS =       392.56544227
  atomic energy  EATOM  =      3489.78669473
  Solvation  Ediel_sol  =         0.00000000
  ---------------------------------------------------
  free energy    TOTEN  =        -3.46319943 eV

  energy without entropy =       -3.31481626  energy(sigma->0) =       -3.41373837


--------------------------------------------------------------------------------------------------------




--------------------------------------- Iteration      1(  20)  ---------------------------------------


    POTLOK:  cpu time    0.0078: real time    0.0078
    SETDIJ:  cpu time    0.0044: real time    0.0044
     EDDAV:  cpu time    0.0156: real time    0.0156
       DOS:  cpu time    0.0002: real time    0.0002
    CHARGE:  cpu time    0.0027: real time    0.0027
    MIXING:  cpu time    0.0006: real time    0.0006
    --------------------------------------------
      LOOP:  cpu time    0.0312: real time    0.0312

 eigenvalue-minimisations  :    90
 total energy-change (2. order) : 0.1336229E+00  (-0.4086191E-01)
 number of electron      40.0000190 magnetization 
 augmentation part       18.2175572 magnetization 

 Broyden mixing:
  rms(total) = 0.87065E+00    rms(broyden)= 0.86921E+00
  rms(prec ) = 0.13568E+01
  weight for this iteration     100.00

 eigenvalues of (default mixing * dielectric matrix)
  average eigenvalue GAMMA=   0.9436
  2.6754  2.6754  2.5123  1.0632  1.0632  0.8107  0.8107  0.5909  0.4706  0.4706
  0.4596  0.2055  0.1821  0.0992  0.0641

 Free energy of the ion-electron system (eV)
  ---------------------------------------------------
  alpha Z        PSCENC =       294.32394985
  Ewald energy   TEWEN  =     -3641.45145672
  -Hartree energ DENC   =      -556.33885664
  -exchange      EXHF   =         0.00000000
  -V(xc)+E(xc)   XCENC  =         6.00008363
  PAW double counting   =      5961.13733705    -5951.45187008
  entropy T*S    EENTRO =        -0.15826921
  eigenvalues    EBANDS =       394.82281090
  atomic energy  EATOM  =      3489.78669473
  Solvation  Ediel_sol  =         0.00000000
  ---------------------------------------------------
  free energy    TOTEN  =        -3.32957651 eV

  energy without entropy =       -3.17130730  energy(sigma->0) =       -3.27682011


--------------------------------------------------------------------------------------------------------




--------------------------------------- Iteration      1(  21)  ---------------------------------------


    POTLOK:  cpu time    0.0076: real time    0.0076
    SETDIJ:  cpu time    0.0044: real time    0.0044
     EDDAV:  cpu time    0.0132: real time    0.0132
       DOS:  cpu time    0.0002: real time    0.0002
    CHARGE:  cpu time    0.0027: real time    0.0027
    MIXING:  cpu time    0.0006: real time    0.0006
    --------------------------------------------
      LOOP:  cpu time    0.0287: real time    0.0287

 eigenvalue-minimisations  :    74
 total energy-change (2. order) : 0.1707223E-01  (-0.7692816E-03)
 number of electron      40.0000187 magnetization 
 augmentation part       18.2794987 magnetization 

 Broyden mixing:
  rms(total) = 0.10931E+01    rms(broyden)= 0.10930E+01
  rms(prec ) = 0.16703E+01
  weight for this iteration     100.00

 eigenvalues of (default mixing * dielectric matrix)
  average eigenvalue GAMMA=   0.9915
  2.6693  2.6693  2.4866  1.5313  1.5313  0.9279  0.9279  0.6405  0.6405  0.4601
  0.4601  0.3676  0.2055  0.1821  0.0992  0.0641

 Free energy of the ion-electron system (eV)
  ---------------------------------------------------
  alpha Z        PSCENC =       294.32394985
  Ewald energy   TEWEN  =     -3641.45145672
  -Hartree energ DENC   =      -557.15469421
  -exchange      EXHF   =         0.00000000
  -V(xc)+E(xc)   XCENC  =         6.02771340
  PAW double counting   =      5967.47002367    -5957.67069908
  entropy T*S    EENTRO =        -0.14722753
  eigenvalues    EBANDS =       395.50319162
  atomic energy  EATOM  =      3489.78669473
  Solvation  Ediel_sol  =         0.00000000
  ---------------------------------------------------
  free energy    TOTEN  =        -3.31250429 eV

  energy without entropy =       -3.16527676  energy(sigma->0) =       -3.26342844


--------------------------------------------------------------------------------------------------------




--------------------------------------- Iteration      1(  22)  ---------------------------------------


    POTLOK:  cpu time    0.0077: real time    0.0077
    SETDIJ:  cpu time    0.0044: real time    0.0044
     EDDAV:  cpu time    0.0134: real time    0.0134
       DOS:  cpu time    0.0001: real time    0.0001
    CHARGE:  cpu time    0.0027: real time    0.0027
    MIXING:  cpu time    0.0007: real time    0.0007
    --------------------------------------------
      LOOP:  cpu time    0.0290: real time    0.0290

 eigenvalue-minimisations  :    74
 total energy-change (2. order) : 0.5917188E-01  (-0.9005357E-03)
 number of electron      40.0000188 magnetization 
 augmentation part       18.1374871 magnetization 

 Broyden mixing:
  rms(total) = 0.76270E+00    rms(broyden)= 0.76230E+00
  rms(prec ) = 0.11823E+01
  weight for this iteration     100.00

 eigenvalues of (default mixing * dielectric matrix)
  average eigenvalue GAMMA=   1.1421
  3.0675  3.0675  3.0168  2.0614  2.0614  1.1510  1.1510  0.6645  0.6645  0.6456
  0.4608  0.4608  0.3918  0.2055  0.1821  0.0992  0.0641

 Free energy of the ion-electron system (eV)
  ---------------------------------------------------
  alpha Z        PSCENC =       294.32394985
  Ewald energy   TEWEN  =     -3641.45145672
  -Hartree energ DENC   =      -558.84966700
  -exchange      EXHF   =         0.00000000
  -V(xc)+E(xc)   XCENC  =         6.08715525
  PAW double counting   =      5981.16791595    -5971.07032845
[...]


--------------------------------------------------------------------------------------------------------




--------------------------------------- Iteration      1(  58)  ---------------------------------------


    POTLOK:  cpu time    0.0077: real time    0.0077
    SETDIJ:  cpu time    0.0044: real time    0.0044
     EDDAV:  cpu time    0.0148: real time    0.0148
       DOS:  cpu time    0.0002: real time    0.0002
    CHARGE:  cpu time    0.0027: real time    0.0027
    MIXING:  cpu time    0.0021: real time    0.0021
    --------------------------------------------
      LOOP:  cpu time    0.0318: real time    0.0318

 eigenvalue-minimisations  :    82
 total energy-change (2. order) :-0.1485955E-01  (-0.1250504E-02)
 number of electron      40.0000183 magnetization 
 augmentation part       17.9100093 magnetization 

 Broyden mixing:
  rms(total) = 0.26265E+00    rms(broyden)= 0.26223E+00
  rms(prec ) = 0.48126E+00
  weight for this iteration     100.00

 eigenvalues of (default mixing * dielectric matrix)
  average eigenvalue GAMMA=   1.1781
  5.7402  5.3768  2.9760  2.9927  2.9927  2.7360  2.1133  2.1133  2.0416  1.3782
  1.3782  0.9340  0.9340  1.4454  1.4454  1.0683  1.0683  0.6264  0.6264  1.0847
  0.8563  0.8563  0.8840  0.8840  0.6749  0.6749  0.1673  0.4928  0.4928  0.2571
  0.2571  0.0070  0.0002  0.0460  0.0460  0.0564  0.5465  0.5465  0.4204  0.4204
  0.3221  0.3221  0.3541

 Free energy of the ion-electron system (eV)
  ---------------------------------------------------
  alpha Z        PSCENC =       294.32394985
  Ewald energy   TEWEN  =     -3641.45145672
  -Hartree energ DENC   =      -564.74722711
  -exchange      EXHF   =         0.00000000
  -V(xc)+E(xc)   XCENC  =         6.29605549
  PAW double counting   =      6033.17685257    -6021.95770031
  entropy T*S    EENTRO =        -0.15181567
  eigenvalues    EBANDS =       401.58749413
  atomic energy  EATOM  =      3489.78669473
  Solvation  Ediel_sol  =         0.00000000
  ---------------------------------------------------
  free energy    TOTEN  =        -3.13715305 eV

  energy without entropy =       -2.98533738  energy(sigma->0) =       -3.08654783


--------------------------------------------------------------------------------------------------------




--------------------------------------- Iteration      1(  59)  ---------------------------------------


    POTLOK:  cpu time    0.0078: real time    0.0078
    SETDIJ:  cpu time    0.0044: real time    0.0045
     EDDAV:  cpu time    0.0157: real time    0.0157
       DOS:  cpu time    0.0002: real time    0.0001
    CHARGE:  cpu time    0.0027: real time    0.0027
    MIXING:  cpu time    0.0022: real time    0.0022
    --------------------------------------------
      LOOP:  cpu time    0.0330: real time    0.0330

 eigenvalue-minimisations  :    90
 total energy-change (2. order) :-0.8218571E-03  (-0.6234986E-04)
 number of electron      40.0000184 magnetization 
 augmentation part       17.8775951 magnetization 

 Broyden mixing:
  rms(total) = 0.19588E+00    rms(broyden)= 0.19570E+00
  rms(prec ) = 0.42059E+00
  weight for this iteration     100.00

 eigenvalues of (default mixing * dielectric matrix)
  average eigenvalue GAMMA=   1.1909
  6.0497  5.4685  3.1636  3.0973  3.0973  2.8783  2.1237  2.1237  1.9698  1.1310
  1.1310  1.2373  1.2373  1.4966  1.4966  0.8508  0.8508  1.1370  0.5694  0.5694
  0.8221  0.8221  0.8628  0.8628  0.8478  0.8478  0.5705  0.5705  0.4854  0.4854
  0.0116  0.0317  0.0317  0.0007  0.0617  0.1126  0.5992  0.3076  0.3076  0.4300
  0.4300  0.5066  0.3271  0.3859

 Free energy of the ion-electron system (eV)
  ---------------------------------------------------
  alpha Z        PSCENC =       294.32394985
  Ewald energy   TEWEN  =     -3641.45145672
  -Hartree energ DENC   =      -564.61964079
  -exchange      EXHF   =         0.00000000
  -V(xc)+E(xc)   XCENC  =         6.29092791
  PAW double counting   =      6032.12455919    -6020.89888777
  entropy T*S    EENTRO =        -0.14392553
  eigenvalues    EBANDS =       401.44980424
  atomic energy  EATOM  =      3489.78669473
  Solvation  Ediel_sol  =         0.00000000
  ---------------------------------------------------
  free energy    TOTEN  =        -3.13797491 eV

  energy without entropy =       -2.99404938  energy(sigma->0) =       -3.08999973


--------------------------------------------------------------------------------------------------------




--------------------------------------- Iteration      1(  60)  ---------------------------------------


    POTLOK:  cpu time    0.0078: real time    0.0078
    SETDIJ:  cpu time    0.0048: real time    0.0048
     EDDAV:  cpu time    0.0129: real time    0.0129
       DOS:  cpu time    0.0002: real time    0.0002
    --------------------------------------------
      LOOP:  cpu time    0.0256: real time    0.0256

 eigenvalue-minimisations  :    66
 total energy-change (2. order) :-0.1008384E-01  (-0.2304426E-03)
 number of electron      40.0000184 magnetization 
 augmentation part       17.8775951 magnetization 

 Free energy of the ion-electron system (eV)
  ---------------------------------------------------
  alpha Z        PSCENC =       294.32394985
  Ewald energy   TEWEN  =     -3641.45145672
  -Hartree energ DENC   =      -564.10650807
  -exchange      EXHF   =         0.00000000
  -V(xc)+E(xc)   XCENC  =         6.27436501
  PAW double counting   =      6028.18595006    -6017.03850324
  entropy T*S    EENTRO =        -0.16387565
  eigenvalues    EBANDS =       401.04132529
  atomic energy  EATOM  =      3489.78669473
  Solvation  Ediel_sol  =         0.00000000
  ---------------------------------------------------
  free energy    TOTEN  =        -3.14805874 eV

  energy without entropy =       -2.98418309  energy(sigma->0) =       -3.09343353


--------------------------------------------------------------------------------------------------------




 average (electrostatic) potential at core
  the test charge radii are     1.1199  1.2793  1.2059  0.9430
  (the norm of the test charge is              1.0000)
       1 -66.8538       2 -45.4812       3 -60.8648       4 -56.1965
 
 
 
 E-fermi :  14.6016     XC(G=0): -14.1239     alpha+bet :-18.2693

 Fermi energy:        14.6016427385

 k-point     1 :       0.0000    0.0000    0.0000
  band No.  band energies     occupation 
      1       1.4091      2.00000
      2       3.7681      2.00000
      3       5.0805      2.00000
      4       5.6162      2.00000
      5       5.7466      2.00000
      6       5.9737      2.00000
      7       6.2334      2.00000
      8       9.7800      2.00000
      9      10.0542      2.00000
     10      10.1578      2.00000
     11      12.0762      2.00000
     12      12.0995      2.00000
     13      13.2310      2.00000
     14      13.7284      2.00000
     15      13.7753      2.00000
     16      13.8802      2.00000
     17      14.2762      2.04362
     18      14.4807      1.84437
     19      14.4956      1.77223
     20      14.6145      0.89171
     21      14.6310      0.75484
     22      14.6716      0.44596
     23      14.6962      0.29026
     24      14.7953     -0.04299
     25      23.9186      0.00000
     26      24.1277      0.00000
     27      24.2240      0.00000
     28      24.3916      0.00000
     29      24.5831      0.00000
     30      25.8953      0.00000


--------------------------------------------------------------------------------------------------------


 soft charge-density along one line, spin component           1
         0         1         2         3         4         5         6         7         8         9
x    22.1224    0.0000   -1.0903    0.0000    0.2457    0.0000    0.3926    0.0000   -0.4058    0.0000
x    -0.0130    0.0000    0.0685    0.0000    0.0067    0.0000    0.0000    0.0000
y    22.1224    0.0000    1.2534    0.0000    0.5079    0.0000   -0.2951   -0.0000   -0.0805    0.0000
y     0.0254   -0.0000    0.0878   -0.0000    0.0023    0.0000    0.0000    0.0000
z    22.1224    0.0000    0.3110    0.0000    0.5128    0.0000   -0.1935   -0.0000   -0.2673    0.0000
z     0.0044   -0.0000    0.0759   -0.0000   -0.0034    0.0000    0.0000    0.0000
 total charge-density along one line
x    40.0000    0.0000    4.1534    0.0000    9.8560   -0.0000    3.2985    0.0000    0.9038    0.0000
x     0.3072   -0.0000    0.0336    0.0000   -0.0155   -0.0000    0.0007   -0.0000    0.0026   -0.0000
x    -0.0007    0.0000   -0.0008   -0.0000    0.0005    0.0000    0.0004    0.0000   -0.0004   -0.0000
x    -0.0001    0.0000    0.0004    0.0000
y    40.0000    0.0000   -1.0120   -0.0000   10.4669    0.0000   -1.6972   -0.0000    1.5910   -0.0000
y    -0.1864   -0.0000    0.1062   -0.0000    0.0395    0.0000   -0.0003   -0.0000   -0.0064    0.0000
y    -0.0008    0.0000    0.0015    0.0000    0.0006   -0.0000   -0.0003    0.0000   -0.0004    0.0000
y    -0.0000    0.0000    0.0004    0.0000
z    40.0000    0.0000   -2.8998    0.0000   10.1646    0.0000   -2.1585   -0.0000    1.0488    0.0000
z    -0.2865   -0.0000    0.0368   -0.0000    0.0230    0.0000    0.0002    0.0000   -0.0051   -0.0000
z    -0.0009    0.0000    0.0019   -0.0000    0.0006   -0.0000   -0.0007    0.0000   -0.0004    0.0000
z     0.0002    0.0000    0.0004    0.0000
 
 pseudopotential strength for first ion, spin component:           1
 -0.638   0.000  -0.000   0.000  -0.000  -0.957   0.000  -0.000
  0.000  -0.241   0.000   0.000  -0.000   0.000  -0.577   0.000
 -0.000   0.000  -0.232   0.000   0.021  -0.000   0.000  -0.569
  0.000   0.000   0.000  -0.304   0.000   0.000   0.000   0.000
 -0.000  -0.000   0.021   0.000  -0.498  -0.000  -0.000   0.021
 -0.957   0.000  -0.000   0.000  -0.000  -1.239   0.000  -0.000
  0.000  -0.577   0.000   0.000  -0.000   0.000  -0.875   0.000
 -0.000   0.000  -0.569   0.000   0.021  -0.000   0.000  -0.868
  0.000   0.000   0.000  -0.638   0.000   0.000   0.000   0.000
 -0.000  -0.000   0.021   0.000  -0.823  -0.000  -0.000   0.020
 -0.000  -0.000  -0.073  -0.000   0.006  -0.000  -0.000  -0.070
 -0.000  -0.000  -0.123  -0.000   0.009  -0.000  -0.000  -0.119
  0.000   0.000  -0.000  -0.000  -0.000   0.000   0.000  -0.000
 -0.000   0.000   0.000   0.000   0.000  -0.000   0.000   0.000
  0.000  -0.000  -0.000   0.000   0.000   0.000  -0.000  -0.000
  0.000   0.000  -0.000  -0.000  -0.000   0.000   0.000  -0.000
 -0.000   0.000   0.000   0.000   0.000  -0.000   0.000   0.000
  0.000  -0.000  -0.000   0.000   0.000   0.000  -0.000  -0.000
 total augmentation occupancy for first ion, spin component:           1
  9.841   0.000  -0.000   0.000  -0.000 -10.072   0.000  -0.000   0.000   0.000   0.000   0.000   0.000   0.000   0.000   0.000
  0.000   7.782   0.000  -0.000   0.000   0.000  -6.183   0.000   0.000   0.000   0.000   0.000   0.000   0.000   0.000   0.000
 -0.000   0.000  13.491   0.000   0.424   0.000   0.000 -12.314   0.000  -0.520   1.448  -0.650   0.000   0.000   0.000   0.000
  0.000   0.000   0.000  18.388   0.000   0.000   0.000   0.000 -16.240   0.000   0.000   0.000   0.000   0.000   0.000   0.000
 -0.000   0.000   0.424   0.000  14.745  -0.000   0.000  -0.532   0.000 -13.108  -0.756   0.349   0.000   0.000   0.000   0.000
-10.072   0.000   0.000   0.000  -0.000  11.748   0.000   0.000   0.000   0.000  -0.000  -0.000   0.000   0.000   0.000   0.000
  0.000  -6.183   0.000   0.000   0.000   0.000   6.639   0.000  -0.000   0.000   0.000   0.000   0.000   0.000   0.000   0.000
  0.000   0.000 -12.314   0.000  -0.532   0.000   0.000  13.037   0.000   0.593  -0.708   0.222   0.000   0.000   0.000   0.000
  0.000   0.000   0.000 -16.240   0.000   0.000  -0.000   0.000  16.115   0.000   0.000   0.000   0.000   0.000   0.000   0.000
  0.000   0.000  -0.520   0.000 -13.108   0.000   0.000   0.593   0.000  13.446   0.563  -0.239   0.000   0.000   0.000   0.000
 -0.000   0.000   1.448   0.000  -0.756   0.000   0.000  -0.708   0.000   0.563   4.471  -1.295   0.000   0.000   0.000   0.000
  0.000   0.000  -0.650   0.000   0.349   0.000   0.000   0.222   0.000  -0.239  -1.295   0.406   0.000   0.000   0.000   0.000
  0.000   0.000   0.000   0.000   0.000   0.000   0.000   0.000   0.000   0.000   0.000   0.000   0.259   0.000  -0.000   0.016
  0.000   0.000   0.000   0.000   0.000   0.000   0.000   0.000   0.000   0.000   0.000   0.000   0.000   0.084   0.000   0.000
  0.000   0.000   0.000   0.000   0.000   0.000   0.000   0.000   0.000   0.000   0.000   0.000   0.000   0.000   0.120   0.000
  0.000   0.000   0.000   0.000   0.000   0.000   0.000   0.000   0.000   0.000   0.000   0.000   0.016   0.000  -0.000   0.001
  0.000   0.000   0.000   0.000   0.000   0.000   0.000   0.000   0.000   0.000   0.000   0.000   0.000   0.006   0.000   0.000
  0.000   0.000   0.000   0.000   0.000   0.000   0.000   0.000   0.000   0.000   0.000   0.000  -0.000   0.000   0.009   0.000


------------------------ aborting loop EDIFF was not reached (unconverged)  ----------------------------


 -----------------------------------------------------------------------------
|                                                                             |
|           W    W    AA    RRRRR   N    N  II  N    N   GGGG   !!!           |
|           W    W   A  A   R    R  NN   N  II  NN   N  G    G  !!!           |
|           W    W  A    A  R    R  N N  N  II  N N  N  G       !!!           |
|           W WW W  AAAAAA  RRRRR   N  N N  II  N  N N  G  GGG   !            |
|           WW  WW  A    A  R   R   N   NN  II  N   NN  G    G                |
|           W    W  A    A  R    R  N    N  II  N    N   GGGG   !!!           |
|                                                                             |
|     The electronic self-consistency was not achieved in the given           |
|     number of steps (NELM). The forces and other quantities evaluated       |
|     might not be reliable so examine the results carefully. If you find     |
|     spurious results, we suggest increasing NELM, if you were close to      |
|     convergence or switching to a different ALGO or adjusting the           |
|     density mixing parameters otherwise.                                    |
|                                                                             |
 -----------------------------------------------------------------------------

    CHARGE:  cpu time    0.0026: real time    0.0026
    FORLOC:  cpu time    0.0013: real time    0.0013
    FORNL :  cpu time    0.0094: real time    0.0094
    STRESS:  cpu time    0.0249: real time    0.0249
    FORCOR:  cpu time    0.0093: real time    0.0093
    FORHAR:  cpu time    0.0027: real time    0.0027
    MIXING:  cpu time    0.0021: real time    0.0021

  FORCE on cell =-STRESS in cart. coord.  units (eV):
  Direction    XX          YY          ZZ          XY          YZ          ZX
  --------------------------------------------------------------------------------------
  Alpha Z   294.32395   294.32395   294.32395
  Ewald   -1215.67993 -1210.09319 -1215.67993     0.00000    -0.00000     0.00000
  Hartree   187.29904   202.32937   194.90992    -0.00000    -0.00000    -0.00000
  E(xc)    -209.76155  -207.83554  -209.12771     0.00000     0.00000    -0.00000
  Local     230.63037   241.00128   242.54245     0.00000     0.00000     0.00000
  n-local   -21.26255   -18.73112   -26.82006     0.00000     0.00000     0.00000
  augment   267.91365   251.33793   263.56645    -0.00000    -0.00000     0.00000
  Kinetic   538.77376   511.85637   519.23738    -0.00000     0.00000    -0.00000
  Fock        0.00000     0.00000     0.00000     0.00000     0.00000     0.00000
  -------------------------------------------------------------------------------------
  Total      72.23673    64.18906    62.95245     0.00000     0.00000     0.00000
  in kB    2409.65796  2141.20543  2099.95486     0.00000     0.00000     0.00000
  external pressure =     2216.94 kB  Pullay stress =        0.00 kB


 VOLUME and BASIS-vectors are now :
 -----------------------------------------------------------------------------
  energy-cutoff  :      270.00
  volume of cell :       48.03
      direct lattice vectors                 reciprocal lattice vectors
     3.635000000  0.000000000  0.000000000     0.275103164  0.000000000  0.000000000
     0.000000000  3.635000000  0.000000000     0.000000000  0.275103164  0.000000000
     0.000000000  0.000000000  3.635000000     0.000000000  0.000000000  0.275103164

  length of vectors
     3.635000000  3.635000000  3.635000000     0.275103164  0.275103164  0.275103164


 FORCES acting on ions
    electron-ion (+dipol)            ewald-force                    non-local-force                 convergence-correction
 -----------------------------------------------------------------------------------------------
   -.331E-13 0.116E-13 0.109E-13   0.867E-14 -.106E-13 -.539E-14   -.356E-23 0.158E-20 -.983E-24   -.388E-13 0.106E-13 -.788E-13
   0.688E-15 0.358E-13 0.690E-14   0.109E-14 -.104E-14 -.382E-14   0.188E-22 -.414E-21 0.119E-23   -.767E-14 -.823E-14 -.567E-13
   0.216E-13 -.287E-14 0.684E-13   0.405E-14 0.203E-14 0.701E-14   0.166E-22 -.692E-21 -.679E-24   -.155E-13 0.418E-13 0.270E-13
   -.648E-13 0.300E-12 0.304E-12   -.111E-13 0.108E-13 0.211E-14   0.175E-23 0.130E-21 0.324E-22   -.866E-13 -.331E-13 0.807E-14
 -----------------------------------------------------------------------------------------------
   -.756E-13 0.344E-12 0.391E-12   0.269E-14 0.119E-14 -.871E-16   0.335E-22 0.600E-21 0.319E-22   -.149E-12 0.111E-13 -.100E-12
 
 
 POSITION                                       TOTAL-FORCE (eV/Angst)
 -----------------------------------------------------------------------------------
      0.00000      0.00000      0.00000         0.000000      0.000000      0.000000
      1.81750      1.81750      0.00000        -0.000000      0.000000      0.000000
      1.81750      0.00000      1.81750        -0.000000      0.000000      0.000000
      0.00000      1.81750      1.81750        -0.000000     -0.000000     -0.000000
 -----------------------------------------------------------------------------------
    total drift:                               -0.000000      0.000000      0.000000


--------------------------------------------------------------------------------------------------------



  FREE ENERGIE OF THE ION-ELECTRON SYSTEM (eV)
  ---------------------------------------------------
  free  energy   TOTEN  =        -3.14805874 eV

  energy  without entropy=       -2.98418309  energy(sigma->0) =       -3.09343353
 


--------------------------------------------------------------------------------------------------------


    POTLOK:  cpu time    0.0121: real time    0.0121


--------------------------------------------------------------------------------------------------------


 writing wavefunctions
     LOOP+:  cpu time    1.7837: real time    1.7916
    4ORBIT:  cpu time    0.0000: real time    0.0000

 total amount of memory used by VASP MPI-rank0    33253. kBytes
=======================================================================

   base      :      30000. kBytes
   nonl-proj :        295. kBytes
   grid      :       2641. kBytes
   one-center:         62. kBytes
   wavefun   :        255. kBytes
 
  
  
 General timing and accounting informations for this job:
 ========================================================
  
                  Total CPU time used (sec):        1.941
                            User time (sec):        1.909
                          System time (sec):        0.032
                         Elapsed time (sec):        1.943
  
                   Maximum memory used (kb):       41824.
                   Average memory used (kb):          N/A
  
                          Minor page faults:         4136
                          Major page faults:            1
                 Voluntary context switches:           26
