<?xml version="1.0" encoding="ISO-8859-1"?>
<modeling>
 <generator>
  <i name="program" type="string">vasp </i>
  <i name="version" type="string">6.2.0  </i>
  <i name="subversion" type="string">18Jan21 (build Mar 17 2021 09:06:54) complex                          serial </i>
  <i name="platform" type="string">LinuxIFC </i>
  <i name="date" type="string">2021 06 11 </i>
  <i name="time" type="string">11:30:26 </i>
 </generator>
 <incar>
  <i type="string" name="PREC">normal</i>
  <i type="int" name="ICHARG">     1</i>
  <i type="int" name="IBRION">    -1</i>
  <i name="EDIFF">      0.00000100</i>
  <i type="int" name="NSW">     0</i>
  <i name="ENCUT">    270.00000000</i>
  <i type="int" name="NBANDS">    30</i>
  <i type="int" name="ISMEAR">     1</i>
  <i name="SIGMA">      0.20000000</i>
  <i type="logical" name="LCHARG"> T  </i>
  <i type="int" name="KPAR">     1</i>
  <i type="int" name="NCORE">     1</i>
  <i type="string" name="GGA">PE</i>
 </incar>
 <primitive_cell>
  <structure name="primitive_cell" >
   <crystal>
    <varray name="basis" >
     <v>       3.63500000       0.00000000       0.00000000 </v>
     <v>       0.00000000       3.63500000       0.00000000 </v>
     <v>       0.00000000       0.00000000       3.63500000 </v>
    </varray>
    <i name="volume">     48.03007287 </i>
    <varray name="rec_basis" >
     <v>       0.27510316       0.00000000       0.00000000 </v>
     <v>       0.00000000       0.27510316       0.00000000 </v>
     <v>       0.00000000       0.00000000       0.27510316 </v>
    </varray>
   </crystal>
   <varray name="positions" >
    <v>       0.00000000       0.00000000       0.00000000 </v>
    <v>       0.50000000       0.50000000       0.00000000 </v>
    <v>       0.50000000       0.00000000       0.50000000 </v>
    <v>       0.00000000       0.50000000       0.50000000 </v>
   </varray>
  </structure>
  <varray name="primitive_index" >
   <v type="int" >        1 </v>
   <v type="int" >        2 </v>
   <v type="int" >        3 </v>
   <v type="int" >        4 </v>
  </varray>
 </primitive_cell>
 <kpoints>
  <generation param="Monkhorst-Pack">
   <v type="int" name="divisions">       1        1        1 </v>
   <v name="usershift">      0.00000000       0.00000000       0.00000000 </v>
   <v name="genvec1">      1.00000000       0.00000000       0.00000000 </v>
   <v name="genvec2">      0.00000000       1.00000000       0.00000000 </v>
   <v name="genvec3">      0.00000000       0.00000000       1.00000000 </v>
   <v name="shift">      0.00000000       0.00000000       0.00000000 </v>
  </generation>
  <varray name="kpointlist" >
   <v>       0.00000000       0.00000000       0.00000000 </v>
  </varray>
  <varray name="weights" >
   <v>       1.00000000 </v>
  </varray>
 </kpoints>
 <parameters>
  <separator name="general" >
   <i type="string" name="SYSTEM">unknown system</i>
   <i type="logical" name="LCOMPAT"> F  </i>
  </separator>
  <separator name="electronic" >
   <i type="string" name="PREC">normal</i>
   <i name="ENMAX">    270.00000000</i>
   <i name="ENAUG">    586.98000000</i>
   <i name="EDIFF">      0.00000100</i>
   <i type="int" name="IALGO">    38</i>
   <i type="int" name="IWAVPR">     0</i>
   <i type="int" name="NBANDS">    30</i>
   <i type="int" name="NBANDSLOW">    -1</i>
   <i type="int" name="NBANDSHIGH">    -1</i>
   <i name="NELECT">     40.00000000</i>
   <i type="int" name="TURBO">     0</i>
   <i type="int" name="IRESTART">     0</i>
   <i type="int" name="NREBOOT">     0</i>
   <i type="int" name="NMIN">     0</i>
   <i name="EREF">      0.00000000</i>
   <separator name="electronic smearing" >
    <i type="int" name="ISMEAR">     1</i>
    <i name="SIGMA">      0.20000000</i>
    <i name="KSPACING">      0.50000000</i>
    <i type="logical" name="KGAMMA"> T  </i>
    <i type="logical" name="KBLOWUP"> T  </i>
   </separator>
   <separator name="electronic projectors" >
    <i type="logical" name="LREAL"> F  </i>
    <v name="ROPT">      0.00000000      0.00000000      0.00000000      0.00000000</v>
    <i type="int" name="LMAXPAW">  -100</i>
    <i type="int" name="LMAXMIX">     2</i>
    <i type="logical" name="NLSPLINE"> F  </i>
   </separator>
   <separator name="electronic startup" >
    <i type="int" name="ISTART">     0</i>
    <i type="int" name="ICHARG">     1</i>
    <i type="int" name="INIWAV">     1</i>
   </separator>
   <separator name="electronic spin" >
    <i type="int" name="ISPIN">     1</i>
    <i type="logical" name="LNONCOLLINEAR"> F  </i>
    <v name="MAGMOM">      1.00000000      1.00000000      1.00000000      1.00000000</v>
    <i name="NUPDOWN">     -1.00000000</i>
    <i type="logical" name="LSORBIT"> F  </i>
    <v name="SAXIS">      0.00000000      0.00000000      1.00000000</v>
    <i type="logical" name="LSPIRAL"> F  </i>
    <v name="QSPIRAL">      0.00000000      0.00000000      0.00000000</v>
    <i type="logical" name="LZEROZ"> F  </i>
   </separator>
   <separator name="electronic exchange-correlation" >
    <i type="logical" name="LASPH"> F  </i>
    <i type="logical" name="LMETAGGA"> F  </i>
   </separator>
   <separator name="electronic convergence" >
    <i type="int" name="NELM">    60</i>
    <i type="int" name="NELMDL">    -5</i>
    <i type="int" name="NELMIN">     2</i>
    <i name="ENINI">    270.00000000</i>
    <separator name="electronic convergence detail" >
     <i type="logical" name="LDIAG"> T  </i>
     <i type="logical" name="LSUBROT"> F  </i>
     <i name="WEIMIN">      0.00000000</i>
     <i name="EBREAK">      0.00000001</i>
     <i name="DEPER">      0.30000000</i>
     <i type="int" name="NRMM">     4</i>
     <i name="TIME">      0.40000000</i>
    </separator>
   </separator>
   <separator name="electronic mixer" >
    <i name="AMIX">      0.40000000</i>
    <i name="BMIX">      1.00000000</i>
    <i name="AMIN">      0.10000000</i>
    <i name="AMIX_MAG">      1.60000000</i>
    <i name="BMIX_MAG">      1.00000000</i>
    <separator name="electronic mixer details" >
     <i type="int" name="IMIX">     4</i>
     <i type="logical" name="MIXFIRST"> F  </i>
     <i type="int" name="MAXMIX">   -45</i>
     <i name="WC">    100.00000000</i>
     <i type="int" name="INIMIX">     1</i>
     <i type="int" name="MIXPRE">     1</i>
     <i type="int" name="MREMOVE">     5</i>
    </separator>
   </separator>
   <separator name="electronic dipolcorrection" >
    <i type="logical" name="LDIPOL"> F  </i>
    <i type="logical" name="LMONO"> F  </i>
    <i type="int" name="IDIPOL">     0</i>
    <i name="EPSILON">      1.00000000</i>
    <v name="DIPOL">   -100.00000000   -100.00000000   -100.00000000</v>
    <i name="EFIELD">      0.00000000</i>
   </separator>
  </separator>
  <separator name="grids" >
   <i type="int" name="NGX">    16</i>
   <i type="int" name="NGY">    16</i>
   <i type="int" name="NGZ">    16</i>
   <i type="int" name="NGXF">    32</i>
   <i type="int" name="NGYF">    32</i>
   <i type="int" name="NGZF">    32</i>
   <i type="logical" name="ADDGRID"> F  </i>
  </separator>
  <separator name="ionic" >
   <i type="int" name="NSW">     0</i>
   <i type="int" name="IBRION">    -1</i>
   <i type="int" name="MDALGO">     0</i>
   <i type="int" name="ISIF">     2</i>
   <i name="PSTRESS">      0.00000000</i>
   <i name="EDIFFG">      0.00001000</i>
   <i type="int" name="NFREE">     0</i>
   <i name="POTIM">      0.50000000</i>
   <i name="SMASS">     -3.00000000</i>
   <i name="SCALEE">      1.00000000</i>
  </separator>
  <separator name="ionic md" >
   <i name="TEBEG">      0.00010000</i>
   <i name="TEEND">      0.00010000</i>
   <i type="int" name="NBLOCK">     1</i>
   <i type="int" name="KBLOCK">     1</i>
   <i type="int" name="NPACO">   256</i>
   <i name="APACO">     16.00000000</i>
  </separator>
  <separator name="symmetry" >
   <i type="int" name="ISYM">     2</i>
   <i name="SYMPREC">      0.00001000</i>
  </separator>
  <separator name="dos" >
   <i type="int" name="LORBIT">     0</i>
   <v name="RWIGS">     -1.00000000     -1.00000000     -1.00000000     -1.00000000</v>
   <i type="int" name="NEDOS">   301</i>
   <i name="EMIN">     10.00000000</i>
   <i name="EMAX">    -10.00000000</i>
   <i name="EFERMI">      0.00000000</i>
  </separator>
  <separator name="writing" >
   <i type="int" name="NWRITE">     2</i>
   <i type="logical" name="LWAVE"> T  </i>
   <i type="logical" name="LDOWNSAMPLE"> F  </i>
   <i type="logical" name="LCHARG"> T  </i>
   <i type="logical" name="LPARD"> F  </i>
   <i type="logical" name="LVTOT"> F  </i>
   <i type="logical" name="LVHAR"> F  </i>
   <i type="logical" name="LELF"> F  </i>
   <i type="logical" name="LOPTICS"> F  </i>
   <v name="STM">      0.00000000      0.00000000      0.00000000      0.00000000      0.00000000      0.00000000      0.00000000</v>
  </separator>
  <separator name="performance" >
   <i type="int" name="NPAR">     1</i>
   <i type="int" name="NSIM">     4</i>
   <i type="int" name="NBLK">    -1</i>
   <i type="logical" name="LPLANE"> T  </i>
   <i type="logical" name="LSCALAPACK"> F  </i>
   <i type="logical" name="LSCAAWARE"> F  </i>
   <i type="logical" name="LSCALU"> F  </i>
   <i type="logical" name="LASYNC"> F  </i>
   <i type="logical" name="LORBITALREAL"> F  </i>
  </separator>
  <separator name="miscellaneous" >
   <i type="int" name="IDIOT">     3</i>
   <i type="int" name="PHON_NSTRUCT">    -1</i>
   <i type="logical" name="LMUSIC"> F  </i>
   <v name="POMASS">    106.42000000    192.22000000    195.08000000     63.54600000</v>
   <v name="DARWINR">      0.00000000      0.00000000      0.00000000      0.00000000</v>
   <v name="DARWINV">      1.00000000      1.00000000      1.00000000      1.00000000</v>
   <i type="logical" name="LCORR"> T  </i>
  </separator>
  <i type="logical" name="GGA_COMPAT"> T  </i>
  <i type="logical" name="LBERRY"> F  </i>
  <i type="int" name="ICORELEVEL">     0</i>
  <i type="logical" name="LDAU"> F  </i>
  <i type="int" name="I_CONSTRAINED_M">     0</i>
  <separator name="electronic exchange-correlation" >
   <i type="string" name="GGA">PE</i>
   <i type="int" name="VOSKOWN">     0</i>
   <i type="logical" name="LHFCALC"> F  </i>
   <i type="string" name="PRECFOCK"></i>
   <i type="logical" name="LSYMGRAD"> F  </i>
   <i type="logical" name="LHFONE"> F  </i>
   <i type="logical" name="LRHFCALC"> F  </i>
   <i type="logical" name="LTHOMAS"> F  </i>
   <i type="logical" name="LMODELHF"> F  </i>
   <i type="logical" name="LFOCKACE"> F  </i>
   <i name="ENCUT4O">     -1.00000000</i>
   <i type="int" name="EXXOEP">     0</i>
   <i type="int" name="FOURORBIT">     0</i>
   <i name="AEXX">      0.00000000</i>
   <i name="HFALPHA">      0.00000000</i>
   <i name="MCALPHA">      0.00000000</i>
   <i name="ALDAX">      1.00000000</i>
   <i name="AGGAX">      1.00000000</i>
   <i name="ALDAC">      1.00000000</i>
   <i name="AGGAC">      1.00000000</i>
   <i type="int" name="NKREDX">     1</i>
   <i type="int" name="NKREDY">     1</i>
   <i type="int" name="NKREDZ">     1</i>
   <i type="logical" name="SHIFTRED"> F  </i>
   <i type="logical" name="ODDONLY"> F  </i>
   <i type="logical" name="EVENONLY"> F  </i>
   <i type="int" name="LMAXFOCK">     0</i>
   <i type="int" name="NMAXFOCKAE">     0</i>
   <i type="logical" name="LFOCKAEDFT"> F  </i>
   <i name="HFSCREEN">      0.00000000</i>
   <i name="HFSCREENC">      0.00000000</i>
   <i type="int" name="NBANDSGWLOW">     0</i>
  </separator>
  <separator name="vdW DFT" >
   <i type="logical" name="LUSE_VDW"> F  </i>
   <i name="Zab_VDW">     -0.84910000</i>
   <i name="PARAM1">      0.12340000</i>
   <i name="PARAM2">      1.00000000</i>
   <i name="PARAM3">      0.00000000</i>
  </separator>
  <separator name="model GW" >
   <i type="int" name="MODEL_GW">     0</i>
   <i name="MODEL_EPS0">      7.20451093</i>
   <i name="MODEL_ALPHA">      1.00000000</i>
  </separator>
  <separator name="linear response parameters" >
   <i type="logical" name="LEPSILON"> F  </i>
   <i type="logical" name="LRPA"> F  </i>
   <i type="logical" name="LNABLA"> F  </i>
   <i type="logical" name="LVEL"> F  </i>
   <i type="int" name="KINTER">     0</i>
   <i name="CSHIFT">      0.10000000</i>
   <i name="OMEGAMAX">     -1.00000000</i>
   <i name="DEG_THRESHOLD">      0.00200000</i>
   <i name="RTIME">     -0.10000000</i>
   <i name="WPLASMAI">      0.00000000</i>
   <v name="DFIELD">      0.00000000      0.00000000      0.00000000</v>
   <v name="WPLASMA">      0.00000000      0.00000000      0.00000000      0.00000000      0.00000000      0.00000000      0.00000000      0.00000000      0.00000000</v>
  </separator>
  <separator name="orbital magnetization" >
   <i type="logical" name="NUCIND"> F  </i>
   <v name="MAGPOS">      0.00000000      0.00000000      0.00000000</v>
   <i type="logical" name="LNICSALL"> T  </i>
   <i type="logical" name="ORBITALMAG"> F  </i>
   <i type="logical" name="LMAGBLOCH"> F  </i>
   <i type="logical" name="LCHIMAG"> F  </i>
   <i type="logical" name="LGAUGE"> T  </i>
   <i type="int" name="MAGATOM">     0</i>
   <v name="MAGDIPOL">      0.00000000      0.00000000      0.00000000</v>
   <v name="AVECCONST">      0.00000000      0.00000000      0.00000000</v>
  </separator>
  <separator name="response functions" >
   <i type="logical" name="LFINITE_TEMPERATURE"> F  </i>
   <i type="logical" name="LADDER"> F  </i>
   <i type="logical" name="LRPAFORCE"> F  </i>
   <i type="logical" name="LFXC"> F  </i>
   <i type="logical" name="LHARTREE"> T  </i>
   <i type="int" name="IBSE">     0</i>
   <v type="int" name="KPOINT">    -1     0     0     0</v>
   <i type="logical" name="LTCTC"> F  </i>
   <i type="logical" name="LTCTE"> F  </i>
   <i type="logical" name="LTETE"> F  </i>
   <i type="logical" name="LTRIPLET"> F  </i>
   <i type="logical" name="LFXCEPS"> F  </i>
   <i type="logical" name="LFXHEG"> F  </i>
   <i type="int" name="NATURALO">     2</i>
   <i type="logical" name="LHOLEGF"> F  </i>
   <i type="logical" name="L2ORDER"> F  </i>
   <i type="logical" name="LDMP1"> F  </i>
   <i type="logical" name="LMP2LT"> F  </i>
   <i type="logical" name="LSMP2LT"> F  </i>
   <i type="logical" name="LGWLF"> F  </i>
   <i name="ENCUTGW">     -2.00000000</i>
   <i name="ENCUTGWSOFT">     -2.00000000</i>
   <i name="ENCUTLF">     -1.00000000</i>
   <i type="logical" name="LESF_SPLINES"> F  </i>
   <i type="int" name="LMAXMP2">    -1</i>
   <i name="SCISSOR">      0.00000000</i>
   <i type="int" name="NOMEGA">     0</i>
   <i type="int" name="NOMEGAR">     0</i>
   <i type="int" name="NBANDSGW">    -1</i>
   <i type="int" name="NBANDSO">    -1</i>
   <i type="int" name="NBANDSV">    -1</i>
   <i type="int" name="NELM">     1</i>
   <i type="int" name="NELMHF">     1</i>
   <i type="int" name="DIM">     3</i>
   <i type="int" name="IESPILON">     4</i>
   <i type="int" name="ANTIRES">     0</i>
   <i name="OMEGAMAX">    -30.00000000</i>
   <i name="OMEGAMIN">    -30.00000000</i>
   <i name="OMEGATL">   -200.00000000</i>
   <i type="int" name="OMEGAGRID">     0</i>
   <i name="CSHIFT">     -0.10000000</i>
   <i type="logical" name="LSELFENERGY"> F  </i>
   <i type="logical" name="LSPECTRAL"> F  </i>
   <i type="logical" name="LSPECTRALGW"> F  </i>
   <i type="logical" name="LSINGLES"> F  </i>
   <i type="logical" name="LFERMIGW"> F  </i>
   <i type="logical" name="ODDONLYGW"> F  </i>
   <i type="logical" name="EVENONLYGW"> F  </i>
   <i type="int" name="NKREDLFX">     1</i>
   <i type="int" name="NKREDLFY">     1</i>
   <i type="int" name="NKREDLFZ">     1</i>
   <i type="int" name="MAXMEM">  2800</i>
   <i type="int" name="TELESCOPE">     0</i>
   <i type="int" name="NTAUPAR">    -1</i>
   <i type="int" name="NOMEGAPAR">    -1</i>
   <i name="DAMP_NEWTON">      0.80000001</i>
   <i name="LAMBDA">      1.00000000</i>
  </separator>
  <separator name="External order field" >
   <i name="OFIELD_KAPPA">      0.00000000</i>
   <v name="OFIELD_K">      0.00000000      0.00000000      0.00000000</v>
   <i name="OFIELD_Q6_NEAR">      0.00000000</i>
   <i name="OFIELD_Q6_FAR">      0.00000000</i>
   <i name="OFIELD_A">      0.00000000</i>
  </separator>
 </parameters>
 <atominfo>
  <atoms>       4 </atoms>
  <types>       4 </types>
  <array name="atoms" >
   <dimension dim="1">ion</dimension>
   <field type="string">element</field>
   <field type="int">atomtype</field>
   <set>
    <rc><c>Pd</c><c>   1</c></rc>
    <rc><c>Ir</c><c>   2</c></rc>
    <rc><c>Pt</c><c>   3</c></rc>
    <rc><c>Cu</c><c>   4</c></rc>
   </set>
  </array>
  <array name="atomtypes" >
   <dimension dim="1">type</dimension>
   <field type="int">atomspertype</field>
   <field type="string">element</field>
   <field>mass</field>
   <field>valence</field>
   <field type="string">pseudopotential</field>
   <set>
    <rc><c>   1</c><c>Pd</c><c>    106.42000000</c><c>     10.00000000</c><c>  PAW_PBE Pd 04Jan2005                  </c></rc>
    <rc><c>   1</c><c>Ir</c><c>    192.22000000</c><c>      9.00000000</c><c>  PAW_PBE Ir 06Sep2000                  </c></rc>
    <rc><c>   1</c><c>Pt</c><c>    195.08000000</c><c>     10.00000000</c><c>  PAW_PBE Pt 04Feb2005                  </c></rc>
    <rc><c>   1</c><c>Cu</c><c>     63.54600000</c><c>     11.00000000</c><c>  PAW_PBE Cu 22Jun2005                  </c></rc>
   </set>
  </array>
 </atominfo>
 <structure name="initialpos" >
  <crystal>
   <varray name="basis" >
    <v>       3.63500000       0.00000000       0.00000000 </v>
    <v>       0.00000000       3.63500000       0.00000000 </v>
    <v>       0.00000000       0.00000000       3.63500000 </v>
   </varray>
   <i name="volume">     48.03007287 </i>
   <varray name="rec_basis" >
    <v>       0.27510316       0.00000000       0.00000000 </v>
    <v>       0.00000000       0.27510316       0.00000000 </v>
    <v>       0.00000000       0.00000000       0.27510316 </v>
   </varray>
  </crystal>
  <varray name="positions" >
   <v>       0.00000000       0.00000000       0.00000000 </v>
   <v>       0.50000000       0.50000000       0.00000000 </v>
   <v>       0.50000000       0.00000000       0.50000000 </v>
   <v>       0.00000000       0.50000000       0.50000000 </v>
  </varray>
 </structure>
 <calculation>
  <scstep>
   <time name="dav">    0.02    0.02</time>
   <time name="total">    0.03    0.04</time>
   <energy>
    <i name="alphaZ">    294.32394985 </i>
    <i name="ewald">  -3641.45145672 </i>
    <i name="hartreedc">   -571.19890525 </i>
    <i name="XCdc">      6.42737968 </i>
    <i name="pawpsdc">   3282.45812088 </i>
    <i name="pawaedc">  -3257.47686163 </i>
    <i name="eentropy">      0.01284543 </i>
    <i name="bandstr">    637.42147527 </i>
    <i name="atom">   3489.78669473 </i>
    <i name="e_fr_energy">    240.30324223 </i>
    <i name="e_wo_entrp">    240.29039680 </i>
    <i name="e_0_energy">    240.29896042 </i>
   </energy>
  </scstep>
  <scstep>
   <time name="dav">    0.01    0.01</time>
   <time name="total">    0.01    0.01</time>
   <energy>
    <i name="e_fr_energy">      5.49597010 </i>
    <i name="e_wo_entrp">      5.50193854 </i>
    <i name="e_0_energy">      5.49795958 </i>
   </energy>
  </scstep>
  <scstep>
   <time name="dav">    0.01    0.01</time>
   <time name="total">    0.01    0.01</time>
   <energy>
    <i name="e_fr_energy">     -4.23309368 </i>
    <i name="e_wo_entrp">     -4.14594800 </i>
    <i name="e_0_energy">     -4.20404512 </i>
   </energy>
  </scstep>
  <scstep>
   <time name="dav">    0.01    0.01</time>
   <time name="total">    0.01    0.01</time>
   <energy>
    <i name="e_fr_energy">     -4.50665778 </i>
    <i name="e_wo_entrp">     -4.41913563 </i>
    <i name="e_0_energy">     -4.47748373 </i>
   </energy>
  </scstep>
  <scstep>
   <time name="dav">    0.01    0.01</time>
   <time name="total">    0.02    0.02</time>
   <energy>
    <i name="e_fr_energy">     -4.52262433 </i>
    <i name="e_wo_entrp">     -4.43521909 </i>
    <i name="e_0_energy">     -4.49348925 </i>
   </energy>
  </scstep>
  <scstep>
   <time name="dav">    0.01    0.01</time>
   <time name="total">    0.03    0.03</time>
   <energy>
    <i name="e_fr_energy">     -5.16227330 </i>
    <i name="e_wo_entrp">     -5.08533292 </i>
    <i name="e_0_energy">     -5.13662651 </i>
   </energy>
  </scstep>
  <scstep>
   <time name="dav">    0.01    0.01</time>
   <time name="total">    0.03    0.03</time>
   <energy>
    <i name="e_fr_energy">     -7.87085784 </i>
    <i name="e_wo_entrp">     -7.90180122 </i>
    <i name="e_0_energy">     -7.88117230 </i>
   </energy>
  </scstep>
  <scstep>
   <time name="dav">    0.01    0.01</time>
   <time name="total">    0.03    0.03</time>
   <energy>
    <i name="e_fr_energy">     -7.82151386 </i>
    <i name="e_wo_entrp">     -7.88042950 </i>
    <i name="e_0_energy">     -7.84115241 </i>
   </energy>
  </scstep>
  <scstep>
   <time name="dav">    0.01    0.01</time>
   <time name="total">    0.03    0.03</time>
   <energy>
    <i name="e_fr_energy">     -6.63235879 </i>
    <i name="e_wo_entrp">     -6.51628443 </i>
    <i name="e_0_energy">     -6.59366734 </i>
   </energy>
  </scstep>
  <scstep>
   <time name="dav">    0.01    0.01</time>
   <time name="total">    0.03    0.03</time>
   <energy>
    <i name="e_fr_energy">     -5.34903321 </i>
    <i name="e_wo_entrp">     -5.23182348 </i>
    <i name="e_0_energy">     -5.30996330 </i>
   </energy>
  </scstep>
  <scstep>
   <time name="dav">    0.01    0.01</time>
   <time name="total">    0.03    0.03</time>
   <energy>
    <i name="e_fr_energy">     -5.23198314 </i>
    <i name="e_wo_entrp">     -5.08251359 </i>
    <i name="e_0_energy">     -5.18215996 </i>
   </energy>
  </scstep>
  <scstep>
   <time name="dav">    0.01    0.01</time>
   <time name="total">    0.03    0.03</time>
   <energy>
    <i name="e_fr_energy">     -4.60214777 </i>
    <i name="e_wo_entrp">     -4.46273128 </i>
    <i name="e_0_energy">     -4.55567560 </i>
   </energy>
  </scstep>
  <scstep>
   <time name="dav">    0.01    0.01</time>
   <time name="total">    0.03    0.03</time>
   <energy>
    <i name="e_fr_energy">     -4.34297712 </i>
    <i name="e_wo_entrp">     -4.24124911 </i>
    <i name="e_0_energy">     -4.30906778 </i>
   </energy>
  </scstep>
  <scstep>
   <time name="dav">    0.01    0.01</time>
   <time name="total">    0.03    0.03</time>
   <energy>
    <i name="e_fr_energy">     -4.06938413 </i>
    <i name="e_wo_entrp">     -3.96740673 </i>
    <i name="e_0_energy">     -4.03539166 </i>
   </energy>
  </scstep>
  <scstep>
   <time name="dav">    0.01    0.01</time>
   <time name="total">    0.03    0.03</time>
   <energy>
    <i name="e_fr_energy">     -3.90196575 </i>
    <i name="e_wo_entrp">     -3.70875273 </i>
    <i name="e_0_energy">     -3.83756141 </i>
   </energy>
  </scstep>
  <scstep>
   <time name="dav">    0.01    0.01</time>
   <time name="total">    0.03    0.03</time>
   <energy>
    <i name="e_fr_energy">     -3.80325034 </i>
    <i name="e_wo_entrp">     -3.69153097 </i>
    <i name="e_0_energy">     -3.76601055 </i>
   </energy>
  </scstep>
  <scstep>
   <time name="dav">    0.01    0.01</time>
   <time name="total">    0.03    0.03</time>
   <energy>
    <i name="e_fr_energy">     -3.71611969 </i>
    <i name="e_wo_entrp">     -3.55959436 </i>
    <i name="e_0_energy">     -3.66394458 </i>
   </energy>
  </scstep>
  <scstep>
   <time name="dav">    0.02    0.02</time>
   <time name="total">    0.03    0.03</time>
   <energy>
    <i name="e_fr_energy">     -3.55101773 </i>
    <i name="e_wo_entrp">     -3.41399469 </i>
    <i name="e_0_energy">     -3.50534338 </i>
   </energy>
  </scstep>
  <scstep>
   <time name="dav">    0.01    0.01</time>
   <time name="total">    0.03    0.03</time>
   <energy>
    <i name="e_fr_energy">     -3.46319943 </i>
    <i name="e_wo_entrp">     -3.31481626 </i>
    <i name="e_0_energy">     -3.41373837 </i>
   </energy>
  </scstep>
  <scstep>
   <time name="dav">    0.02    0.02</time>
   <time name="total">    0.03    0.03</time>
   <energy>
    <i name="e_fr_energy">     -3.32957651 </i>
    <i name="e_wo_entrp">     -3.17130730 </i>
    <i name="e_0_energy">     -3.27682011 </i>
   </energy>
  </scstep>
  <scstep>
   <time name="dav">    0.01    0.01</time>
   <time name="total">    0.03    0.03</time>
   <energy>
    <i name="e_fr_energy">     -3.31250429 </i>
    <i name="e_wo_entrp">     -3.16527676 </i>
    <i name="e_0_energy">     -3.26342844 </i>
   </energy>
  </scstep>
  <scstep>
   <time name="dav">    0.01    0.01</time>
   <time name="total">    0.03    0.03</time>
   <energy>
    <i name="e_fr_energy">     -3.25333241 </i>
    <i name="e_wo_entrp">     -3.08748630 </i>
    <i name="e_0_energy">     -3.19805037 </i>
   </energy>
  </scstep>
  <scstep>
   <time name="dav">    0.01    0.01</time>
   <time name="total">    0.03    0.03</time>
   <energy>
    <i name="e_fr_energy">     -3.17623767 </i>
    <i name="e_wo_entrp">     -3.01940193 </i>
    <i name="e_0_energy">     -3.12395909 </i>
   </energy>
  </scstep>
  <scstep>
   <time name="dav">    0.01    0.01</time>
   <time name="total">    0.03    0.03</time>
   <energy>
    <i name="e_fr_energy">     -3.11994961 </i>
    <i name="e_wo_entrp">     -2.99299176 </i>
    <i name="e_0_energy">     -3.07763033 </i>
   </energy>
  </scstep>
  <scstep>
   <time name="dav">    0.01    0.01</time>
   <time name="total">    0.03    0.03</time>
   <energy>
    <i name="e_fr_energy">     -3.13402990 </i>
    <i name="e_wo_entrp">     -2.91766324 </i>
    <i name="e_0_energy">     -3.06190768 </i>
   </energy>
  </scstep>
  <scstep>
   <time name="dav">    0.01    0.01</time>
   <time name="total">    0.03    0.03</time>
   <energy>
    <i name="e_fr_energy">     -3.11476242 </i>
    <i name="e_wo_entrp">     -2.94134915 </i>
    <i name="e_0_energy">     -3.05695800 </i>
   </energy>
  </scstep>
  <scstep>
   <time name="dav">    0.01    0.01</time>
   <time name="total">    0.03    0.03</time>
   <energy>
    <i name="e_fr_energy">     -3.14517433 </i>
    <i name="e_wo_entrp">     -2.92959773 </i>
    <i name="e_0_energy">     -3.07331546 </i>
   </energy>
  </scstep>
  <scstep>
   <time name="dav">    0.01    0.01</time>
   <time name="total">    0.03    0.03</time>
   <energy>
    <i name="e_fr_energy">     -3.11820485 </i>
    <i name="e_wo_entrp">     -2.93580914 </i>
    <i name="e_0_energy">     -3.05740628 </i>
   </energy>
  </scstep>
  <scstep>
   <time name="dav">    0.01    0.01</time>
   <time name="total">    0.03    0.03</time>
   <energy>
    <i name="e_fr_energy">     -3.14576862 </i>
    <i name="e_wo_entrp">     -2.93719852 </i>
    <i name="e_0_energy">     -3.07624525 </i>
   </energy>
  </scstep>
  <scstep>
   <time name="dav">    0.01    0.01</time>
   <time name="total">    0.03    0.03</time>
   <energy>
    <i name="e_fr_energy">     -3.12015083 </i>
    <i name="e_wo_entrp">     -2.93388186 </i>
    <i name="e_0_energy">     -3.05806117 </i>
   </energy>
  </scstep>
  <scstep>
   <time name="dav">    0.01    0.01</time>
   <time name="total">    0.03    0.03</time>
   <energy>
    <i name="e_fr_energy">     -3.15350077 </i>
    <i name="e_wo_entrp">     -2.94956703 </i>
    <i name="e_0_energy">     -3.08552286 </i>
   </energy>
  </scstep>
  <scstep>
   <time name="dav">    0.01    0.01</time>
   <time name="total">    0.03    0.03</time>
   <energy>
    <i name="e_fr_energy">     -3.13003287 </i>
    <i name="e_wo_entrp">     -2.94183225 </i>
    <i name="e_0_energy">     -3.06729933 </i>
   </energy>
  </scstep>
  <scstep>
   <time name="dav">    0.02    0.02</time>
   <time name="total">    0.03    0.03</time>
   <energy>
    <i name="e_fr_energy">     -3.15238686 </i>
    <i name="e_wo_entrp">     -2.95372555 </i>
    <i name="e_0_energy">     -3.08616642 </i>
   </energy>
  </scstep>
  <scstep>
   <time name="dav">    0.01    0.01</time>
   <time name="total">    0.03    0.03</time>
   <energy>
    <i name="e_fr_energy">     -3.13160391 </i>
    <i name="e_wo_entrp">     -2.94114600 </i>
    <i name="e_0_energy">     -3.06811794 </i>
   </energy>
  </scstep>
  <scstep>
   <time name="dav">    0.01    0.01</time>
   <time name="total">    0.03    0.03</time>
   <energy>
    <i name="e_fr_energy">     -3.15033919 </i>
    <i name="e_wo_entrp">     -2.95234236 </i>
    <i name="e_0_energy">     -3.08434024 </i>
   </energy>
  </scstep>
  <scstep>
   <time name="dav">    0.01    0.01</time>
   <time name="total">    0.03    0.03</time>
   <energy>
    <i name="e_fr_energy">     -3.13066141 </i>
    <i name="e_wo_entrp">     -2.93989147 </i>
    <i name="e_0_energy">     -3.06707143 </i>
   </energy>
  </scstep>
  <scstep>
   <time name="dav">    0.01    0.01</time>
   <time name="total">    0.03    0.03</time>
   <energy>
    <i name="e_fr_energy">     -3.14760688 </i>
    <i name="e_wo_entrp">     -2.95023085 </i>
    <i name="e_0_energy">     -3.08181487 </i>
   </energy>
  </scstep>
  <scstep>
   <time name="dav">    0.01    0.01</time>
   <time name="total">    0.03    0.03</time>
   <energy>
    <i name="e_fr_energy">     -3.13026184 </i>
    <i name="e_wo_entrp">     -2.93964735 </i>
    <i name="e_0_energy">     -3.06672367 </i>
   </energy>
  </scstep>
  <scstep>
   <time name="dav">    0.01    0.01</time>
   <time name="total">    0.03    0.03</time>
   <energy>
    <i name="e_fr_energy">     -3.14728318 </i>
    <i name="e_wo_entrp">     -2.95000500 </i>
    <i name="e_0_energy">     -3.08152378 </i>
   </energy>
  </scstep>
  <scstep>
   <time name="dav">    0.01    0.01</time>
   <time name="total">    0.03    0.03</time>
   <energy>
    <i name="e_fr_energy">     -3.13015763 </i>
    <i name="e_wo_entrp">     -2.93977966 </i>
    <i name="e_0_energy">     -3.06669831 </i>
   </energy>
  </scstep>
  <scstep>
   <time name="dav">    0.01    0.01</time>
   <time name="total">    0.03    0.03</time>
   <energy>
    <i name="e_fr_energy">     -3.14966833 </i>
    <i name="e_wo_entrp">     -2.95198544 </i>
    <i name="e_0_energy">     -3.08377404 </i>
   </energy>
  </scstep>
  <scstep>
   <time name="dav">    0.01    0.01</time>
   <time name="total">    0.03    0.03</time>
   <energy>
    <i name="e_fr_energy">     -3.12991710 </i>
    <i name="e_wo_entrp">     -2.93988265 </i>
    <i name="e_0_energy">     -3.06657229 </i>
   </energy>
  </scstep>
  <scstep>
   <time name="dav">    0.01    0.01</time>
   <time name="total">    0.03    0.03</time>
   <energy>
    <i name="e_fr_energy">     -3.15396415 </i>
    <i name="e_wo_entrp">     -2.95576087 </i>
    <i name="e_0_energy">     -3.08789639 </i>
   </energy>
  </scstep>
  <scstep>
   <time name="dav">    0.01    0.01</time>
   <time name="total">    0.03    0.03</time>
   <energy>
    <i name="e_fr_energy">     -3.12946957 </i>
    <i name="e_wo_entrp">     -2.93953707 </i>
    <i name="e_0_energy">     -3.06615873 </i>
   </energy>
  </scstep>
  <scstep>
   <time name="dav">    0.01    0.01</time>
   <time name="total">    0.03    0.03</time>
   <energy>
    <i name="e_fr_energy">     -3.15732642 </i>
    <i name="e_wo_entrp">     -2.95880892 </i>
    <i name="e_0_energy">     -3.09115392 </i>
   </energy>
  </scstep>
  <scstep>
   <time name="dav">    0.01    0.01</time>
   <time name="total">    0.03    0.03</time>
   <energy>
    <i name="e_fr_energy">     -3.12884361 </i>
    <i name="e_wo_entrp">     -2.93849287 </i>
    <i name="e_0_energy">     -3.06539336 </i>
   </energy>
  </scstep>
  <scstep>
   <time name="dav">    0.01    0.01</time>
   <time name="total">    0.03    0.03</time>
   <energy>
    <i name="e_fr_energy">     -3.15894967 </i>
    <i name="e_wo_entrp">     -2.96013598 </i>
    <i name="e_0_energy">     -3.09267844 </i>
   </energy>
  </scstep>
  <scstep>
   <time name="dav">    0.01    0.01</time>
   <time name="total">    0.03    0.03</time>
   <energy>
    <i name="e_fr_energy">     -3.12806060 </i>
    <i name="e_wo_entrp">     -2.93730114 </i>
    <i name="e_0_energy">     -3.06447412 </i>
   </energy>
  </scstep>
  <scstep>
   <time name="dav">    0.01    0.01</time>
   <time name="total">    0.03    0.03</time>
   <energy>
    <i name="e_fr_energy">     -3.16000412 </i>
    <i name="e_wo_entrp">     -2.96102467 </i>
    <i name="e_0_energy">     -3.09367764 </i>
   </energy>
  </scstep>
  <scstep>
   <time name="dav">    0.01    0.01</time>
   <time name="total">    0.03    0.03</time>
   <energy>
    <i name="e_fr_energy">     -3.12770836 </i>
    <i name="e_wo_entrp">     -2.93660423 </i>
    <i name="e_0_energy">     -3.06400698 </i>
   </energy>
  </scstep>
  <scstep>
   <time name="dav">    0.01    0.01</time>
   <time name="total">    0.03    0.03</time>
   <energy>
    <i name="e_fr_energy">     -3.34824200 </i>
    <i name="e_wo_entrp">     -3.15518778 </i>
    <i name="e_0_energy">     -3.28389059 </i>
   </energy>
  </scstep>
  <scstep>
   <time name="dav">    0.01    0.01</time>
   <time name="total">    0.03    0.03</time>
   <energy>
    <i name="e_fr_energy">     -3.10362409 </i>
    <i name="e_wo_entrp">     -2.98051002 </i>
    <i name="e_0_energy">     -3.06258607 </i>
   </energy>
  </scstep>
  <scstep>
   <time name="dav">    0.01    0.01</time>
   <time name="total">    0.03    0.03</time>
   <energy>
    <i name="e_fr_energy">     -3.33914790 </i>
    <i name="e_wo_entrp">     -3.17318814 </i>
    <i name="e_0_energy">     -3.28382798 </i>
   </energy>
  </scstep>
  <scstep>
   <time name="dav">    0.01    0.01</time>
   <time name="total">    0.03    0.03</time>
   <energy>
    <i name="e_fr_energy">     -3.14922078 </i>
    <i name="e_wo_entrp">     -2.94892363 </i>
    <i name="e_0_energy">     -3.08245506 </i>
   </energy>
  </scstep>
  <scstep>
   <time name="dav">    0.01    0.01</time>
   <time name="total">    0.03    0.03</time>
   <energy>
    <i name="e_fr_energy">     -3.22246261 </i>
    <i name="e_wo_entrp">     -3.03418515 </i>
    <i name="e_0_energy">     -3.15970346 </i>
   </energy>
  </scstep>
  <scstep>
   <time name="dav">    0.01    0.01</time>
   <time name="total">    0.03    0.03</time>
   <energy>
    <i name="e_fr_energy">     -3.13534932 </i>
    <i name="e_wo_entrp">     -2.97879611 </i>
    <i name="e_0_energy">     -3.08316492 </i>
   </energy>
  </scstep>
  <scstep>
   <time name="dav">    0.01    0.01</time>
   <time name="total">    0.03    0.03</time>
   <energy>
    <i name="e_fr_energy">     -3.12229350 </i>
    <i name="e_wo_entrp">     -2.99629110 </i>
    <i name="e_0_energy">     -3.08029270 </i>
   </energy>
  </scstep>
  <scstep>
   <time name="dav">    0.01    0.01</time>
   <time name="total">    0.03    0.03</time>
   <energy>
    <i name="e_fr_energy">     -3.13715305 </i>
    <i name="e_wo_entrp">     -2.98533738 </i>
    <i name="e_0_energy">     -3.08654783 </i>
   </energy>
  </scstep>
  <scstep>
   <time name="dav">    0.02    0.02</time>
   <time name="total">    0.03    0.03</time>
   <energy>
    <i name="e_fr_energy">     -3.13797491 </i>
    <i name="e_wo_entrp">     -2.99404938 </i>
    <i name="e_0_energy">     -3.08999973 </i>
   </energy>
  </scstep>
  <scstep>
   <time name="dav">    0.01    0.01</time>
   <time name="total">    0.03    0.03</time>
   <energy>
    <i name="alphaZ">    294.32394985 </i>
    <i name="ewald">  -3641.45145672 </i>
    <i name="hartreedc">   -564.10650807 </i>
    <i name="XCdc">      6.27436501 </i>
    <i name="pawpsdc">   6028.18595006 </i>
    <i name="pawaedc">  -6017.03850324 </i>
    <i name="eentropy">     -0.16387565 </i>
    <i name="bandstr">    401.04132529 </i>
    <i name="atom">   3489.78669473 </i>
    <i name="e_fr_energy">     -3.14805874 </i>
    <i name="e_wo_entrp">     -2.98418309 </i>
    <i name="e_0_energy">     -3.09343353 </i>
   </energy>
  </scstep>
  <structure>
   <crystal>
    <varray name="basis" >
     <v>       3.63500000       0.00000000       0.00000000 </v>
     <v>       0.00000000       3.63500000       0.00000000 </v>
     <v>       0.00000000       0.00000000       3.63500000 </v>
    </varray>
    <i name="volume">     48.03007287 </i>
    <varray name="rec_basis" >
     <v>       0.27510316       0.00000000       0.00000000 </v>
     <v>       0.00000000       0.27510316       0.00000000 </v>
     <v>       0.00000000       0.00000000       0.27510316 </v>
    </varray>
   </crystal>
   <varray name="positions" >
    <v>       0.00000000       0.00000000       0.00000000 </v>
    <v>       0.50000000       0.50000000       0.00000000 </v>
    <v>       0.50000000       0.00000000       0.50000000 </v>
    <v>       0.00000000       0.50000000       0.50000000 </v>
   </varray>
  </structure>
  <varray name="forces" >
   <v>       0.00000000       0.00000000       0.00000000 </v>
   <v>      -0.00000000       0.00000000       0.00000000 </v>
   <v>      -0.00000000       0.00000000       0.00000000 </v>
   <v>      -0.00000000      -0.00000000      -0.00000000 </v>
  </varray>
  <varray name="stress" >
   <v>    2409.65796058       0.00000000       0.00000000 </v>
   <v>       0.00000000    2141.20542970       0.00000000 </v>
   <v>       0.00000000       0.00000000    2099.95485752 </v>
  </varray>
  <energy>
   <i name="e_fr_energy">     -3.14805874 </i>
   <i name="e_wo_entrp">     -2.98418309 </i>
   <i name="e_0_energy">     -3.09343353 </i>
  </energy>
  <time name="totalsc">    1.78    1.79</time>
  <eigenvalues>
   <array>
    <dimension dim="1">band</dimension>
    <dimension dim="2">kpoint</dimension>
    <dimension dim="3">spin</dimension>
    <field>eigene</field>
    <field>occ</field>
    <set>
     <set comment="spin 1">
      <set comment="kpoint 1">
       <r>    1.4091    1.0000 </r>
       <r>    3.7681    1.0000 </r>
       <r>    5.0805    1.0000 </r>
       <r>    5.6162    1.0000 </r>
       <r>    5.7466    1.0000 </r>
       <r>    5.9737    1.0000 </r>
       <r>    6.2334    1.0000 </r>
       <r>    9.7800    1.0000 </r>
       <r>   10.0542    1.0000 </r>
       <r>   10.1578    1.0000 </r>
       <r>   12.0762    1.0000 </r>
       <r>   12.0995    1.0000 </r>
       <r>   13.2310    1.0000 </r>
       <r>   13.7284    1.0000 </r>
       <r>   13.7753    1.0000 </r>
       <r>   13.8802    1.0000 </r>
       <r>   14.2762    1.0218 </r>
       <r>   14.4807    0.9222 </r>
       <r>   14.4956    0.8861 </r>
       <r>   14.6145    0.4459 </r>
       <r>   14.6310    0.3774 </r>
       <r>   14.6716    0.2230 </r>
       <r>   14.6962    0.1451 </r>
       <r>   14.7953   -0.0215 </r>
       <r>   23.9186    0.0000 </r>
       <r>   24.1277    0.0000 </r>
       <r>   24.2240    0.0000 </r>
       <r>   24.3916    0.0000 </r>
       <r>   24.5831    0.0000 </r>
       <r>   25.8953    0.0000 </r>
      </set>
     </set>
    </set>
   </array>
  </eigenvalues>
  <separator name="orbital magnetization" >
   <v name="MAGDIPOLOUT">      0.00000000      0.00000000      0.00000000</v>
  </separator>
  <dos>
   <i name="efermi">     14.60164274 </i>
   <total>
    <array>
     <dimension dim="1">gridpoints</dimension>
     <dimension dim="2">spin</dimension>
     <field>energy</field>
     <field>total</field>
     <field>integrated</field>
     <set>
      <set comment="spin 1">
       <r>    -0.5909     0.0000     0.0000 </r>
       <r>    -0.4960     0.0000     0.0000 </r>
       <r>    -0.4010     0.0000     0.0000 </r>
       <r>    -0.3061     0.0000     0.0000 </r>
       <r>    -0.2111    -0.0000    -0.0000 </r>
       <r>    -0.1162    -0.0000    -0.0000 </r>
       <r>    -0.0212    -0.0000    -0.0000 </r>
       <r>     0.0737    -0.0000    -0.0000 </r>
       <r>     0.1687    -0.0000    -0.0000 </r>
       <r>     0.2637    -0.0000    -0.0000 </r>
       <r>     0.3586    -0.0000    -0.0000 </r>
       <r>     0.4536    -0.0000    -0.0000 </r>
       <r>     0.5485    -0.0000    -0.0000 </r>
       <r>     0.6435    -0.0000    -0.0000 </r>
       <r>     0.7384    -0.0002    -0.0000 </r>
       <r>     0.8334    -0.0036    -0.0004 </r>
       <r>     0.9283    -0.0333    -0.0035 </r>
       <r>     1.0233    -0.1733    -0.0200 </r>
       <r>     1.1182    -0.4139    -0.0593 </r>
       <r>     1.2132     0.1430    -0.0457 </r>
       <r>     1.3082     3.1646     0.2548 </r>
       <r>     1.4031     7.3169     0.9496 </r>
       <r>     1.4981     7.6585     1.6768 </r>
       <r>     1.5930     3.7130     2.0293 </r>
       <r>     1.6880     0.3645     2.0639 </r>
       <r>     1.7829    -0.4225     2.0238 </r>
       <r>     1.8779    -0.2034     2.0045 </r>
       <r>     1.9728    -0.0424     2.0005 </r>
       <r>     2.0678    -0.0049     2.0000 </r>
       <r>     2.1627    -0.0003     2.0000 </r>
       <r>     2.2577    -0.0000     2.0000 </r>
       <r>     2.3526    -0.0000     2.0000 </r>
       <r>     2.4476    -0.0000     2.0000 </r>
       <r>     2.5426    -0.0000     2.0000 </r>
       <r>     2.6375    -0.0000     2.0000 </r>
       <r>     2.7325    -0.0000     2.0000 </r>
       <r>     2.8274    -0.0000     2.0000 </r>
       <r>     2.9224    -0.0000     2.0000 </r>
       <r>     3.0173    -0.0000     2.0000 </r>
       <r>     3.1123    -0.0004     2.0000 </r>
       <r>     3.2072    -0.0053     1.9995 </r>
       <r>     3.3022    -0.0449     1.9952 </r>
       <r>     3.3971    -0.2111     1.9752 </r>
       <r>     3.4921    -0.4225     1.9350 </r>
       <r>     3.5871     0.4260     1.9755 </r>
       <r>     3.6820     3.8508     2.3411 </r>
       <r>     3.7770     7.7311     3.0752 </r>
       <r>     3.8719     7.2220     3.7610 </r>
       <r>     3.9669     3.0331     4.0490 </r>
       <r>     4.0618     0.0952     4.0580 </r>
       <r>     4.1568    -0.4100     4.0191 </r>
       <r>     4.2517    -0.1663     4.0033 </r>
       <r>     4.3467    -0.0314     4.0003 </r>
       <r>     4.4416    -0.0039     4.0000 </r>
       <r>     4.5366    -0.0082     3.9992 </r>
       <r>     4.6315    -0.0620     3.9933 </r>
       <r>     4.7265    -0.2583     3.9688 </r>
       <r>     4.8215    -0.4033     3.9305 </r>
       <r>     4.9164     0.8367     4.0099 </r>
       <r>     5.0114     4.6562     4.4520 </r>
       <r>     5.1063     8.0347     5.2150 </r>
       <r>     5.2013     6.4817     5.8304 </r>
       <r>     5.2962     1.8944     6.0103 </r>
       <r>     5.3912    -0.6135     5.9520 </r>
       <r>     5.4861     1.1331     6.0596 </r>
       <r>     5.5811     6.7292     6.6986 </r>
       <r>     5.6760    12.3103     7.8675 </r>
       <r>     5.7710    13.1145     9.1128 </r>
       <r>     5.8660    10.4007    10.1004 </r>
       <r>     5.9609     8.6618    10.9229 </r>
       <r>     6.0559     7.9209    11.6750 </r>
       <r>     6.1508     7.5941    12.3961 </r>
       <r>     6.2458     8.1796    13.1728 </r>
       <r>     6.3407     6.6617    13.8053 </r>
       <r>     6.4357     2.6578    14.0577 </r>
       <r>     6.5306    -0.0059    14.0571 </r>
       <r>     6.6256    -0.4105    14.0182 </r>
       <r>     6.7205    -0.1588    14.0031 </r>
       <r>     6.8155    -0.0292    14.0003 </r>
       <r>     6.9104    -0.0030    14.0000 </r>
       <r>     7.0054    -0.0002    14.0000 </r>
       <r>     7.1004    -0.0000    14.0000 </r>
       <r>     7.1953    -0.0000    14.0000 </r>
       <r>     7.2903    -0.0000    14.0000 </r>
       <r>     7.3852    -0.0000    14.0000 </r>
       <r>     7.4802    -0.0000    14.0000 </r>
       <r>     7.5751     0.0000    14.0000 </r>
       <r>     7.6701     0.0000    14.0000 </r>
       <r>     7.7650     0.0000    14.0000 </r>
       <r>     7.8600     0.0000    14.0000 </r>
       <r>     7.9549     0.0000    14.0000 </r>
       <r>     8.0499     0.0000    14.0000 </r>
       <r>     8.1449    -0.0000    14.0000 </r>
       <r>     8.2398    -0.0000    14.0000 </r>
       <r>     8.3348    -0.0000    14.0000 </r>
       <r>     8.4297    -0.0000    14.0000 </r>
       <r>     8.5247    -0.0000    14.0000 </r>
       <r>     8.6196    -0.0000    14.0000 </r>
       <r>     8.7146    -0.0000    14.0000 </r>
       <r>     8.8095    -0.0000    14.0000 </r>
       <r>     8.9045    -0.0000    14.0000 </r>
       <r>     8.9994    -0.0000    14.0000 </r>
       <r>     9.0944    -0.0001    14.0000 </r>
       <r>     9.1893    -0.0024    13.9998 </r>
       <r>     9.2843    -0.0243    13.9974 </r>
       <r>     9.3793    -0.1398    13.9842 </r>
       <r>     9.4742    -0.3919    13.9470 </r>
       <r>     9.5692    -0.1071    13.9368 </r>
       <r>     9.6641     2.3255    14.1576 </r>
       <r>     9.7591     6.2426    14.7504 </r>
       <r>     9.8540     7.6576    15.4775 </r>
       <r>     9.9490     7.3442    16.1749 </r>
       <r>    10.0439    10.4813    17.1701 </r>
       <r>    10.1389    14.2211    18.5205 </r>
       <r>    10.2338    11.6134    19.6232 </r>
       <r>    10.3288     4.7245    20.0718 </r>
       <r>    10.4238     0.2270    20.0934 </r>
       <r>    10.5187    -0.6310    20.0334 </r>
       <r>    10.6137    -0.2847    20.0064 </r>
       <r>    10.7086    -0.0599    20.0007 </r>
       <r>    10.8036    -0.0071    20.0001 </r>
       <r>    10.8985    -0.0005    20.0000 </r>
       <r>    10.9935    -0.0000    20.0000 </r>
       <r>    11.0884    -0.0000    20.0000 </r>
       <r>    11.1834    -0.0000    20.0000 </r>
       <r>    11.2783    -0.0000    20.0000 </r>
       <r>    11.3733    -0.0001    20.0000 </r>
       <r>    11.4682    -0.0023    19.9998 </r>
       <r>    11.5632    -0.0262    19.9973 </r>
       <r>    11.6582    -0.1775    19.9804 </r>
       <r>    11.7531    -0.6266    19.9209 </r>
       <r>    11.8481    -0.6322    19.8609 </r>
       <r>    11.9430     2.8801    20.1344 </r>
       <r>    12.0380    11.1030    21.1887 </r>
       <r>    12.1329    16.3168    22.7380 </r>
       <r>    12.2279    11.5341    23.8332 </r>
       <r>    12.3228     3.2065    24.1377 </r>
       <r>    12.4178    -0.5725    24.0833 </r>
       <r>    12.5127    -0.6531    24.0213 </r>
       <r>    12.6077    -0.1934    24.0029 </r>
       <r>    12.7026    -0.0409    23.9991 </r>
       <r>    12.7976    -0.0845    23.9910 </r>
       <r>    12.8926    -0.3032    23.9622 </r>
       <r>    12.9875    -0.3490    23.9291 </r>
       <r>    13.0825     1.2949    24.0521 </r>
       <r>    13.1774     5.3807    24.5630 </r>
       <r>    13.2724     8.1153    25.3336 </r>
       <r>    13.3673     5.5682    25.8623 </r>
       <r>    13.4623     0.8205    25.9402 </r>
       <r>    13.5572    -0.1259    25.9282 </r>
       <r>    13.6522     5.9459    26.4928 </r>
       <r>    13.7471    16.1679    28.0280 </r>
       <r>    13.8421    20.9517    30.0175 </r>
       <r>    13.9371    15.2322    31.4639 </r>
       <r>    14.0320     5.6248    31.9980 </r>
       <r>    14.1270     1.1393    32.1061 </r>
       <r>    14.2219     3.3783    32.4269 </r>
       <r>    14.3169     7.8693    33.1741 </r>
       <r>    14.4118    13.3780    34.4444 </r>
       <r>    14.5068    23.2601    36.6531 </r>
       <r>    14.6017    35.2849    40.0035 </r>
       <r>    14.6967    39.6310    43.7667 </r>
       <r>    14.7916    30.1805    46.6324 </r>
       <r>    14.8866    13.9960    47.9614 </r>
       <r>    14.9815     2.6129    48.2095 </r>
       <r>    15.0765    -1.0224    48.1124 </r>
       <r>    15.1715    -0.8593    48.0308 </r>
       <r>    15.2664    -0.2716    48.0051 </r>
       <r>    15.3614    -0.0478    48.0005 </r>
       <r>    15.4563    -0.0050    48.0000 </r>
       <r>    15.5513    -0.0003    48.0000 </r>
       <r>    15.6462    -0.0000    48.0000 </r>
       <r>    15.7412    -0.0000    48.0000 </r>
       <r>    15.8361    -0.0000    48.0000 </r>
       <r>    15.9311    -0.0000    48.0000 </r>
       <r>    16.0260    -0.0000    48.0000 </r>
       <r>    16.1210     0.0000    48.0000 </r>
       <r>    16.2160     0.0000    48.0000 </r>
       <r>    16.3109     0.0000    48.0000 </r>
       <r>    16.4059     0.0000    48.0000 </r>
       <r>    16.5008     0.0000    48.0000 </r>
       <r>    16.5958     0.0000    48.0000 </r>
       <r>    16.6907     0.0000    48.0000 </r>
       <r>    16.7857     0.0000    48.0000 </r>
       <r>    16.8806     0.0000    48.0000 </r>
       <r>    16.9756     0.0000    48.0000 </r>
       <r>    17.0705     0.0000    48.0000 </r>
       <r>    17.1655     0.0000    48.0000 </r>
       <r>    17.2604     0.0000    48.0000 </r>
       <r>    17.3554     0.0000    48.0000 </r>
       <r>    17.4504     0.0000    48.0000 </r>
       <r>    17.5453     0.0000    48.0000 </r>
       <r>    17.6403     0.0000    48.0000 </r>
       <r>    17.7352     0.0000    48.0000 </r>
       <r>    17.8302     0.0000    48.0000 </r>
       <r>    17.9251     0.0000    48.0000 </r>
       <r>    18.0201     0.0000    48.0000 </r>
       <r>    18.1150     0.0000    48.0000 </r>
       <r>    18.2100     0.0000    48.0000 </r>
       <r>    18.3049     0.0000    48.0000 </r>
       <r>    18.3999     0.0000    48.0000 </r>
       <r>    18.4949     0.0000    48.0000 </r>
       <r>    18.5898     0.0000    48.0000 </r>
       <r>    18.6848     0.0000    48.0000 </r>
       <r>    18.7797     0.0000    48.0000 </r>
       <r>    18.8747     0.0000    48.0000 </r>
       <r>    18.9696     0.0000    48.0000 </r>
       <r>    19.0646     0.0000    48.0000 </r>
       <r>    19.1595     0.0000    48.0000 </r>
       <r>    19.2545     0.0000    48.0000 </r>
       <r>    19.3494     0.0000    48.0000 </r>
       <r>    19.4444     0.0000    48.0000 </r>
       <r>    19.5393     0.0000    48.0000 </r>
       <r>    19.6343     0.0000    48.0000 </r>
       <r>    19.7293     0.0000    48.0000 </r>
       <r>    19.8242     0.0000    48.0000 </r>
       <r>    19.9192     0.0000    48.0000 </r>
       <r>    20.0141     0.0000    48.0000 </r>
       <r>    20.1091     0.0000    48.0000 </r>
       <r>    20.2040     0.0000    48.0000 </r>
       <r>    20.2990     0.0000    48.0000 </r>
       <r>    20.3939     0.0000    48.0000 </r>
       <r>    20.4889     0.0000    48.0000 </r>
       <r>    20.5838     0.0000    48.0000 </r>
       <r>    20.6788     0.0000    48.0000 </r>
       <r>    20.7738     0.0000    48.0000 </r>
       <r>    20.8687     0.0000    48.0000 </r>
       <r>    20.9637     0.0000    48.0000 </r>
       <r>    21.0586     0.0000    48.0000 </r>
       <r>    21.1536     0.0000    48.0000 </r>
       <r>    21.2485     0.0000    48.0000 </r>
       <r>    21.3435     0.0000    48.0000 </r>
       <r>    21.4384     0.0000    48.0000 </r>
       <r>    21.5334     0.0000    48.0000 </r>
       <r>    21.6283     0.0000    48.0000 </r>
       <r>    21.7233     0.0000    48.0000 </r>
       <r>    21.8182     0.0000    48.0000 </r>
       <r>    21.9132     0.0000    48.0000 </r>
       <r>    22.0082     0.0000    48.0000 </r>
       <r>    22.1031     0.0000    48.0000 </r>
       <r>    22.1981     0.0000    48.0000 </r>
       <r>    22.2930    -0.0000    48.0000 </r>
       <r>    22.3880    -0.0000    48.0000 </r>
       <r>    22.4829    -0.0000    48.0000 </r>
       <r>    22.5779    -0.0000    48.0000 </r>
       <r>    22.6728    -0.0000    48.0000 </r>
       <r>    22.7678    -0.0000    48.0000 </r>
       <r>    22.8627    -0.0000    48.0000 </r>
       <r>    22.9577    -0.0000    48.0000 </r>
       <r>    23.0526    -0.0000    48.0000 </r>
       <r>    23.1476    -0.0000    48.0000 </r>
       <r>    23.2426    -0.0002    48.0000 </r>
       <r>    23.3375    -0.0031    47.9997 </r>
       <r>    23.4325    -0.0298    47.9969 </r>
       <r>    23.5274    -0.1625    47.9814 </r>
       <r>    23.6224    -0.4277    47.9408 </r>
       <r>    23.7173    -0.0828    47.9329 </r>
       <r>    23.8123     2.4357    48.1642 </r>
       <r>    23.9072     6.5627    48.7874 </r>
       <r>    24.0022     9.5482    49.6940 </r>
       <r>    24.0971    12.0106    50.8345 </r>
       <r>    24.1921    14.8721    52.2466 </r>
       <r>    24.2871    15.1823    53.6882 </r>
       <r>    24.3820    12.9536    54.9182 </r>
       <r>    24.4770    11.2474    55.9862 </r>
       <r>    24.5719    10.3644    56.9704 </r>
       <r>    24.6669     7.8798    57.7186 </r>
       <r>    24.7618     3.4558    58.0467 </r>
       <r>    24.8568     0.2518    58.0706 </r>
       <r>    24.9517    -0.4682    58.0262 </r>
       <r>    25.0467    -0.2225    58.0051 </r>
       <r>    25.1416    -0.0473    58.0006 </r>
       <r>    25.2366    -0.0059    58.0000 </r>
       <r>    25.3315    -0.0053    57.9995 </r>
       <r>    25.4265    -0.0424    57.9955 </r>
       <r>    25.5215    -0.2034    57.9762 </r>
       <r>    25.6164    -0.4225    57.9361 </r>
       <r>    25.7114     0.3645    57.9707 </r>
       <r>    25.8063     3.7130    58.3232 </r>
       <r>    25.9013     7.6585    59.0504 </r>
       <r>    25.9962     7.3169    59.7452 </r>
       <r>    26.0912     3.1646    60.0457 </r>
       <r>    26.1861     0.1430    60.0593 </r>
       <r>    26.2811    -0.4139    60.0200 </r>
       <r>    26.3760    -0.1733    60.0035 </r>
       <r>    26.4710    -0.0333    60.0004 </r>
       <r>    26.5660    -0.0036    60.0000 </r>
       <r>    26.6609    -0.0002    60.0000 </r>
       <r>    26.7559    -0.0000    60.0000 </r>
       <r>    26.8508    -0.0000    60.0000 </r>
       <r>    26.9458    -0.0000    60.0000 </r>
       <r>    27.0407    -0.0000    60.0000 </r>
       <r>    27.1357    -0.0000    60.0000 </r>
       <r>    27.2306     0.0000    60.0000 </r>
       <r>    27.3256     0.0000    60.0000 </r>
       <r>    27.4205     0.0000    60.0000 </r>
       <r>    27.5155     0.0000    60.0000 </r>
       <r>    27.6104     0.0000    60.0000 </r>
       <r>    27.7054     0.0000    60.0000 </r>
       <r>    27.8004     0.0000    60.0000 </r>
       <r>    27.8953     0.0000    60.0000 </r>
      </set>
     </set>
    </array>
   </total>
  </dos>
 </calculation>
 <structure name="finalpos" >
  <crystal>
   <varray name="basis" >
    <v>       3.63500000       0.00000000       0.00000000 </v>
    <v>       0.00000000       3.63500000       0.00000000 </v>
    <v>       0.00000000       0.00000000       3.63500000 </v>
   </varray>
   <i name="volume">     48.03007287 </i>
   <varray name="rec_basis" >
    <v>       0.27510316       0.00000000       0.00000000 </v>
    <v>       0.00000000       0.27510316       0.00000000 </v>
    <v>       0.00000000       0.00000000       0.27510316 </v>
   </varray>
  </crystal>
  <varray name="positions" >
   <v>       0.00000000       0.00000000       0.00000000 </v>
   <v>       0.50000000       0.50000000       0.00000000 </v>
   <v>       0.50000000       0.00000000       0.50000000 </v>
   <v>       0.00000000       0.50000000       0.50000000 </v>
  </varray>
 </structure>
</modeling>
