unknown system                          
   1.00000000000000     
     3.808352    0.000000    0.000000
     0.000000    3.808352    0.000000
     0.000000    0.000000    3.808352
   Pd   Ir   Pt   Cu
     1     1     1     1
Direct
  0.000000  0.000000  0.000000
  0.500000  0.500000  0.000000
  0.500000  0.000000  0.500000
  0.000000  0.500000  0.500000
 
   32   32   32
  343.03      327.74      288.39      238.77      189.22      142.69      99.653      63.384      38.389      24.979    
  17.967      13.745      11.442      10.327      9.7275      9.2803      9.0830      9.2803      9.7275      10.327    
  11.442      13.745      17.967      24.979      38.389      63.384      99.653      142.69      189.22      238.77    
  288.39      327.74      327.89      313.36      275.91      228.51      180.98      136.31      95.169      60.745    
  37.192      24.572      17.843      13.782      11.565      10.487      9.9056      9.4743      9.2850      9.4743    
  9.9056      10.487      11.565      13.782      17.843      24.572      37.192      60.745      95.169      136.31    
  180.98      228.51      275.91      313.36      288.34      275.75      243.11      201.36      159.07      119.34    
  83.298      53.825      34.092      23.507      17.525      13.915      11.943      10.977      10.454      10.073    
  9.9082      10.073      10.454      10.977      11.943      13.915      17.525      23.507      34.092      53.825    
  83.298      119.34      159.07      201.36      243.11      275.75      237.18      226.95      200.18      165.46    
  129.95      96.884      67.810      44.992      30.228      22.125      17.173      14.227      12.637      11.868    
  11.464      11.180      11.058      11.180      11.464      11.868      12.637      14.227      17.173      22.125    
  30.228      44.992      67.810      96.884      129.95      165.46      200.18      226.95      185.11      177.11    
  156.01      128.34      99.983      74.190      52.615      36.644      26.675      20.770      17.027      14.893    
  13.816      13.367      13.189      13.076      13.024      13.076      13.189      13.367      13.816      14.893    
  17.027      20.770      26.675      36.644      52.615      74.190      99.983      128.34      156.01      177.11    
  136.80      130.82      115.02      94.226      73.159      54.702      40.212      30.170      23.911      19.803    
  17.366      16.169      15.775      15.837      16.058      16.232      16.291      16.232      16.058      15.837    
  15.775      16.169      17.366      19.803      23.911      30.170      40.212      54.702      73.159      94.226    
  115.02      130.82      94.064      90.015      79.309      65.331      51.483      39.904      31.391      25.730    
  21.904      19.528      18.462      18.354      18.863      19.697      20.592      21.271      21.523      21.271    
  20.592      19.697      18.863      18.354      18.462      19.528      21.904      25.730      31.391      39.904    
  51.483      65.331      79.309      90.015      59.720      57.399      51.300      43.461      35.930      29.922    
  25.667      22.676      20.815      20.152      20.525      21.693      23.522      25.785      28.047      29.738    
  30.367      29.738      28.047      25.785      23.522      21.693      20.525      20.152      20.815      22.676    
  25.667      29.922      35.930      43.461      51.300      57.399      36.610      35.572      32.869      29.460    
  26.261      23.708      21.814      20.779      20.761      21.753      23.709      26.708      30.660      35.167    
  39.482      42.641      43.806      42.641      39.482      35.167      30.660      26.708      23.709      21.753    
  20.761      20.779      21.814      23.708      26.261      29.460      32.869      35.572      24.024      23.678    
  22.766      21.574      20.398      19.568      19.380      20.053      21.690      24.384      28.402      33.803    
  40.345      47.414      53.968      58.685      60.412      58.685      53.968      47.414      40.345      33.803    
  28.402      24.384      21.690      20.053      19.380      19.568      20.398      21.574      22.766      23.678    
  17.169      17.077      16.847      16.613      16.588      17.029      18.198      20.304      23.510      28.238    
  34.663      42.578      51.514      60.719      69.037      74.960      77.123      74.960      69.037      60.719    
  51.514      42.578      34.663      28.238      23.510      20.304      18.198      17.029      16.588      16.613    
  16.847      17.077      12.928      12.985      13.174      13.567      14.322      15.680      17.920      21.277    
  26.243      33.276      42.162      52.255      62.877      73.353      82.678      89.331      91.771      89.331    
  82.678      73.353      62.877      52.255      42.162      33.276      26.243      21.277      17.920      15.680    
  14.322      13.567      13.174      12.985      10.527      10.664      11.083      11.838      13.087      15.104    
  18.216      22.822      29.765      39.233      50.437      62.232      73.862      84.999      94.981      102.26    
  104.97      102.26      94.981      84.999      73.862      62.232      50.437      39.233      29.765      22.822    
  18.216      15.104      13.087      11.838      11.083      10.664      9.2888      9.4603      9.9831      10.924    
  12.477      14.979      18.817      24.733      33.723      45.587      58.902      72.090      84.522      96.408    
  107.44      115.80      118.98      115.80      107.44      96.408      84.522      72.090      58.902      45.587    
  33.723      24.733      18.817      14.979      12.477      10.924      9.9831      9.4603      8.5825      8.7702    
  9.3467      10.398      12.161      15.035      19.492      26.637      37.489      51.466      66.600      81.038    
  94.429      107.55      120.30      130.33      134.22      130.33      120.30      107.55      94.429      81.038    
  66.600      51.466      37.489      26.637      19.492      15.035      12.161      10.398      9.3467      8.7702    
  8.0717      8.2742      8.8970      10.037      11.958      15.097      20.011      28.059      40.244      55.712    
  72.145      87.566      101.90      116.36      130.88      142.56      147.13      142.56      130.88      116.36    
  101.90      87.566      72.145      55.712      40.244      28.059      20.011      15.097      11.958      10.037    
  8.8970      8.2742      7.8552      8.0650      8.7103      9.8903      11.876      15.116      20.204      28.588    
  41.260      57.272      74.184      89.992      104.74      119.78      135.07      147.44      152.30      147.44    
  135.07      119.78      104.74      89.992      74.184      57.272      41.260      28.588      20.204      15.116    
  11.876      9.8903      8.7103      8.0650      8.0717      8.2742      8.8970      10.037      11.958      15.097    
  20.011      28.059      40.244      55.712      72.145      87.566      101.90      116.36      130.88      142.56    
  147.13      142.56      130.88      116.36      101.90      87.566      72.145      55.712      40.244      28.059    
  20.011      15.097      11.958      10.037      8.8970      8.2742      8.5825      8.7702      9.3467      10.398    
  12.161      15.035      19.492      26.637      37.489      51.466      66.600      81.038      94.429      107.55    
  120.30      130.33      134.22      130.33      120.30      107.55      94.429      81.038      66.600      51.466    
  37.489      26.637      19.492      15.035      12.161      10.398      9.3467      8.7702      9.2888      9.4603    
  9.9831      10.924      12.477      14.979      18.817      24.733      33.723      45.587      58.902      72.090    
  84.522      96.408      107.44      115.80      118.98      115.80      107.44      96.408      84.522      72.090    
  58.902      45.587      33.723      24.733      18.817      14.979      12.477      10.924      9.9831      9.4603    
  10.527      10.664      11.083      11.838      13.087      15.104      18.216      22.822      29.765      39.233    
  50.437      62.232      73.862      84.999      94.981      102.26      104.97      102.26      94.981      84.999    
  73.862      62.232      50.437      39.233      29.765      22.822      18.216      15.104      13.087      11.838    
  11.083      10.664      12.928      12.985      13.174      13.567      14.322      15.680      17.920      21.277    
  26.243      33.276      42.162      52.255      62.877      73.353      82.678      89.331      91.771      89.331    
  82.678      73.353      62.877      52.255      42.162      33.276      26.243      21.277      17.920      15.680    
  14.322      13.567      13.174      12.985      17.169      17.077      16.847      16.613      16.588      17.029    
  18.198      20.304      23.510      28.238      34.663      42.578      51.514      60.719      69.037      74.960    
  77.123      74.960      69.037      60.719      51.514      42.578      34.663      28.238      23.510      20.304    
  18.198      17.029      16.588      16.613      16.847      17.077      24.024      23.678      22.766      21.574    
  20.398      19.568      19.380      20.053      21.690      24.384      28.402      33.803      40.345      47.414    
  53.968      58.685      60.412      58.685      53.968      47.414      40.345      33.803      28.402      24.384    
  21.690      20.053      19.380      19.568      20.398      21.574      22.766      23.678      36.610      35.572    
  32.869      29.460      26.261      23.708      21.814      20.779      20.761      21.753      23.709      26.708    
  30.660      35.167      39.482      42.641      43.806      42.641      39.482      35.167      30.660      26.708    
  23.709      21.753      20.761      20.779      21.814      23.708      26.261      29.460      32.869      35.572    
  59.720      57.399      51.300      43.461      35.930      29.922      25.667      22.676      20.815      20.152    
  20.525      21.693      23.522      25.785      28.047      29.738      30.367      29.738      28.047      25.785    
  23.522      21.693      20.525      20.152      20.815      22.676      25.667      29.922      35.930      43.461    
  51.300      57.399      94.064      90.015      79.309      65.331      51.483      39.904      31.391      25.730    
  21.904      19.528      18.462      18.354      18.863      19.697      20.592      21.271      21.523      21.271    
  20.592      19.697      18.863      18.354      18.462      19.528      21.904      25.730      31.391      39.904    
  51.483      65.331      79.309      90.015      136.80      130.82      115.02      94.226      73.159      54.702    
  40.212      30.170      23.911      19.803      17.366      16.169      15.775      15.837      16.058      16.232    
  16.291      16.232      16.058      15.837      15.775      16.169      17.366      19.803      23.911      30.170    
  40.212      54.702      73.159      94.226      115.02      130.82      185.11      177.11      156.01      128.34    
  99.983      74.190      52.615      36.644      26.675      20.770      17.027      14.893      13.816      13.367    
  13.189      13.076      13.024      13.076      13.189      13.367      13.816      14.893      17.027      20.770    
  26.675      36.644      52.615      74.190      99.983      128.34      156.01      177.11      237.18      226.95    
  200.18      165.46      129.95      96.884      67.810      44.992      30.228      22.125      17.173      14.227    
  12.637      11.868      11.464      11.180      11.058      11.180      11.464      11.868      12.637      14.227    
  17.173      22.125      30.228      44.992      67.810      96.884      129.95      165.46      200.18      226.95    
  288.34      275.75      243.11      201.36      159.07      119.34      83.298      53.825      34.092      23.507    
  17.525      13.915      11.943      10.977      10.454      10.073      9.9082      10.073      10.454      10.977    
  11.943      13.915      17.525      23.507      34.092      53.825      83.298      119.34      159.07      201.36    
  243.11      275.75      327.89      313.36      275.91      228.51      180.98      136.31      95.169      60.745    
  37.192      24.572      17.843      13.782      11.565      10.487      9.9056      9.4743      9.2850      9.4743    
  9.9056      10.487      11.565      13.782      17.843      24.572      37.192      60.745      95.169      136.31    
  180.98      228.51      275.91      313.36      328.07      313.58      276.22      228.87      181.33      136.56    
  95.304      60.788      37.189      24.559      17.834      13.781      11.573      10.504      9.9296      9.5033    
  9.3158      9.5033      9.9296      10.504      11.573      13.781      17.834      24.559      37.189      60.788    
  95.304      136.56      181.33      228.87      276.22      313.58      314.10      300.30      264.64      219.30    
  173.59      130.56      91.082      58.310      36.069      24.173      17.714      13.817      11.692      10.659    
  10.103      9.6919      9.5121      9.6919      10.103      10.659      11.692      13.817      17.714      24.173    
  36.069      58.310      91.082      130.56      173.59      219.30      264.64      300.30      277.40      265.36    
  234.05      193.84      152.95      114.54      79.890      51.808      33.164      23.157      17.406      13.945    
  12.058      11.134      10.635      10.273      10.117      10.273      10.635      11.134      12.058      13.945    
  17.406      23.157      33.164      51.808      79.890      114.54      152.95      193.84      234.05      265.36    
  229.39      219.50      193.59      159.89      125.34      93.250      65.253      43.498      29.534      21.823    
  17.065      14.246      12.729      11.997      11.614      11.347      11.232      11.347      11.614      11.997    
  12.729      14.246      17.065      21.823      29.534      43.498      65.253      93.250      125.34      159.89    
  193.59      219.50      179.71      171.92      151.36      124.35      96.686      71.630      50.852      35.627    
  26.174      20.509      16.922      14.887      13.867      13.446      13.284      13.183      13.136      13.183    
  13.284      13.446      13.867      14.887      16.922      20.509      26.174      35.627      50.852      71.630    
  96.686      124.35      151.36      171.92      132.91      127.08      111.66      91.380      70.866      52.986    
  39.066      29.498      23.518      19.570      17.245      16.116      15.757      15.833      16.059      16.238    
  16.299      16.238      16.059      15.833      15.757      16.116      17.245      19.570      23.518      29.498    
  39.066      52.986      70.866      91.380      111.66      127.08      91.254      87.320      76.924      63.364    
  49.962      38.812      30.666      25.254      21.567      19.299      18.299      18.223      18.740      19.564    
  20.437      21.096      21.341      21.096      20.437      19.564      18.740      18.223      18.299      19.299    
  21.567      25.254      30.666      38.812      49.962      63.364      76.924      87.320      57.899      55.661    
  49.786      42.244      35.015      29.263      25.180      22.288      20.509      19.898      20.291      21.446    
  23.222      25.404      27.578      29.201      29.804      29.201      27.578      25.404      23.222      21.446    
  20.291      19.898      20.509      22.288      25.180      29.263      35.015      42.244      49.786      55.661    
  35.648      34.656      32.073      28.814      25.750      23.280      21.442      20.452      20.459      21.450    
  23.364      26.270      30.080      34.413      38.554      41.581      42.696      41.581      38.554      34.413    
  30.080      26.270      23.364      21.450      20.459      20.452      21.442      23.280      25.750      28.814    
  32.073      34.656      23.597      23.263      22.382      21.219      20.072      19.267      19.092      19.759    
  21.370      23.997      27.897      33.126      39.445      46.253      52.547      57.066      58.718      57.066    
  52.547      46.253      39.445      33.126      27.897      23.997      21.370      19.759      19.092      19.267    
  20.072      21.219      22.382      23.263      16.956      16.866      16.641      16.413      16.389      16.820    
  17.962      20.020      23.145      27.739      33.989      41.688      50.357      59.245      67.233      72.898    
  74.960      72.898      67.233      59.245      50.357      41.688      33.989      27.739      23.145      20.020    
  17.962      16.820      16.389      16.413      16.641      16.866      12.866      12.920      13.101      13.481    
  14.212      15.530      17.711      20.984      25.810      32.663      41.355      51.239      61.598      71.729    
  80.658      86.981      89.290      86.981      80.658      71.729      61.598      51.239      41.355      32.663    
  25.810      20.984      17.711      15.530      14.212      13.481      13.101      12.920      10.571      10.702    
  11.102      11.827      13.033      14.990      18.020      22.500      29.256      38.523      49.554      61.185    
  72.581      83.334      92.815      99.646      102.18      99.646      92.815      83.334      72.581      61.185    
  49.554      38.523      29.256      22.500      18.020      14.990      13.033      11.827      11.102      10.702    
  9.4037      9.5661      10.063      10.962      12.459      14.885      18.623      24.370      33.140      44.802    
  57.986      71.066      83.273      94.683      105.03      112.75      115.68      112.75      105.03      94.683    
  83.273      71.066      57.986      44.802      33.140      24.370      18.623      14.885      12.459      10.962    
  10.063      9.5661      8.7520      8.9284      9.4727      10.474      12.170      14.955      19.294      26.235    
  36.843      50.625      65.668      80.037      93.171      105.67      117.49      126.65      130.18      126.65    
  117.49      105.67      93.171      80.037      65.668      50.625      36.843      26.235      19.294      14.955    
  12.170      10.474      9.4727      8.9284      8.2854      8.4746      9.0600      10.143      11.987      15.029    
  19.808      27.630      39.554      54.835      71.202      86.569      100.60      114.28      127.66      138.27    
  142.40      138.27      127.66      114.28      100.60      86.569      71.202      54.835      39.554      27.630    
  19.808      15.029      11.987      10.143      9.0600      8.4746      8.0874      8.2832      8.8888      10.008    
  11.914      15.053      19.999      28.148      40.555      56.381      73.236      88.992      103.41      117.62    
  131.67      142.89      147.28      142.89      131.67      117.62      103.41      88.992      73.236      56.381    
  40.555      28.148      19.999      15.053      11.914      10.008      8.8888      8.2832      8.2854      8.4746    
  9.0600      10.143      11.987      15.029      19.808      27.630      39.554      54.835      71.202      86.569    
  100.60      114.28      127.66      138.27      142.40      138.27      127.66      114.28      100.60      86.569    
  71.202      54.835      39.554      27.630      19.808      15.029      11.987      10.143      9.0600      8.4746    
  8.7520      8.9284      9.4727      10.474      12.170      14.955      19.294      26.235      36.843      50.625    
  65.668      80.037      93.171      105.67      117.49      126.65      130.18      126.65      117.49      105.67    
  93.171      80.037      65.668      50.625      36.843      26.235      19.294      14.955      12.170      10.474    
  9.4727      8.9284      9.4037      9.5661      10.063      10.962      12.459      14.885      18.623      24.370    
  33.140      44.802      57.986      71.066      83.273      94.683      105.03      112.75      115.68      112.75    
  105.03      94.683      83.273      71.066      57.986      44.802      33.140      24.370      18.623      14.885    
  12.459      10.962      10.063      9.5661      10.571      10.702      11.102      11.827      13.033      14.990    
  18.020      22.500      29.256      38.523      49.554      61.185      72.581      83.334      92.815      99.646    
  102.18      99.646      92.815      83.334      72.581      61.185      49.554      38.523      29.256      22.500    
  18.020      14.990      13.033      11.827      11.102      10.702      12.866      12.920      13.101      13.481    
  14.212      15.530      17.711      20.984      25.810      32.663      41.355      51.239      61.598      71.729    
  80.658      86.981      89.290      86.981      80.658      71.729      61.598      51.239      41.355      32.663    
  25.810      20.984      17.711      15.530      14.212      13.481      13.101      12.920      16.956      16.866    
  16.641      16.413      16.389      16.820      17.962      20.020      23.145      27.739      33.989      41.688    
  50.357      59.245      67.233      72.898      74.960      72.898      67.233      59.245      50.357      41.688    
  33.989      27.739      23.145      20.020      17.962      16.820      16.389      16.413      16.641      16.866    
  23.597      23.263      22.382      21.219      20.072      19.267      19.092      19.759      21.370      23.997    
  27.897      33.126      39.445      46.253      52.547      57.066      58.718      57.066      52.547      46.253    
  39.445      33.126      27.897      23.997      21.370      19.759      19.092      19.267      20.072      21.219    
  22.382      23.263      35.648      34.656      32.073      28.814      25.750      23.280      21.442      20.452    
  20.459      21.450      23.364      26.270      30.080      34.413      38.554      41.581      42.696      41.581    
  38.554      34.413      30.080      26.270      23.364      21.450      20.459      20.452      21.442      23.280    
  25.750      28.814      32.073      34.656      57.899      55.661      49.786      42.244      35.015      29.263    
  25.180      22.288      20.509      19.898      20.291      21.446      23.222      25.404      27.578      29.201    
  29.804      29.201      27.578      25.404      23.222      21.446      20.291      19.898      20.509      22.288    
  25.180      29.263      35.015      42.244      49.786      55.661      91.254      87.320      76.924      63.364    
  49.962      38.812      30.666      25.254      21.567      19.299      18.299      18.223      18.740      19.564    
  20.437      21.096      21.341      21.096      20.437      19.564      18.740      18.223      18.299      19.299    
  21.567      25.254      30.666      38.812      49.962      63.364      76.924      87.320      132.91      127.08    
  111.66      91.380      70.866      52.986      39.066      29.498      23.518      19.570      17.245      16.116    
  15.757      15.833      16.059      16.238      16.299      16.238      16.059      15.833      15.757      16.116    
  17.245      19.570      23.518      29.498      39.066      52.986      70.866      91.380      111.66      127.08    
  179.71      171.92      151.36      124.35      96.686      71.630      50.852      35.627      26.174      20.509    
  16.922      14.887      13.867      13.446      13.284      13.183      13.136      13.183      13.284      13.446    
  13.867      14.887      16.922      20.509      26.174      35.627      50.852      71.630      96.686      124.35    
  151.36      171.92      229.39      219.50      193.59      159.89      125.34      93.250      65.253      43.498    
  29.534      21.823      17.065      14.246      12.729      11.997      11.614      11.347      11.232      11.347    
  11.614      11.997      12.729      14.246      17.065      21.823      29.534      43.498      65.253      93.250    
  125.34      159.89      193.59      219.50      277.40      265.36      234.05      193.84      152.95      114.54    
  79.890      51.808      33.164      23.157      17.406      13.945      12.058      11.134      10.635      10.273    
  10.117      10.273      10.635      11.134      12.058      13.945      17.406      23.157      33.164      51.808    
  79.890      114.54      152.95      193.84      234.05      265.36      314.10      300.30      264.64      219.30    
  173.59      130.56      91.082      58.310      36.069      24.173      17.714      13.817      11.692      10.659    
  10.103      9.6919      9.5121      9.6919      10.103      10.659      11.692      13.817      17.714      24.173    
  36.069      58.310      91.082      130.56      173.59      219.30      264.64      300.30      288.89      276.43    
  244.06      202.50      160.15      120.11      83.695      53.934      34.066      23.454      17.485      13.897    
  11.950      11.003      10.496      10.125      9.9633      10.125      10.496      11.003      11.950      13.897    
  17.485      23.454      34.066      53.934      83.695      120.11      160.15      202.50      244.06      276.43    
  277.78      265.82      234.71      194.63      153.69      115.07      80.157      51.877      33.141      23.118    
  17.376      13.930      12.058      11.146      10.655      10.299      10.145      10.299      10.655      11.146    
  12.058      13.930      17.376      23.118      33.141      51.877      80.157      115.07      153.69      194.63    
  234.71      265.82      248.08      237.43      209.58      173.42      136.30      101.52      70.745      46.469    
  30.737      22.216      17.096      14.045      12.391      11.580      11.145      10.834      10.702      10.834    
  11.145      11.580      12.391      14.045      17.096      22.216      30.737      46.469      70.745      101.52    
  136.30      173.42      209.58      237.43      207.83      198.88      175.29      144.38      112.59      83.310    
  58.357      39.527      27.703      21.002      16.784      14.315      12.996      12.365      12.041      11.818    
  11.723      11.818      12.041      12.365      12.996      14.315      16.784      21.002      27.703      39.527    
  58.357      83.310      112.59      144.38      175.29      198.88      164.22      157.04      138.05      113.02    
  87.429      64.562      46.072      32.907      24.827      19.801      16.646      14.886      14.021      13.679    
  13.561      13.491      13.458      13.491      13.561      13.679      14.021      14.886      16.646      19.801    
  24.827      32.907      46.072      64.562      87.429      113.02      138.05      157.04      121.54      116.16    
  101.92      83.209      64.390      48.233      35.949      27.683      22.433      18.936      16.924      15.983    
  15.720      15.836      16.079      16.268      16.334      16.268      16.079      15.836      15.720      15.983    
  16.924      18.936      22.433      27.683      35.949      48.233      64.390      83.209      101.92      116.16    
  83.101      79.520      70.062      57.764      45.702      35.803      28.687      23.935      20.638      18.672    
  17.858      17.870      18.409      19.210      20.031      20.642      20.867      20.642      20.031      19.210    
  18.409      17.870      17.858      18.672      20.638      23.935      28.687      35.803      45.702      57.764    
  70.062      79.520      52.740      50.749      45.529      38.852      32.489      27.450      23.826      21.213    
  19.668      19.201      19.648      20.774      22.413      24.384      26.326      27.770      28.305      27.770    
  26.326      24.384      22.413      20.774      19.648      19.201      19.668      21.213      23.826      27.450    
  32.489      38.852      45.529      50.749      32.999      32.136      29.887      27.043      24.338      22.083    
  20.409      19.551      19.625      20.612      22.416      25.069      28.499      32.366      36.039      38.714    
  39.698      38.714      36.039      32.366      28.499      25.069      22.416      20.612      19.625      19.551    
  20.409      22.083      24.338      27.043      29.887      32.136      22.421      22.121      21.315      20.231    
  19.169      18.438      18.299      18.947      20.480      22.927      26.495      31.248      36.958      43.061    
  48.657      52.650      54.104      52.650      48.657      43.061      36.958      31.248      26.495      22.927    
  20.480      18.947      18.299      18.438      19.169      20.231      21.315      22.121      16.364      16.281    
  16.074      15.866      15.849      16.253      17.313      19.232      22.129      26.342      32.087      39.175    
  47.108      55.144      62.262      67.249      69.053      67.249      62.262      55.144      47.108      39.175    
  32.087      26.342      22.129      19.232      17.313      16.253      15.849      15.866      16.074      16.281    
  12.678      12.728      12.895      13.244      13.916      15.127      17.137      20.171      24.595      30.918    
  39.030      48.301      57.937      67.163      75.081      80.565      82.544      80.565      75.081      67.163    
  57.937      48.301      39.030      30.918      24.595      20.171      17.137      15.127      13.916      13.244    
  12.895      12.728      10.634      10.754      11.119      11.781      12.884      14.679      17.478      21.603    