unknown system                          
   1.00000000000000     
     3.808352    0.000000    0.000000
     0.000000    3.808352    0.000000
     0.000000    0.000000    3.808352
   Pd   Ir   Pt   Cu
     1     1     1     1
Direct
  0.000000  0.000000  0.000000
  0.500000  0.500000  0.000000
  0.500000  0.000000  0.500000
  0.000000  0.500000  0.500000
 
   32   32   32
 0.34302860405E+03 0.32773554255E+03 0.28838722584E+03 0.23876675339E+03 0.18921966612E+03
 0.14268908384E+03 0.99652561152E+02 0.63383841216E+02 0.38388727125E+02 0.24978712349E+02
 0.17967413818E+02 0.13744927403E+02 0.11441596303E+02 0.10326791392E+02 0.97275160742E+01
 0.92803169789E+01 0.90830012352E+01 0.92803169789E+01 0.97275160742E+01 0.10326791392E+02
 0.11441596303E+02 0.13744927403E+02 0.17967413818E+02 0.24978712349E+02 0.38388727125E+02
 0.63383841216E+02 0.99652561152E+02 0.14268908384E+03 0.18921966612E+03 0.23876675339E+03
 0.28838722584E+03 0.32773554255E+03 0.32788870080E+03 0.31336187524E+03 0.27591212583E+03
 0.22850931098E+03 0.18098394607E+03 0.13631208915E+03 0.95169457441E+02 0.60744816608E+02
 0.37192007794E+02 0.24572091733E+02 0.17843123972E+02 0.13781955940E+02 0.11564831116E+02
 0.10487016904E+02 0.99055997006E+01 0.94743496434E+01 0.92850270141E+01 0.94743496434E+01
 0.99055997006E+01 0.10487016904E+02 0.11564831116E+02 0.13781955940E+02 0.17843123972E+02
 0.24572091733E+02 0.37192007794E+02 0.60744816608E+02 0.95169457441E+02 0.13631208915E+03
 0.18098394607E+03 0.22850931098E+03 0.27591212583E+03 0.31336187524E+03 0.28833990352E+03
 0.27574992484E+03 0.24310740711E+03 0.20135617937E+03 0.15907164192E+03 0.11933940776E+03
 0.83298092421E+02 0.53824727612E+02 0.34092094035E+02 0.23507367219E+02 0.17525215081E+02
 0.13914820508E+02 0.11943204458E+02 0.10976990582E+02 0.10454059918E+02 0.10073233492E+02
 0.99082098113E+01 0.10073233492E+02 0.10454059918E+02 0.10976990582E+02 0.11943204458E+02
 0.13914820508E+02 0.17525215081E+02 0.23507367219E+02 0.34092094035E+02 0.53824727612E+02
 0.83298092421E+02 0.11933940776E+03 0.15907164192E+03 0.20135617937E+03 0.24310740711E+03
 0.27574992484E+03 0.23718320630E+03 0.22694562060E+03 0.20017872984E+03 0.16546355741E+03
 0.12995461962E+03 0.96883538724E+02 0.67809884414E+02 0.44992017797E+02 0.30227547697E+02
 0.22125042845E+02 0.17173155008E+02 0.14227440076E+02 0.12636934072E+02 0.11867807464E+02
 0.11464271587E+02 0.11180037159E+02 0.11058213671E+02 0.11180037159E+02 0.11464271587E+02
 0.11867807464E+02 0.12636934072E+02 0.14227440076E+02 0.17173155008E+02 0.22125042845E+02
 0.30227547697E+02 0.44992017797E+02 0.67809884414E+02 0.96883538724E+02 0.12995461962E+03
 0.16546355741E+03 0.20017872984E+03 0.22694562060E+03 0.18511217589E+03 0.17710708514E+03
 0.15600730723E+03 0.12833503561E+03 0.99983386064E+02 0.74190467096E+02 0.52615105195E+02
 0.36644314533E+02 0.26674621540E+02 0.20769744272E+02 0.17027143146E+02 0.14892904772E+02
 0.13816214356E+02 0.13367314858E+02 0.13189237928E+02 0.13075784203E+02 0.13024102909E+02
 0.13075784203E+02 0.13189237928E+02 0.13367314858E+02 0.13816214356E+02 0.14892904772E+02
 0.17027143146E+02 0.20769744272E+02 0.26674621540E+02 0.36644314533E+02 0.52615105195E+02
 0.74190467096E+02 0.99983386064E+02 0.12833503561E+03 0.15600730723E+03 0.17710708514E+03
 0.13679723680E+03 0.13082483659E+03 0.11501602270E+03 0.94226319677E+02 0.73159083558E+02
 0.54702144919E+02 0.40212000054E+02 0.30169568325E+02 0.23911146407E+02 0.19803330293E+02
 0.17365694382E+02 0.16169330528E+02 0.15775001074E+02 0.15836806320E+02 0.16057599428E+02
 0.16232237702E+02 0.16291308598E+02 0.16232237702E+02 0.16057599428E+02 0.15836806320E+02
 0.15775001074E+02 0.16169330528E+02 0.17365694382E+02 0.19803330293E+02 0.23911146407E+02
 0.30169568325E+02 0.40212000054E+02 0.54702144919E+02 0.73159083558E+02 0.94226319677E+02
 0.11501602270E+03 0.13082483659E+03 0.94064089278E+02 0.90014734157E+02 0.79308973523E+02
 0.65331321975E+02 0.51482863174E+02 0.39903666115E+02 0.31391422956E+02 0.25730095726E+02
 0.21903807801E+02 0.19528193046E+02 0.18461550084E+02 0.18353904730E+02 0.18863324737E+02
 0.19697266252E+02 0.20592227825E+02 0.21271304370E+02 0.21523121349E+02 0.21271304370E+02
 0.20592227825E+02 0.19697266252E+02 0.18863324737E+02 0.18353904730E+02 0.18461550084E+02
 0.19528193046E+02 0.21903807801E+02 0.25730095726E+02 0.31391422956E+02 0.39903666115E+02
 0.51482863174E+02 0.65331321975E+02 0.79308973523E+02 0.90014734157E+02 0.59720422677E+02
 0.57398914070E+02 0.51299589790E+02 0.43460881991E+02 0.35929792251E+02 0.29921917783E+02
 0.25666784518E+02 0.22675793478E+02 0.20815254440E+02 0.20151899916E+02 0.20524975685E+02
 0.21693137372E+02 0.23521715675E+02 0.25785026204E+02 0.28046760579E+02 0.29737885671E+02
 0.30366506280E+02 0.29737885671E+02 0.28046760579E+02 0.25785026204E+02 0.23521715675E+02
 0.21693137372E+02 0.20524975685E+02 0.20151899916E+02 0.20815254440E+02 0.22675793478E+02
 0.25666784518E+02 0.29921917783E+02 0.35929792251E+02 0.43460881991E+02 0.51299589790E+02
 0.57398914070E+02 0.36610268304E+02 0.35571951006E+02 0.32868990431E+02 0.29459529930E+02
 0.26260968527E+02 0.23708474470E+02 0.21813956214E+02 0.20778814496E+02 0.20760997913E+02
 0.21752677398E+02 0.23708580588E+02 0.26708449857E+02 0.30660101601E+02 0.35167255170E+02
 0.39482282056E+02 0.42641350625E+02 0.43805947263E+02 0.42641350625E+02 0.39482282056E+02
 0.35167255170E+02 0.30660101601E+02 0.26708449857E+02 0.23708580588E+02 0.21752677398E+02
 0.20760997913E+02 0.20778814496E+02 0.21813956214E+02 0.23708474470E+02 0.26260968527E+02
 0.29459529930E+02 0.32868990431E+02 0.35571951006E+02 0.24024165055E+02 0.23677541061E+02
 0.22766009689E+02 0.21573848821E+02 0.20397903642E+02 0.19568218960E+02 0.19379900788E+02
 0.20052508840E+02 0.21689629007E+02 0.24383537370E+02 0.28402177776E+02 0.33802646119E+02
 0.40344639764E+02 0.47414391143E+02 0.53968047070E+02 0.58685213567E+02 0.60412052482E+02
 0.58685213567E+02 0.53968047070E+02 0.47414391143E+02 0.40344639764E+02 0.33802646119E+02
 0.28402177776E+02 0.24383537370E+02 0.21689629007E+02 0.20052508840E+02 0.19379900788E+02
 0.19568218960E+02 0.20397903642E+02 0.21573848821E+02 0.22766009689E+02 0.23677541061E+02
 0.17168720164E+02 0.17076927901E+02 0.16846644335E+02 0.16612741202E+02 0.16587621196E+02
 0.17028804364E+02 0.18197947410E+02 0.20304344847E+02 0.23509921679E+02 0.28237508811E+02
 0.34662685409E+02 0.42578181505E+02 0.51513681642E+02 0.60719440099E+02 0.69036544954E+02
 0.74960482109E+02 0.77122633109E+02 0.74960482109E+02 0.69036544954E+02 0.60719440099E+02
 0.51513681642E+02 0.42578181505E+02 0.34662685409E+02 0.28237508811E+02 0.23509921679E+02
 0.20304344847E+02 0.18197947410E+02 0.17028804364E+02 0.16587621196E+02 0.16612741202E+02
 0.16846644335E+02 0.17076927901E+02 0.12927594226E+02 0.12984755869E+02 0.13173813665E+02
 0.13567205190E+02 0.14322208813E+02 0.15679665836E+02 0.17919916251E+02 0.21276515996E+02
 0.26243053450E+02 0.33276167852E+02 0.42161518816E+02 0.52255448658E+02 0.62876907708E+02
 0.73353360924E+02 0.82678018922E+02 0.89331053462E+02 0.91770684559E+02 0.89331053462E+02
 0.82678018922E+02 0.73353360924E+02 0.62876907708E+02 0.52255448658E+02 0.42161518816E+02
 0.33276167852E+02 0.26243053450E+02 0.21276515996E+02 0.17919916251E+02 0.15679665836E+02
 0.14322208813E+02 0.13567205190E+02 0.13173813665E+02 0.12984755869E+02 0.10526848327E+02
 0.10664152069E+02 0.11083066147E+02 0.11837851905E+02 0.13086683492E+02 0.15104338563E+02
 0.18216433726E+02 0.22822093879E+02 0.29764859168E+02 0.39232919670E+02 0.50437400013E+02
 0.62231815254E+02 0.73862367565E+02 0.84999223275E+02 0.94981266436E+02 0.10226008037E+03
 0.10497124104E+03 0.10226008037E+03 0.94981266436E+02 0.84999223275E+02 0.73862367565E+02
 0.62231815254E+02 0.50437400013E+02 0.39232919670E+02 0.29764859168E+02 0.22822093879E+02
 0.18216433726E+02 0.15104338563E+02 0.13086683492E+02 0.11837851905E+02 0.11083066147E+02
 0.10664152069E+02 0.92887727654E+01 0.94602588857E+01 0.99830855568E+01 0.10923560306E+02
 0.12476580589E+02 0.14978941013E+02 0.18817166373E+02 0.24732587532E+02 0.33723021787E+02
 0.45586962352E+02 0.58902295750E+02 0.72089678891E+02 0.84522375861E+02 0.96408099690E+02
 0.10743836541E+03 0.11579962530E+03 0.11898399916E+03 0.11579962530E+03 0.10743836541E+03
 0.96408099690E+02 0.84522375861E+02 0.72089678891E+02 0.58902295750E+02 0.45586962352E+02
 0.33723021787E+02 0.24732587532E+02 0.18817166373E+02 0.14978941013E+02 0.12476580589E+02
 0.10923560306E+02 0.99830855568E+01 0.94602588857E+01 0.85824772894E+01 0.87702418971E+01
 0.93467407392E+01 0.10397892757E+02 0.12161162637E+02 0.15034700474E+02 0.19492271074E+02
 0.26636906190E+02 0.37489047804E+02 0.51465659478E+02 0.66600040362E+02 0.81037974852E+02
 0.94428985750E+02 0.10755047076E+03 0.12030202323E+03 0.13033069087E+03 0.13421970127E+03
 0.13033069087E+03 0.12030202323E+03 0.10755047076E+03 0.94428985750E+02 0.81037974852E+02
 0.66600040362E+02 0.51465659478E+02 0.37489047804E+02 0.26636906190E+02 0.19492271074E+02
 0.15034700474E+02 0.12161162637E+02 0.10397892757E+02 0.93467407392E+01 0.87702418971E+01
 0.80717423393E+01 0.82741713115E+01 0.88970263108E+01 0.10037139634E+02 0.11957988885E+02
 0.15096619784E+02 0.20011358228E+02 0.28059307484E+02 0.40243795636E+02 0.55711933896E+02
 0.72144620578E+02 0.87566178036E+02 0.10190236611E+03 0.11635547567E+03 0.13088119654E+03
 0.14255569784E+03 0.14712586894E+03 0.14255569784E+03 0.13088119654E+03 0.11635547567E+03
 0.10190236611E+03 0.87566178036E+02 0.72144620578E+02 0.55711933896E+02 0.40243795636E+02
 0.28059307484E+02 0.20011358228E+02 0.15096619784E+02 0.11957988885E+02 0.10037139634E+02
 0.88970263108E+01 0.82741713115E+01 0.78551986305E+01 0.80650336416E+01 0.87103444388E+01
 0.98902870755E+01 0.11875710472E+02 0.15115882747E+02 0.20204413517E+02 0.28587972721E+02
 0.41260024467E+02 0.57271553819E+02 0.74183843755E+02 0.89992256458E+02 0.10473765726E+03
 0.11977827833E+03 0.13506936779E+03 0.14744065997E+03 0.15229662252E+03 0.14744065997E+03
 0.13506936779E+03 0.11977827833E+03 0.10473765726E+03 0.89992256458E+02 0.74183843755E+02
 0.57271553819E+02 0.41260024467E+02 0.28587972721E+02 0.20204413517E+02 0.15115882747E+02
 0.11875710472E+02 0.98902870755E+01 0.87103444388E+01 0.80650336416E+01 0.80717423393E+01
 0.82741713115E+01 0.88970263108E+01 0.10037139634E+02 0.11957988885E+02 0.15096619784E+02
 0.20011358228E+02 0.28059307484E+02 0.40243795636E+02 0.55711933896E+02 0.72144620578E+02
 0.87566178036E+02 0.10190236611E+03 0.11635547567E+03 0.13088119654E+03 0.14255569784E+03
 0.14712586894E+03 0.14255569784E+03 0.13088119654E+03 0.11635547567E+03 0.10190236611E+03
 0.87566178036E+02 0.72144620578E+02 0.55711933896E+02 0.40243795636E+02 0.28059307484E+02
 0.20011358228E+02 0.15096619784E+02 0.11957988885E+02 0.10037139634E+02 0.88970263108E+01
 0.82741713115E+01 0.85824772894E+01 0.87702418971E+01 0.93467407392E+01 0.10397892757E+02
 0.12161162637E+02 0.15034700474E+02 0.19492271074E+02 0.26636906190E+02 0.37489047804E+02
 0.51465659478E+02 0.66600040362E+02 0.81037974852E+02 0.94428985750E+02 0.10755047076E+03
 0.12030202323E+03 0.13033069087E+03 0.13421970127E+03 0.13033069087E+03 0.12030202323E+03
 0.10755047076E+03 0.94428985750E+02 0.81037974852E+02 0.66600040362E+02 0.51465659478E+02
 0.37489047804E+02 0.26636906190E+02 0.19492271074E+02 0.15034700474E+02 0.12161162637E+02
 0.10397892757E+02 0.93467407392E+01 0.87702418971E+01 0.92887727654E+01 0.94602588857E+01
 0.99830855568E+01 0.10923560306E+02 0.12476580589E+02 0.14978941013E+02 0.18817166373E+02
 0.24732587532E+02 0.33723021787E+02 0.45586962352E+02 0.58902295750E+02 0.72089678891E+02
 0.84522375861E+02 0.96408099690E+02 0.10743836541E+03 0.11579962530E+03 0.11898399916E+03
 0.11579962530E+03 0.10743836541E+03 0.96408099690E+02 0.84522375861E+02 0.72089678891E+02
 0.58902295750E+02 0.45586962352E+02 0.33723021787E+02 0.24732587532E+02 0.18817166373E+02
 0.14978941013E+02 0.12476580589E+02 0.10923560306E+02 0.99830855568E+01 0.94602588857E+01
 0.10526848327E+02 0.10664152069E+02 0.11083066147E+02 0.11837851905E+02 0.13086683492E+02
 0.15104338563E+02 0.18216433726E+02 0.22822093879E+02 0.29764859168E+02 0.39232919670E+02
 0.50437400013E+02 0.62231815254E+02 0.73862367565E+02 0.84999223275E+02 0.94981266436E+02
 0.10226008037E+03 0.10497124104E+03 0.10226008037E+03 0.94981266436E+02 0.84999223275E+02
 0.73862367565E+02 0.62231815254E+02 0.50437400013E+02 0.39232919670E+02 0.29764859168E+02
 0.22822093879E+02 0.18216433726E+02 0.15104338563E+02 0.13086683492E+02 0.11837851905E+02
 0.11083066147E+02 0.10664152069E+02 0.12927594226E+02 0.12984755869E+02 0.13173813665E+02
 0.13567205190E+02 0.14322208813E+02 0.15679665836E+02 0.17919916251E+02 0.21276515996E+02
 0.26243053450E+02 0.33276167852E+02 0.42161518816E+02 0.52255448658E+02 0.62876907708E+02
 0.73353360924E+02 0.82678018922E+02 0.89331053462E+02 0.91770684559E+02 0.89331053462E+02
 0.82678018922E+02 0.73353360924E+02 0.62876907708E+02 0.52255448658E+02 0.42161518816E+02
 0.33276167852E+02 0.26243053450E+02 0.21276515996E+02 0.17919916251E+02 0.15679665836E+02
 0.14322208813E+02 0.13567205190E+02 0.13173813665E+02 0.12984755869E+02 0.17168720164E+02
 0.17076927901E+02 0.16846644335E+02 0.16612741202E+02 0.16587621196E+02 0.17028804364E+02
 0.18197947410E+02 0.20304344847E+02 0.23509921679E+02 0.28237508811E+02 0.34662685409E+02
 0.42578181505E+02 0.51513681642E+02 0.60719440099E+02 0.69036544954E+02 0.74960482109E+02
 0.77122633109E+02 0.74960482109E+02 0.69036544954E+02 0.60719440099E+02 0.51513681642E+02
 0.42578181505E+02 0.34662685409E+02 0.28237508811E+02 0.23509921679E+02 0.20304344847E+02
 0.18197947410E+02 0.17028804364E+02 0.16587621196E+02 0.16612741202E+02 0.16846644335E+02
 0.17076927901E+02 0.24024165055E+02 0.23677541061E+02 0.22766009689E+02 0.21573848821E+02
 0.20397903642E+02 0.19568218960E+02 0.19379900788E+02 0.20052508840E+02 0.21689629007E+02
 0.24383537370E+02 0.28402177776E+02 0.33802646119E+02 0.40344639764E+02 0.47414391143E+02
 0.53968047070E+02 0.58685213567E+02 0.60412052482E+02 0.58685213567E+02 0.53968047070E+02
 0.47414391143E+02 0.40344639764E+02 0.33802646119E+02 0.28402177776E+02 0.24383537370E+02
 0.21689629007E+02 0.20052508840E+02 0.19379900788E+02 0.19568218960E+02 0.20397903642E+02
 0.21573848821E+02 0.22766009689E+02 0.23677541061E+02 0.36610268304E+02 0.35571951006E+02
 0.32868990431E+02 0.29459529930E+02 0.26260968527E+02 0.23708474470E+02 0.21813956214E+02
 0.20778814496E+02 0.20760997913E+02 0.21752677398E+02 0.23708580588E+02 0.26708449857E+02
 0.30660101601E+02 0.35167255170E+02 0.39482282056E+02 0.42641350625E+02 0.43805947263E+02
 0.42641350625E+02 0.39482282056E+02 0.35167255170E+02 0.30660101601E+02 0.26708449857E+02
 0.23708580588E+02 0.21752677398E+02 0.20760997913E+02 0.20778814496E+02 0.21813956214E+02
 0.23708474470E+02 0.26260968527E+02 0.29459529930E+02 0.32868990431E+02 0.35571951006E+02
 0.59720422677E+02 0.57398914070E+02 0.51299589790E+02 0.43460881991E+02 0.35929792251E+02
 0.29921917783E+02 0.25666784518E+02 0.22675793478E+02 0.20815254440E+02 0.20151899916E+02
 0.20524975685E+02 0.21693137372E+02 0.23521715675E+02 0.25785026204E+02 0.28046760579E+02
 0.29737885671E+02 0.30366506280E+02 0.29737885671E+02 0.28046760579E+02 0.25785026204E+02
 0.23521715675E+02 0.21693137372E+02 0.20524975685E+02 0.20151899916E+02 0.20815254440E+02
 0.22675793478E+02 0.25666784518E+02 0.29921917783E+02 0.35929792251E+02 0.43460881991E+02
 0.51299589790E+02 0.57398914070E+02 0.94064089278E+02 0.90014734157E+02 0.79308973523E+02
 0.65331321975E+02 0.51482863174E+02 0.39903666115E+02 0.31391422956E+02 0.25730095726E+02
 0.21903807801E+02 0.19528193046E+02 0.18461550084E+02 0.18353904730E+02 0.18863324737E+02
 0.19697266252E+02 0.20592227825E+02 0.21271304370E+02 0.21523121349E+02 0.21271304370E+02
 0.20592227825E+02 0.19697266252E+02 0.18863324737E+02 0.18353904730E+02 0.18461550084E+02
 0.19528193046E+02 0.21903807801E+02 0.25730095726E+02 0.31391422956E+02 0.39903666115E+02
 0.51482863174E+02 0.65331321975E+02 0.79308973523E+02 0.90014734157E+02 0.13679723680E+03
 0.13082483659E+03 0.11501602270E+03 0.94226319677E+02 0.73159083558E+02 0.54702144919E+02
 0.40212000054E+02 0.30169568325E+02 0.23911146407E+02 0.19803330293E+02 0.17365694382E+02
 0.16169330528E+02 0.15775001074E+02 0.15836806320E+02 0.16057599428E+02 0.16232237702E+02
 0.16291308598E+02 0.16232237702E+02 0.16057599428E+02 0.15836806320E+02 0.15775001074E+02
 0.16169330528E+02 0.17365694382E+02 0.19803330293E+02 0.23911146407E+02 0.30169568325E+02
 0.40212000054E+02 0.54702144919E+02 0.73159083558E+02 0.94226319677E+02 0.11501602270E+03
 0.13082483659E+03 0.18511217589E+03 0.17710708514E+03 0.15600730723E+03 0.12833503561E+03
 0.99983386064E+02 0.74190467096E+02 0.52615105195E+02 0.36644314533E+02 0.26674621540E+02
 0.20769744272E+02 0.17027143146E+02 0.14892904772E+02 0.13816214356E+02 0.13367314858E+02
 0.13189237928E+02 0.13075784203E+02 0.13024102909E+02 0.13075784203E+02 0.13189237928E+02
 0.13367314858E+02 0.13816214356E+02 0.14892904772E+02 0.17027143146E+02 0.20769744272E+02
 0.26674621540E+02 0.36644314533E+02 0.52615105195E+02 0.74190467096E+02 0.99983386064E+02
 0.12833503561E+03 0.15600730723E+03 0.17710708514E+03 0.23718320630E+03 0.22694562060E+03
 0.20017872984E+03 0.16546355741E+03 0.12995461962E+03 0.96883538724E+02 0.67809884414E+02
 0.44992017797E+02 0.30227547697E+02 0.22125042845E+02 0.17173155008E+02 0.14227440076E+02
 0.12636934072E+02 0.11867807464E+02 0.11464271587E+02 0.11180037159E+02 0.11058213671E+02
 0.11180037159E+02 0.11464271587E+02 0.11867807464E+02 0.12636934072E+02 0.14227440076E+02
 0.17173155008E+02 0.22125042845E+02 0.30227547697E+02 0.44992017797E+02 0.67809884414E+02
 0.96883538724E+02 0.12995461962E+03 0.16546355741E+03 0.20017872984E+03 0.22694562060E+03
 0.28833990352E+03 0.27574992484E+03 0.24310740711E+03 0.20135617937E+03 0.15907164192E+03
 0.11933940776E+03 0.83298092421E+02 0.53824727612E+02 0.34092094035E+02 0.23507367219E+02
 0.17525215081E+02 0.13914820508E+02 0.11943204458E+02 0.10976990582E+02 0.10454059918E+02
 0.10073233492E+02 0.99082098113E+01 0.10073233492E+02 0.10454059918E+02 0.10976990582E+02
 0.11943204458E+02 0.13914820508E+02 0.17525215081E+02 0.23507367219E+02 0.34092094035E+02
 0.53824727612E+02 0.83298092421E+02 0.11933940776E+03 0.15907164192E+03 0.20135617937E+03
 0.24310740711E+03 0.27574992484E+03 0.32788870080E+03 0.31336187524E+03 0.27591212583E+03
 0.22850931098E+03 0.18098394607E+03 0.13631208915E+03 0.95169457441E+02 0.60744816608E+02
 0.37192007794E+02 0.24572091733E+02 0.17843123972E+02 0.13781955940E+02 0.11564831116E+02
 0.10487016904E+02 0.99055997006E+01 0.94743496434E+01 0.92850270141E+01 0.94743496434E+01
 0.99055997006E+01 0.10487016904E+02 0.11564831116E+02 0.13781955940E+02 0.17843123972E+02
 0.24572091733E+02 0.37192007794E+02 0.60744816608E+02 0.95169457441E+02 0.13631208915E+03
 0.18098394607E+03 0.22850931098E+03 0.27591212583E+03 0.31336187524E+03 0.32807046332E+03
 0.31358216091E+03 0.27621555515E+03 0.22887045666E+03 0.18132631821E+03 0.13656308529E+03
 0.95303973751E+02 0.60787869351E+02 0.37189242764E+02 0.24558763923E+02 0.17833680586E+02
 0.13780656786E+02 0.11572831088E+02 0.10503756357E+02 0.99295881593E+01 0.95032901249E+01
 0.93157565681E+01 0.95032901249E+01 0.99295881593E+01 0.10503756357E+02 0.11572831088E+02
 0.13780656786E+02 0.17833680586E+02 0.24558763923E+02 0.37189242764E+02 0.60787869351E+02
 0.95303973751E+02 0.13656308529E+03 0.18132631821E+03 0.22887045666E+03 0.27621555515E+03
 0.31358216091E+03 0.31409844400E+03 0.30029981199E+03 0.26464201967E+03 0.21929726506E+03
 0.17359460836E+03 0.13055684143E+03 0.91082378991E+02 0.58309900519E+02 0.36068917646E+02
 0.24172994208E+02 0.17713541112E+02 0.13816521241E+02 0.11692169150E+02 0.10659189025E+02
 0.10102610553E+02 0.96918636214E+01 0.95120677304E+01 0.96918636214E+01 0.10102610553E+02
 0.10659189025E+02 0.11692169150E+02 0.13816521241E+02 0.17713541112E+02 0.24172994208E+02
 0.36068917646E+02 0.58309900519E+02 0.91082378991E+02 0.13055684143E+03 0.17359460836E+03
 0.21929726506E+03 0.26464201967E+03 0.30029981199E+03 0.27740247734E+03 0.26535603046E+03
 0.23405001646E+03 0.19383988115E+03 0.15295238328E+03 0.11453553994E+03 0.79889667746E+02
 0.51807859714E+02 0.33164164899E+02 0.23157409696E+02 0.17406127075E+02 0.13944918083E+02
 0.12058265439E+02 0.11134129190E+02 0.10635009767E+02 0.10273359219E+02 0.10117068121E+02
 0.10273359219E+02 0.10635009767E+02 0.11134129190E+02 0.12058265439E+02 0.13944918083E+02
 0.17406127075E+02 0.23157409696E+02 0.33164164899E+02 0.51807859714E+02 0.79889667746E+02
 0.11453553994E+03 0.15295238328E+03 0.19383988115E+03 0.23405001646E+03 0.26535603046E+03
 0.22938912937E+03 0.21949917993E+03 0.19359106882E+03 0.15988565677E+03 0.12534230694E+03
 0.93250433602E+02 0.65253065304E+02 0.43497564418E+02 0.29533560371E+02 0.21822947992E+02
 0.17065109226E+02 0.14246269720E+02 0.12728582954E+02 0.11996509951E+02 0.11614279376E+02
 0.11346566179E+02 0.11232062876E+02 0.11346566179E+02 0.11614279376E+02 0.11996509951E+02
 0.12728582954E+02 0.14246269720E+02 0.17065109226E+02 0.21822947992E+02 0.29533560371E+02
 0.43497564418E+02 0.65253065304E+02 0.93250433602E+02 0.12534230694E+03 0.15988565677E+03
 0.19359106882E+03 0.21949917993E+03 0.17970906420E+03 0.17191735020E+03 0.15135571548E+03
 0.12434917776E+03 0.96686493087E+02 0.71630071345E+02 0.50851975406E+02 0.35626520157E+02
 0.26174005210E+02 0.20508880488E+02 0.16921824012E+02 0.14886984651E+02 0.13866788263E+02
 0.13446432285E+02 0.13284267379E+02 0.13182593078E+02 0.13136029772E+02 0.13182593078E+02
 0.13284267379E+02 0.13446432285E+02 0.13866788263E+02 0.14886984651E+02 0.16921824012E+02
 0.20508880488E+02 0.26174005210E+02 0.35626520157E+02 0.50851975406E+02 0.71630071345E+02
 0.96686493087E+02 0.12434917776E+03 0.15135571548E+03 0.17191735020E+03 0.13290672987E+03
 0.12708268561E+03 0.11166097829E+03 0.91380183433E+02 0.70865763186E+02 0.52985649803E+02
 0.39065835106E+02 0.29497872289E+02 0.23517946500E+02 0.19569871154E+02 0.17244811430E+02
 0.16116125816E+02 0.15756819846E+02 0.15833080721E+02 0.16059483425E+02 0.16237947443E+02
 0.16298849910E+02 0.16237947443E+02 0.16059483425E+02 0.15833080721E+02 0.15756819846E+02
 0.16116125816E+02 0.17244811430E+02 0.19569871154E+02 0.23517946500E+02 0.29497872289E+02
 0.39065835106E+02 0.52985649803E+02 0.70865763186E+02 0.91380183433E+02 0.11166097829E+03
 0.12708268561E+03 0.91253557321E+02 0.87320427960E+02 0.76924341241E+02 0.63363713595E+02
 0.49962460480E+02 0.38812047111E+02 0.30666342822E+02 0.25254038903E+02 0.21566707088E+02
 0.19298590756E+02 0.18298547206E+02 0.18222799752E+02 0.18739956434E+02 0.19563582613E+02
 0.20436680479E+02 0.21096355789E+02 0.21340685311E+02 0.21096355789E+02 0.20436680479E+02
 0.19563582613E+02 0.18739956434E+02 0.18222799752E+02 0.18298547206E+02 0.19298590756E+02
 0.21566707088E+02 0.25254038903E+02 0.30666342822E+02 0.38812047111E+02 0.49962460480E+02
 0.63363713595E+02 0.76924341241E+02 0.87320427960E+02 0.57898859414E+02 0.55661389987E+02
 0.49785935658E+02 0.42244449672E+02 0.35015093110E+02 0.29262546564E+02 0.25180426099E+02
 0.22287923456E+02 0.20509468256E+02 0.19898103586E+02 0.20291152892E+02 0.21446104518E+02
 0.23221598106E+02 0.25403945588E+02 0.27577966293E+02 0.29201216398E+02 0.29804284688E+02
 0.29201216398E+02 0.27577966293E+02 0.25403945588E+02 0.23221598106E+02 0.21446104518E+02
 0.20291152892E+02 0.19898103586E+02 0.20509468256E+02 0.22287923456E+02 0.25180426099E+02
 0.29262546564E+02 0.35015093110E+02 0.42244449672E+02 0.49785935658E+02 0.55661389987E+02
 0.35648094012E+02 0.34655771806E+02 0.32072866362E+02 0.28814165637E+02 0.25749960950E+02
 0.23280392115E+02 0.21441715890E+02 0.20452340289E+02 0.20459069147E+02 0.21450334559E+02
 0.23363925607E+02 0.26269665879E+02 0.30079954075E+02 0.34413449995E+02 0.38553876804E+02
 0.41581131411E+02 0.42696408957E+02 0.41581131411E+02 0.38553876804E+02 0.34413449995E+02
 0.30079954075E+02 0.26269665879E+02 0.23363925607E+02 0.21450334559E+02 0.20459069147E+02
 0.20452340289E+02 0.21441715890E+02 0.23280392115E+02 0.25749960950E+02 0.28814165637E+02
 0.32072866362E+02 0.34655771806E+02 0.23596633100E+02 0.23263142915E+02 0.22382444768E+02
 0.21219489212E+02 0.20072074221E+02 0.19267332510E+02 0.19091888782E+02 0.19758706995E+02
 0.21369832895E+02 0.23997471824E+02 0.27896899086E+02 0.33125822766E+02 0.39444881435E+02
 0.46253467473E+02 0.52546512984E+02 0.57065872316E+02 0.58718308245E+02 0.57065872316E+02
 0.52546512984E+02 0.46253467473E+02 0.39444881435E+02 0.33125822766E+02 0.27896899086E+02
 0.23997471824E+02 0.21369832895E+02 0.19758706995E+02 0.19091888782E+02 0.19267332510E+02
 0.20072074221E+02 0.21219489212E+02 0.22382444768E+02 0.23263142915E+02 0.16955588489E+02
 0.16865732779E+02 0.16640623710E+02 0.16412625899E+02 0.16389033406E+02 0.16820359623E+02
 0.17961728409E+02 0.20020336675E+02 0.23144903890E+02 0.27738901727E+02 0.33988629121E+02
 0.41688111972E+02 0.50356964727E+02 0.59245135219E+02 0.67232565570E+02 0.72897541224E+02
 0.74960467159E+02 0.72897541224E+02 0.67232565570E+02 0.59245135219E+02 0.50356964727E+02
 0.41688111972E+02 0.33988629121E+02 0.27738901727E+02 0.23144903890E+02 0.20020336675E+02
 0.17961728409E+02 0.16820359623E+02 0.16389033406E+02 0.16412625899E+02 0.16640623710E+02
 0.16865732779E+02 0.12865872881E+02 0.12920353453E+02 0.13101411610E+02 0.13480609396E+02
 0.14211831732E+02 0.15530166693E+02 0.17711030156E+02 0.20983633591E+02 0.25809965824E+02
 0.32663343560E+02 0.41354957114E+02 0.51238795621E+02 0.61597826862E+02 0.71728827351E+02
 0.80658245238E+02 0.86980550199E+02 0.89289651614E+02 0.86980550199E+02 0.80658245238E+02
 0.71728827351E+02 0.61597826862E+02 0.51238795621E+02 0.41354957114E+02 0.32663343560E+02
 0.25809965824E+02 0.20983633591E+02 0.17711030156E+02 0.15530166693E+02 0.14211831732E+02
 0.13480609396E+02 0.13101411610E+02 0.12920353453E+02 0.10570875000E+02 0.10701762687E+02
 0.11102180810E+02 0.11827168307E+02 0.13033081275E+02 0.14989929092E+02 0.18020307292E+02
 0.22499632088E+02 0.29255507385E+02 0.38523181110E+02 0.49554160721E+02 0.61185176267E+02
 0.72580799138E+02 0.83334309635E+02 0.92815339409E+02 0.99646139662E+02 0.10217563125E+03
 0.99646139662E+02 0.92815339409E+02 0.83334309635E+02 0.72580799138E+02 0.61185176267E+02
 0.49554160721E+02 0.38523181110E+02 0.29255507385E+02 0.22499632088E+02 0.18020307292E+02
 0.14989929092E+02 0.13033081275E+02 0.11827168307E+02 0.11102180810E+02 0.10701762687E+02
 0.94037463497E+01 0.95661238298E+01 0.10062924064E+02 0.10962478060E+02 0.12458966726E+02
 0.14885152738E+02 0.18623444231E+02 0.24370308673E+02 0.33139866517E+02 0.44802333069E+02
 0.57985807978E+02 0.71066228880E+02 0.83272874550E+02 0.94682850194E+02 0.10502858086E+03
 0.11275492477E+03 0.11567848982E+03 0.11275492477E+03 0.10502858086E+03 0.94682850194E+02
 0.83272874550E+02 0.71066228880E+02 0.57985807978E+02 0.44802333069E+02 0.33139866517E+02
 0.24370308673E+02 0.18623444231E+02 0.14885152738E+02 0.12458966726E+02 0.10962478060E+02
 0.10062924064E+02 0.95661238298E+01 0.87519937237E+01 0.89284273923E+01 0.94727213801E+01
 0.10473939578E+02 0.12169859668E+02 0.14955441809E+02 0.19293585752E+02 0.26235456385E+02
 0.36842970049E+02 0.50625302514E+02 0.65668440044E+02 0.80037420776E+02 0.93171499978E+02
 0.10566829409E+03 0.11749178945E+03 0.12665271933E+03 0.13018458744E+03 0.12665271933E+03
 0.11749178945E+03 0.10566829409E+03 0.93171499978E+02 0.80037420776E+02 0.65668440044E+02
 0.50625302514E+02 0.36842970049E+02 0.26235456385E+02 0.19293585752E+02 0.14955441809E+02
 0.12169859668E+02 0.10473939578E+02 0.94727213801E+01 0.89284273923E+01 0.82854045836E+01
 0.84745933888E+01 0.90599654074E+01 0.10142563533E+02 0.11987258001E+02 0.15028870673E+02
 0.19807784536E+02 0.27629503014E+02 0.39554440156E+02 0.54834820508E+02 0.71202039568E+02
 0.86568535146E+02 0.10059851003E+03 0.11428064278E+03 0.12766024543E+03 0.13826577927E+03
 0.14239667348E+03 0.13826577927E+03 0.12766024543E+03 0.11428064278E+03 0.10059851003E+03
 0.86568535146E+02 0.71202039568E+02 0.54834820508E+02 0.39554440156E+02 0.27629503014E+02
 0.19807784536E+02 0.15028870673E+02 0.11987258001E+02 0.10142563533E+02 0.90599654074E+01
 0.84745933888E+01 0.80874487606E+01 0.82832179895E+01 0.88887689638E+01 0.10007950921E+02
 0.11913518083E+02 0.15052981293E+02 0.19999077852E+02 0.28147857988E+02 0.40555102616E+02
 0.56381206593E+02 0.73236341069E+02 0.88991613241E+02 0.10340697060E+03 0.11761507628E+03
 0.13167170657E+03 0.14289377161E+03 0.14727789892E+03 0.14289377161E+03 0.13167170657E+03
 0.11761507628E+03 0.10340697060E+03 0.88991613241E+02 0.73236341069E+02 0.56381206593E+02
 0.40555102616E+02 0.28147857988E+02 0.19999077852E+02 0.15052981293E+02 0.11913518083E+02
 0.10007950921E+02 0.88887689638E+01 0.82832179895E+01 0.82854045836E+01 0.84745933888E+01
 0.90599654074E+01 0.10142563533E+02 0.11987258001E+02 0.15028870673E+02 0.19807784536E+02
 0.27629503014E+02 0.39554440156E+02 0.54834820508E+02 0.71202039568E+02 0.86568535146E+02
 0.10059851003E+03 0.11428064278E+03 0.12766024543E+03 0.13826577927E+03 0.14239667348E+03
 0.13826577927E+03 0.12766024543E+03 0.11428064278E+03 0.10059851003E+03 0.86568535146E+02
 0.71202039568E+02 0.54834820508E+02 0.39554440156E+02 0.27629503014E+02 0.19807784536E+02
 0.15028870673E+02 0.11987258001E+02 0.10142563533E+02 0.90599654074E+01 0.84745933888E+01
 0.87519937237E+01 0.89284273923E+01 0.94727213801E+01 0.10473939578E+02 0.12169859668E+02
 0.14955441809E+02 0.19293585752E+02 0.26235456385E+02 0.36842970049E+02 0.50625302514E+02
 0.65668440044E+02 0.80037420776E+02 0.93171499978E+02 0.10566829409E+03 0.11749178945E+03
 0.12665271933E+03 0.13018458744E+03 0.12665271933E+03 0.11749178945E+03 0.10566829409E+03
 0.93171499978E+02 0.80037420776E+02 0.65668440044E+02 0.50625302514E+02 0.36842970049E+02