   4   4   0   0
  0.1380865E+02  0.3808352E-09  0.3808352E-09  0.3808352E-09  0.5000000E-15
  1.000000000000000E-004
  CAR 
 unknown system                          
     28.33791456     -1.58472163  301      9.93223903      1.00000000
     -1.585  0.0000E+00  0.0000E+00
     -1.485  0.0000E+00  0.0000E+00
     -1.385  0.0000E+00  0.0000E+00
     -1.285  0.0000E+00  0.0000E+00
     -1.186 -0.5024E-29 -0.5011E-30
     -1.086 -0.1079E-25 -0.1077E-26
     -0.986 -0.1403E-22 -0.1401E-23
     -0.887 -0.1104E-19 -0.1103E-20
     -0.787 -0.5258E-17 -0.5256E-18
     -0.687 -0.1466E-14 -0.1467E-15
     -0.587 -0.2535E-12 -0.2543E-13
     -0.488 -0.2646E-10 -0.2665E-11
     -0.388 -0.1667E-08 -0.1690E-09
     -0.288 -0.6348E-07 -0.6501E-08
     -0.188 -0.1464E-05 -0.1525E-06
     -0.089 -0.2051E-04 -0.2198E-05
      0.011 -0.1750E-03 -0.1966E-04
      0.111 -0.8974E-03 -0.1092E-03
      0.211 -0.2543E-02 -0.3628E-03
      0.310 -0.2043E-02 -0.5666E-03
      0.410  0.1198E-01  0.6280E-03
      0.510  0.5096E-01  0.5711E-02
      0.610  0.9981E-01  0.1567E-01
      0.709  0.1229E+00  0.2792E-01
      0.809  0.1327E+00  0.4116E-01
      0.909  0.1880E+00  0.5990E-01
      1.009  0.2570E+00  0.8554E-01
      1.108  0.2377E+00  0.1092E+00
      1.208  0.1826E+00  0.1275E+00
      1.308  0.2292E+00  0.1503E+00
      1.408  0.3292E+00  0.1832E+00
      1.507  0.3550E+00  0.2186E+00
      1.607  0.3243E+00  0.2509E+00
      1.707  0.3457E+00  0.2854E+00
      1.807  0.4216E+00  0.3274E+00
      1.906  0.4159E+00  0.3689E+00
      2.006  0.3445E+00  0.4033E+00
      2.106  0.3778E+00  0.4410E+00
      2.205  0.5281E+00  0.4936E+00
      2.305  0.6637E+00  0.5598E+00
      2.405  0.7032E+00  0.6300E+00
      2.505  0.6176E+00  0.6916E+00
      2.604  0.4919E+00  0.7407E+00
      2.704  0.5789E+00  0.7984E+00
      2.804  0.8522E+00  0.8834E+00
      2.904  0.9661E+00  0.9798E+00
      3.003  0.8997E+00  0.1069E+01
      3.103  0.1081E+01  0.1177E+01
      3.203  0.1599E+01  0.1337E+01
      3.303  0.2013E+01  0.1538E+01
      3.402  0.2226E+01  0.1760E+01
      3.502  0.2366E+01  0.1996E+01
      3.602  0.2401E+01  0.2235E+01
      3.702  0.2512E+01  0.2486E+01
      3.801  0.2857E+01  0.2771E+01
      3.901  0.3369E+01  0.3107E+01
      4.001  0.4048E+01  0.3510E+01
      4.101  0.4732E+01  0.3982E+01
      4.200  0.5186E+01  0.4500E+01
      4.300  0.5489E+01  0.5047E+01
      4.400  0.5869E+01  0.5633E+01
      4.500  0.6355E+01  0.6266E+01
      4.599  0.6520E+01  0.6917E+01
      4.699  0.6161E+01  0.7531E+01
      4.799  0.5773E+01  0.8107E+01
      4.899  0.5710E+01  0.8677E+01
      4.998  0.5667E+01  0.9242E+01
      5.098  0.5276E+01  0.9768E+01
      5.198  0.4663E+01  0.1023E+02
      5.297  0.4251E+01  0.1066E+02
      5.397  0.4220E+01  0.1108E+02
      5.497  0.4312E+01  0.1151E+02
      5.597  0.4246E+01  0.1193E+02
      5.696  0.4170E+01  0.1235E+02
      5.796  0.4431E+01  0.1279E+02
      5.896  0.5088E+01  0.1330E+02
      5.996  0.5926E+01  0.1389E+02
      6.095  0.6724E+01  0.1456E+02
      6.195  0.7107E+01  0.1527E+02
      6.295  0.6729E+01  0.1594E+02
      6.395  0.5953E+01  0.1653E+02
      6.494  0.5528E+01  0.1708E+02
      6.594  0.5596E+01  0.1764E+02
      6.694  0.6117E+01  0.1825E+02
      6.794  0.7513E+01  0.1900E+02
      6.893  0.9660E+01  0.1997E+02
      6.993  0.1142E+02  0.2110E+02
      7.093  0.1153E+02  0.2225E+02
      7.193  0.9921E+01  0.2324E+02
      7.292  0.8119E+01  0.2405E+02
      7.392  0.7420E+01  0.2479E+02
      7.492  0.7641E+01  0.2556E+02
      7.592  0.8080E+01  0.2636E+02
      7.691  0.8459E+01  0.2721E+02
      7.791  0.8511E+01  0.2805E+02
      7.891  0.7661E+01  0.2882E+02
      7.991  0.6335E+01  0.2945E+02
      8.090  0.5698E+01  0.3002E+02
      8.190  0.5514E+01  0.3057E+02
      8.290  0.4838E+01  0.3105E+02
      8.389  0.3887E+01  0.3144E+02
      8.489  0.3325E+01  0.3177E+02
      8.589  0.3402E+01  0.3211E+02
      8.689  0.4240E+01  0.3253E+02
      8.788  0.5617E+01  0.3309E+02
      8.888  0.6806E+01  0.3377E+02
      8.988  0.7256E+01  0.3450E+02
      9.088  0.6971E+01  0.3519E+02
      9.187  0.6317E+01  0.3582E+02
      9.287  0.5778E+01  0.3640E+02
      9.387  0.5451E+01  0.3694E+02
      9.487  0.5332E+01  0.3747E+02
      9.586  0.5781E+01  0.3805E+02
      9.686  0.6384E+01  0.3869E+02
      9.786  0.6090E+01  0.3929E+02
      9.886  0.5037E+01  0.3980E+02
      9.985  0.4241E+01  0.4022E+02
     10.085  0.4002E+01  0.4062E+02
     10.185  0.3879E+01  0.4101E+02
     10.285  0.3548E+01  0.4136E+02
     10.384  0.3246E+01  0.4168E+02
     10.484  0.3162E+01  0.4200E+02
     10.584  0.3020E+01  0.4230E+02
     10.684  0.2696E+01  0.4257E+02
     10.783  0.2278E+01  0.4280E+02
     10.883  0.1767E+01  0.4297E+02
     10.983  0.1317E+01  0.4310E+02
     11.083  0.1195E+01  0.4322E+02
     11.182  0.1283E+01  0.4335E+02
     11.282  0.1234E+01  0.4347E+02
     11.382  0.1065E+01  0.4358E+02
     11.481  0.9371E+00  0.4367E+02
     11.581  0.8461E+00  0.4376E+02
     11.681  0.7997E+00  0.4384E+02
     11.781  0.7372E+00  0.4391E+02
     11.880  0.5878E+00  0.4397E+02
     11.980  0.5297E+00  0.4402E+02
     12.080  0.6793E+00  0.4409E+02
     12.180  0.8334E+00  0.4417E+02
     12.279  0.8457E+00  0.4426E+02
     12.379  0.8034E+00  0.4434E+02
     12.479  0.7717E+00  0.4441E+02
     12.579  0.7830E+00  0.4449E+02
     12.678  0.8510E+00  0.4458E+02
     12.778  0.8729E+00  0.4466E+02
     12.878  0.8223E+00  0.4475E+02
     12.978  0.8299E+00  0.4483E+02
     13.077  0.9541E+00  0.4492E+02
     13.177  0.1130E+01  0.4504E+02
     13.277  0.1298E+01  0.4517E+02
     13.377  0.1387E+01  0.4531E+02
     13.476  0.1362E+01  0.4544E+02
     13.576  0.1297E+01  0.4557E+02
     13.676  0.1278E+01  0.4570E+02
     13.776  0.1326E+01  0.4583E+02
     13.875  0.1283E+01  0.4596E+02
     13.975  0.9991E+00  0.4606E+02
     14.075  0.6878E+00  0.4613E+02
     14.175  0.6108E+00  0.4619E+02
     14.274  0.6553E+00  0.4625E+02
     14.374  0.6834E+00  0.4632E+02
     14.474  0.8020E+00  0.4640E+02
     14.574  0.1037E+01  0.4650E+02
     14.673  0.1225E+01  0.4663E+02
     14.773  0.1214E+01  0.4675E+02
     14.873  0.1037E+01  0.4685E+02
     14.972  0.8099E+00  0.4693E+02
     15.072  0.5582E+00  0.4699E+02
     15.172  0.4239E+00  0.4703E+02
     15.272  0.5638E+00  0.4709E+02
     15.371  0.8374E+00  0.4717E+02
     15.471  0.9855E+00  0.4727E+02
     15.571  0.9008E+00  0.4736E+02
     15.671  0.6022E+00  0.4742E+02
     15.770  0.2914E+00  0.4745E+02
     15.870  0.2906E+00  0.4748E+02
     15.970  0.6572E+00  0.4754E+02
     16.070  0.1158E+01  0.4766E+02
     16.169  0.1605E+01  0.4782E+02
     16.269  0.1823E+01  0.4800E+02
     16.369  0.1615E+01  0.4816E+02
     16.469  0.1216E+01  0.4828E+02
     16.568  0.1066E+01  0.4839E+02
     16.668  0.1098E+01  0.4850E+02
     16.768  0.1092E+01  0.4861E+02
     16.868  0.1124E+01  0.4872E+02
     16.967  0.1288E+01  0.4885E+02
     17.067  0.1498E+01  0.4900E+02
     17.167  0.1485E+01  0.4914E+02
     17.267  0.1167E+01  0.4926E+02
     17.366  0.8871E+00  0.4935E+02
     17.466  0.9562E+00  0.4944E+02
     17.566  0.1273E+01  0.4957E+02
     17.666  0.1446E+01  0.4972E+02
     17.765  0.1330E+01  0.4985E+02
     17.865  0.1175E+01  0.4997E+02
     17.965  0.1143E+01  0.5008E+02
     18.064  0.1193E+01  0.5020E+02
     18.164  0.1209E+01  0.5032E+02
     18.264  0.1091E+01  0.5043E+02
     18.364  0.9628E+00  0.5052E+02
     18.463  0.9466E+00  0.5062E+02
     18.563  0.9998E+00  0.5072E+02
     18.663  0.1167E+01  0.5083E+02
     18.763  0.1426E+01  0.5098E+02
     18.862  0.1482E+01  0.5112E+02
     18.962  0.1264E+01  0.5125E+02
     19.062  0.1138E+01  0.5136E+02
     19.162  0.1231E+01  0.5149E+02
     19.261  0.1267E+01  0.5161E+02
     19.361  0.1200E+01  0.5173E+02
     19.461  0.1282E+01  0.5186E+02
     19.561  0.1480E+01  0.5201E+02
     19.660  0.1468E+01  0.5215E+02
     19.760  0.1268E+01  0.5228E+02
     19.860  0.1201E+01  0.5240E+02
     19.960  0.1302E+01  0.5253E+02
     20.059  0.1434E+01  0.5267E+02
     20.159  0.1548E+01  0.5283E+02
     20.259  0.1522E+01  0.5298E+02
     20.359  0.1238E+01  0.5310E+02
     20.458  0.8830E+00  0.5319E+02
     20.558  0.8551E+00  0.5328E+02
     20.658  0.1260E+01  0.5340E+02
     20.758  0.1755E+01  0.5358E+02
     20.857  0.2039E+01  0.5378E+02
     20.957  0.2131E+01  0.5399E+02
     21.057  0.2095E+01  0.5420E+02
     21.156  0.1919E+01  0.5439E+02
     21.256  0.1714E+01  0.5457E+02
     21.356  0.1648E+01  0.5473E+02
     21.456  0.1744E+01  0.5490E+02
     21.555  0.1828E+01  0.5509E+02
     21.655  0.1704E+01  0.5526E+02
     21.755  0.1423E+01  0.5540E+02
     21.855  0.1201E+01  0.5552E+02
     21.954  0.1204E+01  0.5564E+02
     22.054  0.1456E+01  0.5578E+02
     22.154  0.1810E+01  0.5596E+02
     22.254  0.2007E+01  0.5616E+02
     22.353  0.2011E+01  0.5636E+02
     22.453  0.2050E+01  0.5657E+02
     22.553  0.2119E+01  0.5678E+02
     22.653  0.2097E+01  0.5699E+02
     22.752  0.1983E+01  0.5719E+02
     22.852  0.1714E+01  0.5736E+02
     22.952  0.1417E+01  0.5750E+02
     23.052  0.1336E+01  0.5763E+02
     23.151  0.1403E+01  0.5777E+02
     23.251  0.1429E+01  0.5792E+02
     23.351  0.1425E+01  0.5806E+02
     23.451  0.1476E+01  0.5820E+02
     23.550  0.1494E+01  0.5835E+02
     23.650  0.1368E+01  0.5849E+02
     23.750  0.1158E+01  0.5861E+02
     23.850  0.9511E+00  0.5870E+02
     23.949  0.8978E+00  0.5879E+02
     24.049  0.1039E+01  0.5889E+02
     24.149  0.1091E+01  0.5900E+02
     24.248  0.8593E+00  0.5909E+02
     24.348  0.5574E+00  0.5914E+02
     24.448  0.4980E+00  0.5919E+02
     24.548  0.5938E+00  0.5925E+02
     24.647  0.5203E+00  0.5930E+02
     24.747  0.3339E+00  0.5934E+02
     24.847  0.2937E+00  0.5937E+02
     24.947  0.3872E+00  0.5941E+02
     25.046  0.4805E+00  0.5945E+02
     25.146  0.5335E+00  0.5951E+02
     25.246  0.5483E+00  0.5956E+02
     25.346  0.4857E+00  0.5961E+02
     25.445  0.3198E+00  0.5964E+02
     25.545  0.1503E+00  0.5966E+02
     25.645  0.7227E-01  0.5966E+02
     25.745  0.7237E-01  0.5967E+02
     25.844  0.1710E+00  0.5969E+02
     25.944  0.3897E+00  0.5973E+02
     26.044  0.6374E+00  0.5979E+02
     26.144  0.7848E+00  0.5987E+02
     26.243  0.7259E+00  0.5994E+02
     26.343  0.4585E+00  0.5999E+02
     26.443  0.1593E+00  0.6000E+02
     26.543  0.3093E-02  0.6000E+02
     26.642 -0.2186E-01  0.6000E+02
     26.742 -0.9345E-02  0.6000E+02
     26.842 -0.1915E-02  0.6000E+02
     26.942 -0.2228E-03  0.6000E+02
     27.041 -0.1538E-04  0.6000E+02
     27.141 -0.6393E-06  0.6000E+02
     27.241 -0.1611E-07  0.6000E+02
     27.340 -0.2463E-09  0.6000E+02
     27.440 -0.2286E-11  0.6000E+02
     27.540 -0.1290E-13  0.6000E+02
     27.640 -0.5352E-16  0.6000E+02
     27.739  0.0000E+00  0.6000E+02
     27.839  0.0000E+00  0.6000E+02
     27.939  0.0000E+00  0.6000E+02
     28.039  0.0000E+00  0.6000E+02
     28.138  0.0000E+00  0.6000E+02
     28.238  0.0000E+00  0.6000E+02
     28.338  0.0000E+00  0.6000E+02
