    4    4    1    1
  0.1380865E+02  0.3808352E-09  0.3808352E-09  0.3808352E-09  0.5000000E-15
  1.000000000000000E-004
  CAR 
 unknown system                          
     40    216     30
 
  0.0000000E+00  0.0000000E+00  0.0000000E+00  0.7513148E-03
    1        0.415278   1.000000
    2        2.860595   1.000000
    3        3.853749   1.000000
    4        3.898038   1.000000
    5        3.958977   1.000000
    6        4.074915   1.000000
    7        4.084793   1.000000
    8        6.706576   1.000000
    9        6.718857   1.000000
   10        6.855425   1.000000
   11        8.038246   1.000000
   12        8.180473   1.000000
   13        8.891031   1.000000
   14        9.068927   1.000000
   15        9.217066   1.000003
   16        9.996649   0.242495
   17       10.175984  -0.035452
   18       10.267149  -0.019669
   19       10.580254  -0.000023
   20       11.108329  -0.000000
   21       11.718560  -0.000000
   22       12.075369  -0.000000
   23       12.083377  -0.000000
   24       12.101217  -0.000000
   25       19.114617   0.000000
   26       19.339377   0.000000
   27       20.994593   0.000000
   28       21.162127   0.000000
   29       21.345152   0.000000
   30       21.591900   0.000000
 
  0.9090909E-01  0.0000000E+00  0.0000000E+00  0.1502630E-02
    1        0.518792   1.000000
    2        2.930925   1.000000
    3        3.904338   1.000000
    4        3.935151   1.000000
    5        4.022425   1.000000
    6        4.136168   1.000000
    7        4.155814   1.000000
    8        6.667148   1.000000
    9        6.745060   1.000000
   10        6.897194   1.000000
   11        8.047270   1.000000
   12        8.139517   1.000000
   13        8.892636   1.000000
   14        8.979608   1.000000
   15        8.985722   1.000000
   16        9.544099   1.009637
   17       10.116058  -0.014566
   18       10.133952  -0.025994
   19       10.503089  -0.000206
   20       10.684165  -0.000001
   21       11.606992  -0.000000
   22       11.718207  -0.000000
   23       12.671960  -0.000000
   24       12.704121  -0.000000
   25       19.116910   0.000000
   26       19.614171   0.000000
   27       20.513013   0.000000
   28       21.419006   0.000000
   29       21.631182   0.000000
   30       21.935448   0.000000
 
  0.0000000E+00  0.9090909E-01  0.0000000E+00  0.1502630E-02
    1        0.528946   1.000000
    2        2.936150   1.000000
    3        3.892634   1.000000
    4        3.965874   1.000000
    5        3.995723   1.000000
    6        4.135885   1.000000
    7        4.161769   1.000000
    8        6.749907   1.000000
    9        6.759608   1.000000
   10        6.813728   1.000000
   11        8.007072   1.000000
   12        8.195323   1.000000
   13        8.743144   1.000000
   14        9.025248   1.000000
   15        9.048098   1.000000
   16        9.987785   0.274714
   17       10.028975   0.138996
   18       10.262204  -0.020781
   19       10.466629  -0.000519
   20       10.573028  -0.000029
   21       10.959383  -0.000000
   22       11.624017  -0.000000
   23       12.765138  -0.000000
   24       12.944256  -0.000000
   25       19.064402   0.000000
   26       19.516389   0.000000
   27       21.159361   0.000000
   28       21.270529   0.000000
   29       21.418561   0.000000
   30       21.751395   0.000000
 
  0.0000000E+00  0.0000000E+00  0.9090909E-01  0.1502630E-02
    1        0.529455   1.000000
    2        2.938702   1.000000
    3        3.933703   1.000000
    4        3.967394   1.000000
    5        4.023788   1.000000
    6        4.114966   1.000000
    7        4.117781   1.000000
    8        6.653268   1.000000
    9        6.755179   1.000000
   10        6.897427   1.000000
   11        8.020479   1.000000
   12        8.174496   1.000000
   13        8.731342   1.000000
   14        9.006455   1.000000
   15        9.213679   1.000002
   16        9.674139   1.034849
   17        9.937796   0.476495
   18       10.107756  -0.007321
   19       10.457055  -0.000653
   20       10.990006  -0.000000
   21       11.104621  -0.000000
   22       11.631793  -0.000000
   23       12.696516  -0.000000
   24       12.911966  -0.000000
   25       18.885379   0.000000
   26       19.621750   0.000000
   27       21.169464   0.000000
   28       21.280176   0.000000
   29       21.631994   0.000000
   30       21.645542   0.000000
 
  0.1818182E+00  0.0000000E+00  0.0000000E+00  0.1502630E-02
    1        0.820189   1.000000
    2        3.130911   1.000000
    3        4.017089   1.000000
    4        4.039892   1.000000
    5        4.208141   1.000000
    6        4.313969   1.000000
    7        4.372236   1.000000
    8        6.514569   1.000000
    9        6.845723   1.000000
   10        7.007240   1.000000
   11        7.975055   1.000000
   12        8.096514   1.000000
   13        8.411433   1.000000
   14        8.669359   1.000000
   15        8.719217   1.000000
   16        8.884792   1.000000
   17        9.818706   0.904977
   18        9.930288   0.508257
   19       10.116553  -0.014957
   20       10.288171  -0.015226
   21       10.624030  -0.000006
   22       11.717139  -0.000000
   23       13.768608  -0.000000
   24       13.769646  -0.000000
   25       19.099740   0.000000
   26       19.177801   0.000000
   27       21.410167   0.000000
   28       21.454483   0.000000
   29       21.484806   0.000000
   30       22.252041   0.000000
 
  0.0000000E+00  0.1818182E+00  0.0000000E+00  0.1502630E-02
    1        0.863288   1.000000
    2        3.149001   1.000000
    3        3.974409   1.000000
    4        4.096766   1.000000
    5        4.164075   1.000000
    6        4.312353   1.000000
    7        4.398658   1.000000
    8        6.679172   1.000000
    9        6.870272   1.000000
   10        6.875080   1.000000
   11        7.894228   1.000000
   12        8.229721   1.000000
   13        8.329547   1.000000
   14        8.503785   1.000000
   15        8.979139   1.000000
   16        9.574046   1.014781
   17        9.889861   0.674928
   18        9.960952   0.379882
   19       10.128869  -0.023289
   20       10.143554  -0.030046
   21       10.249725  -0.023647
   22       10.629523  -0.000005
   23       13.882120  -0.000000
   24       14.024122  -0.000000
   25       18.607816   0.000000
   26       19.854395   0.000000
   27       21.354807   0.000000
   28       21.360942   0.000000
   29       21.581450   0.000000
   30       22.406838   0.000000
 
  0.0000000E+00  0.0000000E+00  0.1818182E+00  0.1502630E-02
    1        0.865520   1.000000
    2        3.159459   1.000000
    3        4.141204   1.000000
    4        4.171067   1.000000
    5        4.205047   1.000000
    6        4.214021   1.000000
    7        4.238255   1.000000
    8        6.490063   1.000000
    9        6.852264   1.000000
   10        7.008042   1.000000
   11        7.913923   1.000000
   12        8.184231   1.000000
   13        8.295666   1.000000
   14        8.760688   1.000000
   15        8.799457   1.000000
   16        9.198263   1.000001
   17        9.639009   1.029131
   18        9.933953   0.492747
   19       10.028912   0.139175
   20       10.206818  -0.032716
   21       10.651281  -0.000002
   22       11.094530  -0.000000
   23       13.840503  -0.000000
   24       13.983660  -0.000000
   25       18.292781   0.000000
   26       20.039526   0.000000
   27       21.412050   0.000000
   28       21.481521   0.000000
   29       21.700604   0.000000
   30       22.294215   0.000000
 
  0.2727273E+00  0.0000000E+00  0.0000000E+00  0.1502630E-02
    1        1.287494   1.000000
    2        3.427656   1.000000
    3        4.134628   1.000000
    4        4.199607   1.000000
    5        4.513236   1.000000
    6        4.604385   1.000000
    7        4.720735   1.000000
    8        6.295067   1.000000
    9        6.967168   1.000000
   10        7.182521   1.000000
   11        7.754449   1.000000
   12        7.763943   1.000000
   13        7.775502   1.000000
   14        8.136349   1.000000
   15        8.343606   1.000000
   16        8.876705   1.000000
   17        9.104004   1.000000
   18        9.426278   1.001013
   19        9.580699   1.016109
   20        9.846671   0.827932
   21       10.224536  -0.029330
   22       11.715994  -0.000000
   23       14.955576  -0.000000
   24       15.001340  -0.000000
   25       18.562809   0.000000
   26       19.133007   0.000000
   27       20.894834   0.000000
   28       20.956300   0.000000
   29       21.217138   0.000000
   30       22.470498   0.000000
 
  0.0000000E+00  0.2727273E+00  0.0000000E+00  0.1502630E-02
    1        1.395981   1.000000
    2        3.451821   1.000000
    3        4.048128   1.000000
    4        4.247824   1.000000
    5        4.483838   1.000000
    6        4.596415   1.000000
    7        4.781906   1.000000
    8        6.484991   1.000000
    9        7.068298   1.000000
   10        7.069662   1.000000
   11        7.728728   1.000000
   12        7.747223   1.000000
   13        7.824172   1.000000
   14        8.269895   1.000000
   15        8.695892   1.000000
   16        8.945584   1.000000
   17        9.284480   1.000023
   18        9.390399   1.000432
   19        9.653918   1.032075
   20        9.736161   1.022971
   21        9.926554   0.524044
   22       10.237974  -0.026357
   23       15.106647  -0.000000
   24       15.169562  -0.000000
   25       18.143357   0.000000
   26       19.830460   0.000000
   27       20.793512   0.000000
   28       20.949406   0.000000
   29       21.756414   0.000000
   30       21.987703   0.000000
 
  0.0000000E+00  0.0000000E+00  0.2727273E+00  0.1502630E-02
    1        1.401973   1.000000
    2        3.471861   1.000000
    3        4.245870   1.000000
    4        4.428263   1.000000
    5        4.504814   1.000000
    6        4.519654   1.000000
    7        4.527507   1.000000
    8        6.245302   1.000000
    9        6.973399   1.000000
   10        7.182713   1.000000
   11        7.724282   1.000000
   12        7.733892   1.000000
   13        7.843329   1.000000
   14        8.228282   1.000000
   15        8.441290   1.000000
   16        9.071970   1.000000
   17        9.181269   1.000001
   18        9.245577   1.000007
   19        9.513666   1.005855
   20        9.699509   1.034834
   21        9.982248   0.295553
   22       11.082991  -0.000000
   23       15.115100  -0.000000
   24       15.129212  -0.000000
   25       17.737524   0.000000
   26       20.153168   0.000000
   27       20.824797   0.000000
   28       21.047305   0.000000
   29       21.762726   0.000000
   30       22.045761   0.000000
 
  0.3636364E+00  0.0000000E+00  0.0000000E+00  0.1502630E-02
    1        1.842284   1.000000
    2        3.750080   1.000000
    3        4.185157   1.000000
    4        4.381185   1.000000
    5        4.929385   1.000000
    6        4.994972   1.000000
    7        5.117123   1.000000
    8        6.057753   1.000000
    9        6.770407   1.000000
   10        6.950894   1.000000
   11        7.401315   1.000000
   12        7.470321   1.000000
   13        7.503324   1.000000
   14        7.937142   1.000000
   15        8.116432   1.000000
   16        8.203761   1.000000
   17        8.870226   1.000000
   18        9.020549   1.000000
   19        9.092537   1.000000
   20        9.413803   1.000760
   21       10.133899  -0.025967
   22       11.715015  -0.000000
   23       16.180001   0.000000
   24       16.261218   0.000000
   25       18.141396   0.000000
   26       19.191718   0.000000
   27       19.994863   0.000000
   28       20.121807   0.000000
   29       20.411260   0.000000
   30       22.911048   0.000000
 
  0.0000000E+00  0.3636364E+00  0.0000000E+00  0.1502630E-02
    1        2.078139   1.000000
    2        3.694629   1.000000
    3        4.080083   1.000000
    4        4.414391   1.000000
    5        4.895634   1.000000
    6        4.962782   1.000000
    7        5.233035   1.000000
    8        6.276882   1.000000
    9        7.109222   1.000000
   10        7.114774   1.000000
   11        7.342026   1.000000
   12        7.372266   1.000000
   13        7.513618   1.000000
   14        7.859256   1.000000
   15        8.237295   1.000000
   16        8.734304   1.000000
   17        8.752937   1.000000
   18        8.794597   1.000000
   19        9.032384   1.000000
   20        9.267689   1.000014
   21        9.894955   0.654762
   22       10.230189  -0.028106
   23       16.356159   0.000000
   24       16.382443   0.000000
   25       17.802754   0.000000
   26       19.699064   0.000000
   27       19.872033   0.000000
   28       20.056622   0.000000
   29       21.654690   0.000000
   30       21.825318   0.000000
 
  0.0000000E+00  0.0000000E+00  0.3636364E+00  0.1502630E-02
    1        2.092931   1.000000
    2        3.698280   1.000000
    3        4.316984   1.000000
    4        4.662673   1.000000
    5        4.896767   1.000000
    6        4.954929   1.000000
    7        4.958692   1.000000
    8        5.959310   1.000000
    9        6.775156   1.000000
   10        6.963757   1.000000
   11        7.446363   1.000000
   12        7.477135   1.000000
   13        7.486659   1.000000
   14        7.947479   1.000000
   15        8.140024   1.000000
   16        8.311319   1.000000
   17        8.826813   1.000000
   18        8.920857   1.000000
   19        9.166892   1.000000
   20        9.285752   1.000024
   21        9.732423   1.025032
   22       11.073162  -0.000000
   23       16.321826   0.000000
   24       16.436879   0.000000
   25       17.345561   0.000000
   26       19.859777   0.000000
   27       20.169671   0.000000
   28       20.170714   0.000000
   29       21.249120   0.000000
   30       22.209967   0.000000
 
  0.4545455E+00  0.0000000E+00  0.0000000E+00  0.1502630E-02
    1        2.291123   1.000000
    2        3.965683   1.000000
    3        4.145113   1.000000
    4        4.517554   1.000000
    5        5.409304   1.000000
    6        5.413025   1.000000
    7        5.433886   1.000000
    8        5.887922   1.000000
    9        6.235591   1.000000
   10        6.257279   1.000000
   11        7.307753   1.000000
   12        7.445022   1.000000
   13        7.591393   1.000000
   14        7.601612   1.000000
   15        7.789586   1.000000
   16        8.213789   1.000000
   17        8.722000   1.000000
   18        8.746918   1.000000
   19        8.865462   1.000000
   20        9.107792   1.000000
   21       10.093879   0.007884
   22       11.714508  -0.000000
   23       17.305728   0.000000
   24       17.395716   0.000000
   25       17.928104   0.000000
   26       19.010784   0.000000
   27       19.172594   0.000000
   28       19.303307   0.000000
   29       19.913287   0.000000
   30       23.075572   0.000000
 
  0.0000000E+00  0.4545455E+00  0.0000000E+00  0.1502630E-02
    1        2.794390   1.000000
    2        3.509607   1.000000
    3        4.184909   1.000000
    4        4.533784   1.000000
    5        5.297421   1.000000
    6        5.316517   1.000000
    7        5.590010   1.000000
    8        6.130474   1.000000
    9        6.577946   1.000000
   10        6.606109   1.000000
   11        7.167582   1.000000
   12        7.517015   1.000000
   13        7.674308   1.000000
   14        7.678755   1.000000
   15        8.078835   1.000000
   16        8.233899   1.000000
   17        8.267830   1.000000
   18        8.624798   1.000000
   19        8.809244   1.000000
   20        9.003660   1.000000
   21        9.876529   0.725896
   22       10.226490  -0.028912
   23       17.542338   0.000000
   24       17.627944   0.000000
   25       17.665839   0.000000
   26       18.786552   0.000000
   27       18.922303   0.000000
   28       19.605339   0.000000
   29       21.503716   0.000000
   30       21.838336   0.000000
 
  0.0000000E+00  0.0000000E+00  0.4545455E+00  0.1502630E-02
    1        2.844456   1.000000
    2        3.471977   1.000000
    3        4.464141   1.000000
    4        4.870519   1.000000
    5        5.167871   1.000000
    6        5.484704   1.000000
    7        5.491853   1.000000
    8        5.719401   1.000000
    9        6.177129   1.000000
   10        6.232933   1.000000
   11        7.242988   1.000000
   12        7.437267   1.000000
   13        7.665039   1.000000
   14        7.665922   1.000000
   15        7.840949   1.000000
   16        8.353536   1.000000
   17        8.487649   1.000000
   18        8.490846   1.000000
   19        8.929759   1.000000
   20        9.158351   1.000000
   21        9.652948   1.031901
   22       11.067776  -0.000000
   23       17.147988   0.000000
   24       17.527166   0.000000
   25       17.757552   0.000000
   26       18.743533   0.000000
   27       19.027680   0.000000
   28       20.176977   0.000000
   29       20.971592   0.000000
   30       22.275060   0.000000
 
  0.9090909E-01  0.9090909E-01  0.0000000E+00  0.3005259E-02
    1        0.631296   1.000000
    2        3.005313   1.000000
    3        3.946847   1.000000
    4        3.995170   1.000000
    5        4.063490   1.000000
    6        4.169052   1.000000
    7        4.250411   1.000000
    8        6.676371   1.000000
    9        6.780553   1.000000
   10        6.878827   1.000000
   11        8.010110   1.000000
   12        8.152096   1.000000
   13        8.705164   1.000000
   14        8.793932   1.000000
   15        8.972410   1.000000
   16        9.580662   1.016101
   17       10.007921   0.203767
   18       10.099311   0.001451
   19       10.101097  -0.000527
   20       10.405449  -0.002063
   21       11.174174  -0.000000
   22       12.016793  -0.000000
   23       12.515130  -0.000000
   24       13.301514  -0.000000
   25       19.128298   0.000000
   26       19.858596   0.000000
   27       20.550113   0.000000
   28       21.446043   0.000000
   29       21.528250   0.000000
   30       22.299399   0.000000
 
  0.0000000E+00  0.9090909E-01  0.9090909E-01  0.3005259E-02
    1        0.640678   1.000000
    2        3.013398   1.000000
    3        3.955396   1.000000
    4        4.041102   1.000000
    5        4.052620   1.000000
    6        4.181992   1.000000
    7        4.198406   1.000000
    8        6.664647   1.000000
    9        6.788884   1.000000
   10        6.878152   1.000000
   11        7.989570   1.000000
   12        8.179896   1.000000
   13        8.581754   1.000000
   14        8.955153   1.000000
   15        9.003734   1.000000
   16        9.717563   1.031162
   17        9.925301   0.529337
   18        9.970092   0.342967
   19       10.284785  -0.015904
   20       10.355055  -0.005435
   21       10.781589  -0.000000
   22       12.017818  -0.000000
   23       12.825852  -0.000000
   24       13.193830  -0.000000
   25       19.132955   0.000000
   26       19.491533   0.000000
   27       21.190091   0.000000
   28       21.412729   0.000000
   29       21.420409   0.000000
   30       22.194949   0.000000
 
  0.9090909E-01  0.0000000E+00  0.9090909E-01  0.3005259E-02
    1        0.631703   1.000000
    2        3.008034   1.000000
    3        3.970699   1.000000
    4        3.998771   1.000000
    5        4.092395   1.000000
    6        4.180930   1.000000
    7        4.187989   1.000000
    8        6.614944   1.000000
    9        6.774448   1.000000
   10        6.930224   1.000000
   11        8.030949   1.000000
   12        8.125752   1.000000
   13        8.660746   1.000000
   14        8.920705   1.000000
   15        9.063804   1.000000
   16        9.383370   1.000363
   17        9.526262   1.007250
   18       10.079179   0.028594
   19       10.445019  -0.000866
   20       10.601892  -0.000012
   21       11.287749  -0.000000
   22       12.124270  -0.000000
   23       12.310288  -0.000000
   24       13.297413  -0.000000
   25       18.986609   0.000000
   26       19.935810   0.000000
   27       20.564688   0.000000
   28       21.414623   0.000000
   29       21.735511   0.000000
   30       22.228899   0.000000
 
  0.1818182E+00  0.9090909E-01  0.0000000E+00  0.3005259E-02
    1        0.929691   1.000000
    2        3.203131   1.000000
    3        4.075566   1.000000
    4        4.095378   1.000000
    5        4.251435   1.000000
    6        4.319304   1.000000
    7        4.470913   1.000000
    8        6.512160   1.000000
    9        6.863889   1.000000
   10        7.003012   1.000000
   11        7.962547   1.000000
   12        8.071055   1.000000
   13        8.261719   1.000000
   14        8.424035   1.000000
   15        8.723355   1.000000
   16        9.017252   1.000000
   17        9.392820   1.000459
   18        9.808484   0.928261
   19        9.911470   0.587358
   20       10.201622  -0.033521
   21       11.308328  -0.000000
   22       11.340843  -0.000000
   23       13.294708  -0.000000
   24       14.194177  -0.000000
   25       18.939604   0.000000
   26       19.670745   0.000000
   27       20.881653   0.000000
   28       21.470660   0.000000
   29       21.607847   0.000000
   30       22.494230   0.000000
 
  0.0000000E+00  0.1818182E+00  0.9090909E-01  0.3005259E-02
    1        0.968054   1.000000
    2        3.224777   1.000000
    3        4.032350   1.000000
    4        4.145148   1.000000
    5        4.220834   1.000000
    6        4.363109   1.000000
    7        4.453006   1.000000
    8        6.616895   1.000000
    9        6.889518   1.000000
   10        6.913993   1.000000
   11        7.890511   1.000000
   12        8.123390   1.000000
   13        8.284349   1.000000
   14        8.404593   1.000000
   15        8.944641   1.000000
   16        9.289526   1.000027
   17        9.616357   1.024019
   18        9.644396   1.030255
   19        9.894775   0.655480
   20       10.057293   0.068968
   21       10.353807  -0.005556
   22       11.313941  -0.000000
   23       13.616814  -0.000000
   24       14.186101  -0.000000
   25       18.735977   0.000000
   26       19.780505   0.000000
   27       20.851715   0.000000
   28       21.564064   0.000000
   29       22.027755   0.000000
   30       22.335312   0.000000
 
  0.9090909E-01  0.0000000E+00  0.1818182E+00  0.3005259E-02
    1        0.964223   1.000000
    2        3.227284   1.000000
    3        4.151121   1.000000
    4        4.179840   1.000000
    5        4.251460   1.000000
    6        4.321818   1.000000
    7        4.330991   1.000000
    8        6.456522   1.000000
    9        6.870227   1.000000
   10        7.024860   1.000000
   11        7.922074   1.000000
   12        8.129422   1.000000
   13        8.221340   1.000000
   14        8.567083   1.000000
   15        8.752285   1.000000
   16        9.002029   1.000000
   17        9.095871   1.000000
   18        9.908929   0.597896
   19       10.168767  -0.035169
   20       10.206916  -0.032700
   21       10.965699  -0.000000
   22       11.156427  -0.000000
   23       13.341187  -0.000000
   24       14.291961  -0.000000
   25       18.416002   0.000000
   26       20.365118   0.000000
   27       20.898698   0.000000
   28       21.513247   0.000000
   29       21.676020   0.000000
   30       22.313624   0.000000
 
 -0.9090909E-01  0.1818182E+00  0.0000000E+00  0.3005259E-02
    1        0.962433   1.000000
    2        3.216156   1.000000
    3        4.039561   1.000000
    4        4.134196   1.000000
    5        4.221483   1.000000
    6        4.327488   1.000000
    7        4.486228   1.000000
    8        6.622224   1.000000
    9        6.884544   1.000000
   10        6.916695   1.000000
   11        7.898701   1.000000
   12        8.139210   1.000000
   13        8.264009   1.000000
   14        8.380870   1.000000
   15        8.890132   1.000000
   16        9.229102   1.000004
   17        9.576732   1.015310
   18        9.722603   1.029432
   19       10.033891   0.125399
   20       10.110972  -0.010285
   21       10.476212  -0.000410
   22       11.177003  -0.000000
   23       13.427813  -0.000000
   24       14.313405  -0.000000
   25       18.677229   0.000000
   26       20.180623   0.000000
   27       20.871841   0.000000
   28       21.471592   0.000000
   29       21.545536   0.000000
   30       22.305492   0.000000
 
 -0.1818182E+00  0.0000000E+00  0.9090909E-01  0.3005259E-02
    1        0.929793   1.000000
    2        3.206310   1.000000
    3        4.075203   1.000000
    4        4.095741   1.000000
    5        4.260304   1.000000
    6        4.364112   1.000000
    7        4.425326   1.000000
    8        6.474481   1.000000
    9        6.866399   1.000000
   10        7.024173   1.000000
   11        7.981251   1.000000
   12        8.057596   1.000000
   13        8.284067   1.000000
   14        8.477092   1.000000
   15        8.694108   1.000000
   16        8.901433   1.000000
   17        9.118823   1.000000
   18        9.948856   0.429956
   19       10.087501   0.016264
   20       10.317039  -0.010140
   21       11.248080  -0.000000
   22       11.371130  -0.000000
   23       13.242804  -0.000000
   24       14.188075  -0.000000
   25       18.866838   0.000000
   26       19.722260   0.000000
   27       20.899654   0.000000
   28       21.442826   0.000000
   29       21.690807   0.000000
   30       22.491404   0.000000
 
  0.0000000E+00  0.9090909E-01  0.1818182E+00  0.3005259E-02
    1        0.969752   1.000000
    2        3.232529   1.000000
    3        4.145585   1.000000
    4        4.204704   1.000000
    5        4.213541   1.000000
    6        4.328014   1.000000
    7        4.340930   1.000000
    8        6.488959   1.000000
    9        6.870306   1.000000
   10        7.003343   1.000000
   11        7.904494   1.000000
   12        8.115218   1.000000
   13        8.222732   1.000000
   14        8.529529   1.000000
   15        8.820062   1.000000
   16        9.255470   1.000009
   17        9.368214   1.000246
   18        9.657593   1.032705
   19        9.829970   0.876264
   20       10.024419   0.152128
   21       10.875089  -0.000000
   22       11.350296  -0.000000
   23       13.579873  -0.000000
   24       14.171281  -0.000000
   25       18.477381   0.000000
   26       19.978902   0.000000
   27       20.862633   0.000000
   28       21.613047   0.000000
   29       22.054641   0.000000
   30       22.444068   0.000000
 
  0.2727273E+00  0.9090909E-01  0.0000000E+00  0.3005259E-02
    1        1.392856   1.000000
    2        3.497528   1.000000
    3        4.203879   1.000000
    4        4.253199   1.000000
    5        4.553475   1.000000
    6        4.595311   1.000000
    7        4.804847   1.000000
    8        6.288474   1.000000
    9        6.941786   1.000000
   10        7.180847   1.000000
   11        7.613599   1.000000
   12        7.700979   1.000000
   13        7.766413   1.000000
   14        8.090096   1.000000
   15        8.366039   1.000000
   16        8.653332   1.000000
   17        8.859896   1.000000
   18        9.434375   1.001214
   19        9.573009   1.014580
   20       10.004916   0.213831
   21       10.494919  -0.000255
   22       11.406235  -0.000000
   23       14.343428  -0.000000
   24       15.333049  -0.000000
   25       18.407384   0.000000
   26       19.578176   0.000000
   27       20.021355   0.000000
   28       21.179968   0.000000
   29       22.202093   0.000000
   30       22.774374   0.000000
 
  0.0000000E+00  0.2727273E+00  0.9090909E-01  0.3005259E-02
    1        1.490055   1.000000
    2        3.527657   1.000000
    3        4.107376   1.000000
    4        4.291932   1.000000
    5        4.511976   1.000000
    6        4.643555   1.000000
    7        4.843425   1.000000
    8        6.450778   1.000000
    9        7.049109   1.000000
   10        7.083523   1.000000
   11        7.609273   1.000000
   12        7.752248   1.000000
   13        7.754940   1.000000
   14        8.248987   1.000000
   15        8.349243   1.000000
   16        8.884410   1.000000
   17        9.134714   1.000000
   18        9.211343   1.000002
   19        9.606459   1.021735
   20        9.870030   0.749642
   21       10.179287  -0.035441
   22       10.383583  -0.003202
   23       14.631024  -0.000000
   24       15.346219  -0.000000
   25       18.182243   0.000000
   26       19.631403   0.000000
   27       20.528130   0.000000
   28       21.156357   0.000000
   29       22.082066   0.000000
   30       22.724408   0.000000
 
  0.9090909E-01  0.0000000E+00  0.2727273E+00  0.3005259E-02
    1        1.494868   1.000000
    2        3.540190   1.000000
    3        4.302870   1.000000
    4        4.424413   1.000000
    5        4.484110   1.000000
    6        4.595710   1.000000
    7        4.663700   1.000000
    8        6.213749   1.000000
    9        6.993098   1.000000
   10        7.165657   1.000000
   11        7.611317   1.000000
   12        7.689454   1.000000
   13        7.759191   1.000000
   14        8.173394   1.000000
   15        8.367956   1.000000
   16        8.515141   1.000000
   17        9.091442   1.000000
   18        9.532787   1.008066
   19        9.600984   1.020489
   20        9.918248   0.559041
   21       10.117918  -0.016012
   22       10.896504  -0.000000
   23       14.500757  -0.000000
   24       15.396234   0.000000
   25       17.848054   0.000000
   26       20.039956   0.000000
   27       20.691503   0.000000
   28       21.042317   0.000000
   29       22.124974   0.000000
   30       22.442757   0.000000
 
 -0.9090909E-01  0.2727273E+00  0.0000000E+00  0.3005259E-02
    1        1.490018   1.000000
    2        3.517958   1.000000
    3        4.119406   1.000000
    4        4.293391   1.000000
    5        4.527826   1.000000
    6        4.601446   1.000000
    7        4.852505   1.000000