       N       E                     dE             d eps       ncg     rms          rms(c)
DAV:   1     0.225536952350E+03    0.22554E+03   -0.11968E+04 13376   0.942E+02
DAV:   2    -0.137792811695E+02   -0.23932E+03   -0.22444E+03 13760   0.276E+02
DAV:   3    -0.256262197417E+02   -0.11847E+02   -0.11428E+02 14946   0.713E+01
DAV:   4    -0.259110762913E+02   -0.28486E+00   -0.28440E+00 16090   0.108E+01
DAV:   5    -0.259240975742E+02   -0.13021E-01   -0.13020E-01 18462   0.226E+00    0.239E+01
DAV:   6    -0.284224923280E+02   -0.24984E+01   -0.61710E+01 15366   0.179E+02    0.148E+01
DAV:   7    -0.235632947137E+02    0.48592E+01   -0.11298E+01 17764   0.781E+01    0.674E+00
DAV:   8    -0.238508132265E+02   -0.28752E+00   -0.28940E+00 19334   0.516E+01    0.872E+00
DAV:   9    -0.234651222641E+02    0.38569E+00   -0.15483E+00 18510   0.222E+01    0.278E+00
DAV:  10    -0.234585569470E+02    0.65653E-02   -0.18008E-01 20060   0.112E+01    0.120E+00
DAV:  11    -0.234496481400E+02    0.89088E-02   -0.34974E-02 18150   0.229E+00    0.786E-01
DAV:  12    -0.234415561158E+02    0.80920E-02   -0.21071E-02 15608   0.539E+00    0.126E-01
DAV:  13    -0.234416274879E+02   -0.71372E-04   -0.20827E-03 15074   0.310E-01    0.661E-02
DAV:  14    -0.234415875521E+02    0.39936E-04   -0.16445E-04 17306   0.370E-01    0.212E-02
DAV:  15    -0.234416018898E+02   -0.14338E-04   -0.41402E-05 18886   0.210E-01    0.360E-02
DAV:  16    -0.234415864500E+02    0.15440E-04   -0.26680E-05 14966   0.183E-01    0.655E-03
DAV:  17    -0.234415863105E+02    0.13954E-06   -0.24571E-06 11780   0.277E-02
   1 F= -.23441586E+02 E0= -.23443348E+02  d E =0.528406E-02
