<?xml version="1.0" encoding="ISO-8859-1"?>
<modeling>
 <generator>
  <i name="program" type="string">vasp </i>
  <i name="version" type="string">6.2.0  </i>
  <i name="subversion" type="string">18Jan21 (build Mar 17 2021 09:06:54) complex                          serial </i>
  <i name="platform" type="string">LinuxIFC </i>
  <i name="date" type="string">2021 06 11 </i>
  <i name="time" type="string">11:38:26 </i>
 </generator>
 <incar>
  <i type="string" name="PREC">normal</i>
  <i type="int" name="ICHARG">     1</i>
  <i type="int" name="IBRION">     1</i>
  <i name="EDIFF">      0.00000100</i>
  <i type="int" name="NSW">     0</i>
  <i type="int" name="ISIF">     2</i>
  <i name="ENCUT">    270.00000000</i>
  <i type="int" name="NBANDS">    30</i>
  <i type="int" name="ISMEAR">     1</i>
  <i name="SIGMA">      0.20000000</i>
  <i type="logical" name="LCHARG"> T  </i>
  <i type="int" name="KPAR">     1</i>
  <i type="int" name="NCORE">     1</i>
  <i type="string" name="GGA">PE</i>
 </incar>
 <primitive_cell>
  <structure name="primitive_cell" >
   <crystal>
    <varray name="basis" >
     <v>       3.80835153       0.00000000       0.00000000 </v>
     <v>       0.00000000       3.80835153       0.00000000 </v>
     <v>       0.00000000       0.00000000       3.80835153 </v>
    </varray>
    <i name="volume">     55.23458381 </i>
    <varray name="rec_basis" >
     <v>       0.26258080       0.00000000       0.00000000 </v>
     <v>       0.00000000       0.26258080       0.00000000 </v>
     <v>       0.00000000       0.00000000       0.26258080 </v>
    </varray>
   </crystal>
   <varray name="positions" >
    <v>       0.00000000       0.00000000       0.00000000 </v>
    <v>       0.50000000       0.50000000       0.00000000 </v>
    <v>       0.50000000       0.00000000       0.50000000 </v>
    <v>       0.00000000       0.50000000       0.50000000 </v>
   </varray>
  </structure>
  <varray name="primitive_index" >
   <v type="int" >        1 </v>
   <v type="int" >        2 </v>
   <v type="int" >        3 </v>
   <v type="int" >        4 </v>
  </varray>
 </primitive_cell>
 <kpoints>
  <generation param="Monkhorst-Pack">
   <v type="int" name="divisions">      11       11       11 </v>
   <v name="usershift">      0.00000000       0.00000000       0.00000000 </v>
   <v name="genvec1">      0.09090909       0.00000000       0.00000000 </v>
   <v name="genvec2">      0.00000000       0.09090909       0.00000000 </v>
   <v name="genvec3">      0.00000000       0.00000000       0.09090909 </v>
   <v name="shift">      0.00000000       0.00000000       0.00000000 </v>
  </generation>
  <varray name="kpointlist" >
   <v>       0.00000000       0.00000000       0.00000000 </v>
   <v>       0.09090909       0.00000000       0.00000000 </v>
   <v>       0.00000000       0.09090909       0.00000000 </v>
   <v>       0.00000000       0.00000000       0.09090909 </v>
   <v>       0.18181818       0.00000000       0.00000000 </v>
   <v>       0.00000000       0.18181818       0.00000000 </v>
   <v>       0.00000000       0.00000000       0.18181818 </v>
   <v>       0.27272727       0.00000000       0.00000000 </v>
   <v>       0.00000000       0.27272727       0.00000000 </v>
   <v>       0.00000000       0.00000000       0.27272727 </v>
   <v>       0.36363636       0.00000000       0.00000000 </v>
   <v>       0.00000000       0.36363636       0.00000000 </v>
   <v>       0.00000000       0.00000000       0.36363636 </v>
   <v>       0.45454545       0.00000000       0.00000000 </v>
   <v>       0.00000000       0.45454545       0.00000000 </v>
   <v>       0.00000000       0.00000000       0.45454545 </v>
   <v>       0.09090909       0.09090909       0.00000000 </v>
   <v>       0.00000000       0.09090909       0.09090909 </v>
   <v>       0.09090909       0.00000000       0.09090909 </v>
   <v>       0.18181818       0.09090909       0.00000000 </v>
   <v>       0.00000000       0.18181818       0.09090909 </v>
   <v>       0.09090909       0.00000000       0.18181818 </v>
   <v>      -0.09090909       0.18181818       0.00000000 </v>
   <v>      -0.18181818       0.00000000       0.09090909 </v>
   <v>       0.00000000       0.09090909       0.18181818 </v>
   <v>       0.27272727       0.09090909       0.00000000 </v>
   <v>       0.00000000       0.27272727       0.09090909 </v>
   <v>       0.09090909       0.00000000       0.27272727 </v>
   <v>      -0.09090909       0.27272727       0.00000000 </v>
   <v>      -0.27272727       0.00000000       0.09090909 </v>
   <v>       0.00000000       0.09090909       0.27272727 </v>
   <v>       0.36363636       0.09090909       0.00000000 </v>
   <v>       0.00000000       0.36363636       0.09090909 </v>
   <v>       0.09090909       0.00000000       0.36363636 </v>
   <v>      -0.09090909       0.36363636       0.00000000 </v>
   <v>      -0.36363636       0.00000000       0.09090909 </v>
   <v>       0.00000000       0.09090909       0.36363636 </v>
   <v>       0.45454545       0.09090909       0.00000000 </v>
   <v>       0.00000000       0.45454545       0.09090909 </v>
   <v>       0.09090909       0.00000000       0.45454545 </v>
   <v>      -0.09090909       0.45454545       0.00000000 </v>
   <v>      -0.45454545       0.00000000       0.09090909 </v>
   <v>       0.00000000       0.09090909       0.45454545 </v>
   <v>       0.18181818       0.18181818       0.00000000 </v>
   <v>       0.00000000       0.18181818       0.18181818 </v>
   <v>       0.18181818       0.00000000       0.18181818 </v>
   <v>       0.27272727       0.18181818       0.00000000 </v>
   <v>       0.00000000       0.27272727       0.18181818 </v>
   <v>       0.18181818       0.00000000       0.27272727 </v>
   <v>      -0.18181818       0.27272727       0.00000000 </v>
   <v>      -0.27272727       0.00000000       0.18181818 </v>
   <v>       0.00000000       0.18181818       0.27272727 </v>
   <v>       0.36363636       0.18181818       0.00000000 </v>
   <v>       0.00000000       0.36363636       0.18181818 </v>
   <v>       0.18181818       0.00000000       0.36363636 </v>
   <v>      -0.18181818       0.36363636       0.00000000 </v>
   <v>      -0.36363636       0.00000000       0.18181818 </v>
   <v>       0.00000000       0.18181818       0.36363636 </v>
   <v>       0.45454545       0.18181818       0.00000000 </v>
   <v>       0.00000000       0.45454545       0.18181818 </v>
   <v>       0.18181818       0.00000000       0.45454545 </v>
   <v>      -0.18181818       0.45454545       0.00000000 </v>
   <v>      -0.45454545       0.00000000       0.18181818 </v>
   <v>       0.00000000       0.18181818       0.45454545 </v>
   <v>       0.27272727       0.27272727       0.00000000 </v>
   <v>       0.00000000       0.27272727       0.27272727 </v>
   <v>       0.27272727       0.00000000       0.27272727 </v>
   <v>       0.36363636       0.27272727       0.00000000 </v>
   <v>       0.00000000       0.36363636       0.27272727 </v>
   <v>       0.27272727       0.00000000       0.36363636 </v>
   <v>      -0.27272727       0.36363636       0.00000000 </v>
   <v>      -0.36363636       0.00000000       0.27272727 </v>
   <v>       0.00000000       0.27272727       0.36363636 </v>
   <v>       0.45454545       0.27272727       0.00000000 </v>
   <v>       0.00000000       0.45454545       0.27272727 </v>
   <v>       0.27272727       0.00000000       0.45454545 </v>
   <v>      -0.27272727       0.45454545       0.00000000 </v>
   <v>      -0.45454545       0.00000000       0.27272727 </v>
   <v>       0.00000000       0.27272727       0.45454545 </v>
   <v>       0.36363636       0.36363636       0.00000000 </v>
   <v>       0.00000000       0.36363636       0.36363636 </v>
   <v>       0.36363636       0.00000000       0.36363636 </v>
   <v>       0.45454545       0.36363636       0.00000000 </v>
   <v>       0.00000000       0.45454545       0.36363636 </v>
   <v>       0.36363636       0.00000000       0.45454545 </v>
   <v>      -0.36363636       0.45454545       0.00000000 </v>
   <v>      -0.45454545       0.00000000       0.36363636 </v>
   <v>       0.00000000       0.36363636       0.45454545 </v>
   <v>       0.45454545       0.45454545       0.00000000 </v>
   <v>       0.00000000       0.45454545       0.45454545 </v>
   <v>       0.45454545       0.00000000       0.45454545 </v>
   <v>       0.09090909       0.09090909       0.09090909 </v>
   <v>       0.18181818       0.09090909       0.09090909 </v>
   <v>       0.09090909       0.18181818       0.09090909 </v>
   <v>       0.09090909       0.09090909       0.18181818 </v>
   <v>       0.27272727       0.09090909       0.09090909 </v>
   <v>       0.09090909       0.27272727       0.09090909 </v>
   <v>       0.09090909       0.09090909       0.27272727 </v>
   <v>       0.36363636       0.09090909       0.09090909 </v>
   <v>       0.09090909       0.36363636       0.09090909 </v>
   <v>       0.09090909       0.09090909       0.36363636 </v>
   <v>       0.45454545       0.09090909       0.09090909 </v>
   <v>       0.09090909       0.45454545       0.09090909 </v>
   <v>       0.09090909       0.09090909       0.45454545 </v>
   <v>       0.18181818       0.18181818       0.09090909 </v>
   <v>       0.09090909       0.18181818       0.18181818 </v>
   <v>       0.18181818       0.09090909       0.18181818 </v>
   <v>       0.27272727       0.18181818       0.09090909 </v>
   <v>       0.09090909       0.27272727       0.18181818 </v>
   <v>       0.18181818       0.09090909       0.27272727 </v>
   <v>      -0.18181818       0.27272727       0.09090909 </v>
   <v>      -0.27272727       0.09090909       0.18181818 </v>
   <v>      -0.09090909       0.18181818       0.27272727 </v>
   <v>       0.36363636       0.18181818       0.09090909 </v>
   <v>       0.09090909       0.36363636       0.18181818 </v>
   <v>       0.18181818       0.09090909       0.36363636 </v>
   <v>      -0.18181818       0.36363636       0.09090909 </v>
   <v>      -0.36363636       0.09090909       0.18181818 </v>
   <v>      -0.09090909       0.18181818       0.36363636 </v>
   <v>       0.45454545       0.18181818       0.09090909 </v>
   <v>       0.09090909       0.45454545       0.18181818 </v>
   <v>       0.18181818       0.09090909       0.45454545 </v>
   <v>      -0.18181818       0.45454545       0.09090909 </v>
   <v>      -0.45454545       0.09090909       0.18181818 </v>
   <v>      -0.09090909       0.18181818       0.45454545 </v>
   <v>       0.27272727       0.27272727       0.09090909 </v>
   <v>       0.09090909       0.27272727       0.27272727 </v>
   <v>       0.27272727       0.09090909       0.27272727 </v>
   <v>       0.36363636       0.27272727       0.09090909 </v>
   <v>       0.09090909       0.36363636       0.27272727 </v>
   <v>       0.27272727       0.09090909       0.36363636 </v>
   <v>      -0.27272727       0.36363636       0.09090909 </v>
   <v>      -0.36363636       0.09090909       0.27272727 </v>
   <v>      -0.09090909       0.27272727       0.36363636 </v>
   <v>       0.45454545       0.27272727       0.09090909 </v>
   <v>       0.09090909       0.45454545       0.27272727 </v>
   <v>       0.27272727       0.09090909       0.45454545 </v>
   <v>      -0.27272727       0.45454545       0.09090909 </v>
   <v>      -0.45454545       0.09090909       0.27272727 </v>
   <v>      -0.09090909       0.27272727       0.45454545 </v>
   <v>       0.36363636       0.36363636       0.09090909 </v>
   <v>       0.09090909       0.36363636       0.36363636 </v>
   <v>       0.36363636       0.09090909       0.36363636 </v>
   <v>       0.45454545       0.36363636       0.09090909 </v>
   <v>       0.09090909       0.45454545       0.36363636 </v>
   <v>       0.36363636       0.09090909       0.45454545 </v>
   <v>      -0.36363636       0.45454545       0.09090909 </v>
   <v>      -0.45454545       0.09090909       0.36363636 </v>
   <v>      -0.09090909       0.36363636       0.45454545 </v>
   <v>       0.45454545       0.45454545       0.09090909 </v>
   <v>       0.09090909       0.45454545       0.45454545 </v>
   <v>       0.45454545       0.09090909       0.45454545 </v>
   <v>       0.18181818       0.18181818       0.18181818 </v>
   <v>       0.27272727       0.18181818       0.18181818 </v>
   <v>       0.18181818       0.27272727       0.18181818 </v>
   <v>       0.18181818       0.18181818       0.27272727 </v>
   <v>       0.36363636       0.18181818       0.18181818 </v>
   <v>       0.18181818       0.36363636       0.18181818 </v>
   <v>       0.18181818       0.18181818       0.36363636 </v>
   <v>       0.45454545       0.18181818       0.18181818 </v>
   <v>       0.18181818       0.45454545       0.18181818 </v>
   <v>       0.18181818       0.18181818       0.45454545 </v>
   <v>       0.27272727       0.27272727       0.18181818 </v>
   <v>       0.18181818       0.27272727       0.27272727 </v>
   <v>       0.27272727       0.18181818       0.27272727 </v>
   <v>       0.36363636       0.27272727       0.18181818 </v>
   <v>       0.18181818       0.36363636       0.27272727 </v>
   <v>       0.27272727       0.18181818       0.36363636 </v>
   <v>      -0.27272727       0.36363636       0.18181818 </v>
   <v>      -0.36363636       0.18181818       0.27272727 </v>
   <v>      -0.18181818       0.27272727       0.36363636 </v>
   <v>       0.45454545       0.27272727       0.18181818 </v>
   <v>       0.18181818       0.45454545       0.27272727 </v>
   <v>       0.27272727       0.18181818       0.45454545 </v>
   <v>      -0.27272727       0.45454545       0.18181818 </v>
   <v>      -0.45454545       0.18181818       0.27272727 </v>
   <v>      -0.18181818       0.27272727       0.45454545 </v>
   <v>       0.36363636       0.36363636       0.18181818 </v>
   <v>       0.18181818       0.36363636       0.36363636 </v>
   <v>       0.36363636       0.18181818       0.36363636 </v>
   <v>       0.45454545       0.36363636       0.18181818 </v>
   <v>       0.18181818       0.45454545       0.36363636 </v>
   <v>       0.36363636       0.18181818       0.45454545 </v>
   <v>      -0.36363636       0.45454545       0.18181818 </v>
   <v>      -0.45454545       0.18181818       0.36363636 </v>
   <v>      -0.18181818       0.36363636       0.45454545 </v>
   <v>       0.45454545       0.45454545       0.18181818 </v>
   <v>       0.18181818       0.45454545       0.45454545 </v>
   <v>       0.45454545       0.18181818       0.45454545 </v>
   <v>       0.27272727       0.27272727       0.27272727 </v>
   <v>       0.36363636       0.27272727       0.27272727 </v>
   <v>       0.27272727       0.36363636       0.27272727 </v>
   <v>       0.27272727       0.27272727       0.36363636 </v>
   <v>       0.45454545       0.27272727       0.27272727 </v>
   <v>       0.27272727       0.45454545       0.27272727 </v>
   <v>       0.27272727       0.27272727       0.45454545 </v>
   <v>       0.36363636       0.36363636       0.27272727 </v>
   <v>       0.27272727       0.36363636       0.36363636 </v>
   <v>       0.36363636       0.27272727       0.36363636 </v>
   <v>       0.45454545       0.36363636       0.27272727 </v>
   <v>       0.27272727       0.45454545       0.36363636 </v>
   <v>       0.36363636       0.27272727       0.45454545 </v>
   <v>      -0.36363636       0.45454545       0.27272727 </v>
   <v>      -0.45454545       0.27272727       0.36363636 </v>
   <v>      -0.27272727       0.36363636       0.45454545 </v>
   <v>       0.45454545       0.45454545       0.27272727 </v>
   <v>       0.27272727       0.45454545       0.45454545 </v>
   <v>       0.45454545       0.27272727       0.45454545 </v>
   <v>       0.36363636       0.36363636       0.36363636 </v>
   <v>       0.45454545       0.36363636       0.36363636 </v>
   <v>       0.36363636       0.45454545       0.36363636 </v>
   <v>       0.36363636       0.36363636       0.45454545 </v>
   <v>       0.45454545       0.45454545       0.36363636 </v>
   <v>       0.36363636       0.45454545       0.45454545 </v>
   <v>       0.45454545       0.36363636       0.45454545 </v>
   <v>       0.45454545       0.45454545       0.45454545 </v>
  </varray>
  <varray name="weights" >
   <v>       0.00075131 </v>
   <v>       0.00150263 </v>
   <v>       0.00150263 </v>
   <v>       0.00150263 </v>
   <v>       0.00150263 </v>
   <v>       0.00150263 </v>
   <v>       0.00150263 </v>
   <v>       0.00150263 </v>
   <v>       0.00150263 </v>
   <v>       0.00150263 </v>
   <v>       0.00150263 </v>
   <v>       0.00150263 </v>
   <v>       0.00150263 </v>
   <v>       0.00150263 </v>
   <v>       0.00150263 </v>
   <v>       0.00150263 </v>
   <v>       0.00300526 </v>
   <v>       0.00300526 </v>
   <v>       0.00300526 </v>
   <v>       0.00300526 </v>
   <v>       0.00300526 </v>
   <v>       0.00300526 </v>
   <v>       0.00300526 </v>
   <v>       0.00300526 </v>
   <v>       0.00300526 </v>
   <v>       0.00300526 </v>
   <v>       0.00300526 </v>
   <v>       0.00300526 </v>
   <v>       0.00300526 </v>
   <v>       0.00300526 </v>
   <v>       0.00300526 </v>
   <v>       0.00300526 </v>
   <v>       0.00300526 </v>
   <v>       0.00300526 </v>
   <v>       0.00300526 </v>
   <v>       0.00300526 </v>
   <v>       0.00300526 </v>
   <v>       0.00300526 </v>
   <v>       0.00300526 </v>
   <v>       0.00300526 </v>
   <v>       0.00300526 </v>
   <v>       0.00300526 </v>
   <v>       0.00300526 </v>
   <v>       0.00300526 </v>
   <v>       0.00300526 </v>
   <v>       0.00300526 </v>
   <v>       0.00300526 </v>
   <v>       0.00300526 </v>
   <v>       0.00300526 </v>
   <v>       0.00300526 </v>
   <v>       0.00300526 </v>
   <v>       0.00300526 </v>
   <v>       0.00300526 </v>
   <v>       0.00300526 </v>
   <v>       0.00300526 </v>
   <v>       0.00300526 </v>
   <v>       0.00300526 </v>
   <v>       0.00300526 </v>
   <v>       0.00300526 </v>
   <v>       0.00300526 </v>
   <v>       0.00300526 </v>
   <v>       0.00300526 </v>
   <v>       0.00300526 </v>
   <v>       0.00300526 </v>
   <v>       0.00300526 </v>
   <v>       0.00300526 </v>
   <v>       0.00300526 </v>
   <v>       0.00300526 </v>
   <v>       0.00300526 </v>
   <v>       0.00300526 </v>
   <v>       0.00300526 </v>
   <v>       0.00300526 </v>
   <v>       0.00300526 </v>
   <v>       0.00300526 </v>
   <v>       0.00300526 </v>
   <v>       0.00300526 </v>
   <v>       0.00300526 </v>
   <v>       0.00300526 </v>
   <v>       0.00300526 </v>
   <v>       0.00300526 </v>
   <v>       0.00300526 </v>
   <v>       0.00300526 </v>
   <v>       0.00300526 </v>
   <v>       0.00300526 </v>
   <v>       0.00300526 </v>
   <v>       0.00300526 </v>
   <v>       0.00300526 </v>
   <v>       0.00300526 </v>
   <v>       0.00300526 </v>
   <v>       0.00300526 </v>
   <v>       0.00300526 </v>
   <v>       0.00601052 </v>
   <v>       0.00601052 </v>
   <v>       0.00601052 </v>
   <v>       0.00601052 </v>
   <v>       0.00601052 </v>
   <v>       0.00601052 </v>
   <v>       0.00601052 </v>
   <v>       0.00601052 </v>
   <v>       0.00601052 </v>
   <v>       0.00601052 </v>
   <v>       0.00601052 </v>
   <v>       0.00601052 </v>
   <v>       0.00601052 </v>
   <v>       0.00601052 </v>
   <v>       0.00601052 </v>
   <v>       0.00601052 </v>
   <v>       0.00601052 </v>
   <v>       0.00601052 </v>
   <v>       0.00601052 </v>
   <v>       0.00601052 </v>
   <v>       0.00601052 </v>
   <v>       0.00601052 </v>
   <v>       0.00601052 </v>
   <v>       0.00601052 </v>
   <v>       0.00601052 </v>
   <v>       0.00601052 </v>
   <v>       0.00601052 </v>
   <v>       0.00601052 </v>
   <v>       0.00601052 </v>
   <v>       0.00601052 </v>
   <v>       0.00601052 </v>
   <v>       0.00601052 </v>
   <v>       0.00601052 </v>
   <v>       0.00601052 </v>
   <v>       0.00601052 </v>
   <v>       0.00601052 </v>
   <v>       0.00601052 </v>
   <v>       0.00601052 </v>
   <v>       0.00601052 </v>
   <v>       0.00601052 </v>
   <v>       0.00601052 </v>
   <v>       0.00601052 </v>
   <v>       0.00601052 </v>
   <v>       0.00601052 </v>
   <v>       0.00601052 </v>
   <v>       0.00601052 </v>
   <v>       0.00601052 </v>
   <v>       0.00601052 </v>
   <v>       0.00601052 </v>
   <v>       0.00601052 </v>
   <v>       0.00601052 </v>
   <v>       0.00601052 </v>
   <v>       0.00601052 </v>
   <v>       0.00601052 </v>
   <v>       0.00601052 </v>
   <v>       0.00601052 </v>
   <v>       0.00601052 </v>
   <v>       0.00601052 </v>
   <v>       0.00601052 </v>
   <v>       0.00601052 </v>
   <v>       0.00601052 </v>
   <v>       0.00601052 </v>
   <v>       0.00601052 </v>
   <v>       0.00601052 </v>
   <v>       0.00601052 </v>
   <v>       0.00601052 </v>
   <v>       0.00601052 </v>
   <v>       0.00601052 </v>
   <v>       0.00601052 </v>
   <v>       0.00601052 </v>
   <v>       0.00601052 </v>
   <v>       0.00601052 </v>
   <v>       0.00601052 </v>
   <v>       0.00601052 </v>
   <v>       0.00601052 </v>
   <v>       0.00601052 </v>
   <v>       0.00601052 </v>
   <v>       0.00601052 </v>
   <v>       0.00601052 </v>
   <v>       0.00601052 </v>
   <v>       0.00601052 </v>
   <v>       0.00601052 </v>
   <v>       0.00601052 </v>
   <v>       0.00601052 </v>
   <v>       0.00601052 </v>
   <v>       0.00601052 </v>
   <v>       0.00601052 </v>
   <v>       0.00601052 </v>
   <v>       0.00601052 </v>
   <v>       0.00601052 </v>
   <v>       0.00601052 </v>
   <v>       0.00601052 </v>
   <v>       0.00601052 </v>
   <v>       0.00601052 </v>
   <v>       0.00601052 </v>
   <v>       0.00601052 </v>
   <v>       0.00601052 </v>
   <v>       0.00601052 </v>
   <v>       0.00601052 </v>
   <v>       0.00601052 </v>
   <v>       0.00601052 </v>
   <v>       0.00601052 </v>
   <v>       0.00601052 </v>
   <v>       0.00601052 </v>
   <v>       0.00601052 </v>
   <v>       0.00601052 </v>
   <v>       0.00601052 </v>
   <v>       0.00601052 </v>
   <v>       0.00601052 </v>
   <v>       0.00601052 </v>
   <v>       0.00601052 </v>
   <v>       0.00601052 </v>
   <v>       0.00601052 </v>
   <v>       0.00601052 </v>
   <v>       0.00601052 </v>
   <v>       0.00601052 </v>
   <v>       0.00601052 </v>
   <v>       0.00601052 </v>
   <v>       0.00601052 </v>
   <v>       0.00601052 </v>
   <v>       0.00601052 </v>
   <v>       0.00601052 </v>
   <v>       0.00601052 </v>
   <v>       0.00601052 </v>
   <v>       0.00601052 </v>
  </varray>
 </kpoints>
 <parameters>
  <separator name="general" >
   <i type="string" name="SYSTEM">unknown system</i>
   <i type="logical" name="LCOMPAT"> F  </i>
  </separator>
  <separator name="electronic" >
   <i type="string" name="PREC">normal</i>
   <i name="ENMAX">    270.00000000</i>
   <i name="ENAUG">    586.98000000</i>
   <i name="EDIFF">      0.00000100</i>
   <i type="int" name="IALGO">    38</i>
   <i type="int" name="IWAVPR">     0</i>
   <i type="int" name="NBANDS">    30</i>
   <i type="int" name="NBANDSLOW">    -1</i>
   <i type="int" name="NBANDSHIGH">    -1</i>
   <i name="NELECT">     40.00000000</i>
   <i type="int" name="TURBO">     0</i>
   <i type="int" name="IRESTART">     0</i>
   <i type="int" name="NREBOOT">     0</i>
   <i type="int" name="NMIN">     0</i>
   <i name="EREF">      0.00000000</i>
   <separator name="electronic smearing" >
    <i type="int" name="ISMEAR">     1</i>
    <i name="SIGMA">      0.20000000</i>
    <i name="KSPACING">      0.50000000</i>
    <i type="logical" name="KGAMMA"> T  </i>
    <i type="logical" name="KBLOWUP"> T  </i>
   </separator>
   <separator name="electronic projectors" >
    <i type="logical" name="LREAL"> F  </i>
    <v name="ROPT">      0.00000000      0.00000000      0.00000000      0.00000000</v>
    <i type="int" name="LMAXPAW">  -100</i>
    <i type="int" name="LMAXMIX">     2</i>
    <i type="logical" name="NLSPLINE"> F  </i>
   </separator>
   <separator name="electronic startup" >
    <i type="int" name="ISTART">     0</i>
    <i type="int" name="ICHARG">     1</i>
    <i type="int" name="INIWAV">     1</i>
   </separator>
   <separator name="electronic spin" >
    <i type="int" name="ISPIN">     1</i>
    <i type="logical" name="LNONCOLLINEAR"> F  </i>
    <v name="MAGMOM">      1.00000000      1.00000000      1.00000000      1.00000000</v>
    <i name="NUPDOWN">     -1.00000000</i>
    <i type="logical" name="LSORBIT"> F  </i>
    <v name="SAXIS">      0.00000000      0.00000000      1.00000000</v>
    <i type="logical" name="LSPIRAL"> F  </i>
    <v name="QSPIRAL">      0.00000000      0.00000000      0.00000000</v>
    <i type="logical" name="LZEROZ"> F  </i>
   </separator>
   <separator name="electronic exchange-correlation" >
    <i type="logical" name="LASPH"> F  </i>
    <i type="logical" name="LMETAGGA"> F  </i>
   </separator>
   <separator name="electronic convergence" >
    <i type="int" name="NELM">    60</i>
    <i type="int" name="NELMDL">    -5</i>
    <i type="int" name="NELMIN">     2</i>
    <i name="ENINI">    270.00000000</i>
    <separator name="electronic convergence detail" >
     <i type="logical" name="LDIAG"> T  </i>
     <i type="logical" name="LSUBROT"> F  </i>
     <i name="WEIMIN">      0.00000000</i>
     <i name="EBREAK">      0.00000001</i>
     <i name="DEPER">      0.30000000</i>
     <i type="int" name="NRMM">     4</i>
     <i name="TIME">      0.40000000</i>
    </separator>
   </separator>
   <separator name="electronic mixer" >
    <i name="AMIX">      0.40000000</i>
    <i name="BMIX">      1.00000000</i>
    <i name="AMIN">      0.10000000</i>
    <i name="AMIX_MAG">      1.60000000</i>
    <i name="BMIX_MAG">      1.00000000</i>
    <separator name="electronic mixer details" >
     <i type="int" name="IMIX">     4</i>
     <i type="logical" name="MIXFIRST"> F  </i>
     <i type="int" name="MAXMIX">   -45</i>
     <i name="WC">    100.00000000</i>
     <i type="int" name="INIMIX">     1</i>
     <i type="int" name="MIXPRE">     1</i>
     <i type="int" name="MREMOVE">     5</i>
    </separator>
   </separator>
   <separator name="electronic dipolcorrection" >
    <i type="logical" name="LDIPOL"> F  </i>
    <i type="logical" name="LMONO"> F  </i>
    <i type="int" name="IDIPOL">     0</i>
    <i name="EPSILON">      1.00000000</i>
    <v name="DIPOL">   -100.00000000   -100.00000000   -100.00000000</v>
    <i name="EFIELD">      0.00000000</i>
   </separator>
  </separator>
  <separator name="grids" >
   <i type="int" name="NGX">    16</i>
   <i type="int" name="NGY">    16</i>
   <i type="int" name="NGZ">    16</i>
   <i type="int" name="NGXF">    32</i>
   <i type="int" name="NGYF">    32</i>
   <i type="int" name="NGZF">    32</i>
   <i type="logical" name="ADDGRID"> F  </i>
  </separator>
  <separator name="ionic" >
   <i type="int" name="NSW">     0</i>
   <i type="int" name="IBRION">    -1</i>
   <i type="int" name="MDALGO">     0</i>
   <i type="int" name="ISIF">     2</i>
   <i name="PSTRESS">      0.00000000</i>
   <i name="EDIFFG">      0.00001000</i>
   <i type="int" name="NFREE">     0</i>
   <i name="POTIM">      0.50000000</i>
   <i name="SMASS">     -3.00000000</i>
   <i name="SCALEE">      1.00000000</i>
  </separator>
  <separator name="ionic md" >
   <i name="TEBEG">      0.00010000</i>
   <i name="TEEND">      0.00010000</i>
   <i type="int" name="NBLOCK">     1</i>
   <i type="int" name="KBLOCK">     1</i>
   <i type="int" name="NPACO">   256</i>
   <i name="APACO">     16.00000000</i>
  </separator>
  <separator name="symmetry" >
   <i type="int" name="ISYM">     2</i>
   <i name="SYMPREC">      0.00001000</i>
  </separator>
  <separator name="dos" >
   <i type="int" name="LORBIT">     0</i>
   <v name="RWIGS">     -1.00000000     -1.00000000     -1.00000000     -1.00000000</v>
   <i type="int" name="NEDOS">   301</i>
   <i name="EMIN">     10.00000000</i>
   <i name="EMAX">    -10.00000000</i>
   <i name="EFERMI">      0.00000000</i>
  </separator>
  <separator name="writing" >
   <i type="int" name="NWRITE">     2</i>
   <i type="logical" name="LWAVE"> T  </i>
   <i type="logical" name="LDOWNSAMPLE"> F  </i>
   <i type="logical" name="LCHARG"> T  </i>
   <i type="logical" name="LPARD"> F  </i>
   <i type="logical" name="LVTOT"> F  </i>
   <i type="logical" name="LVHAR"> F  </i>
   <i type="logical" name="LELF"> F  </i>
   <i type="logical" name="LOPTICS"> F  </i>
   <v name="STM">      0.00000000      0.00000000      0.00000000      0.00000000      0.00000000      0.00000000      0.00000000</v>
  </separator>
  <separator name="performance" >
   <i type="int" name="NPAR">     1</i>
   <i type="int" name="NSIM">     4</i>
   <i type="int" name="NBLK">    -1</i>
   <i type="logical" name="LPLANE"> T  </i>
   <i type="logical" name="LSCALAPACK"> F  </i>
   <i type="logical" name="LSCAAWARE"> F  </i>
   <i type="logical" name="LSCALU"> F  </i>
   <i type="logical" name="LASYNC"> F  </i>
   <i type="logical" name="LORBITALREAL"> F  </i>
  </separator>
  <separator name="miscellaneous" >
   <i type="int" name="IDIOT">     3</i>
   <i type="int" name="PHON_NSTRUCT">    -1</i>
   <i type="logical" name="LMUSIC"> F  </i>
   <v name="POMASS">    106.42000000    192.22000000    195.08000000     63.54600000</v>
   <v name="DARWINR">      0.00000000      0.00000000      0.00000000      0.00000000</v>
   <v name="DARWINV">      1.00000000      1.00000000      1.00000000      1.00000000</v>
   <i type="logical" name="LCORR"> T  </i>
  </separator>
  <i type="logical" name="GGA_COMPAT"> T  </i>
  <i type="logical" name="LBERRY"> F  </i>
  <i type="int" name="ICORELEVEL">     0</i>
  <i type="logical" name="LDAU"> F  </i>
  <i type="int" name="I_CONSTRAINED_M">     0</i>
  <separator name="electronic exchange-correlation" >
   <i type="string" name="GGA">PE</i>
   <i type="int" name="VOSKOWN">     0</i>
   <i type="logical" name="LHFCALC"> F  </i>
   <i type="string" name="PRECFOCK"></i>
   <i type="logical" name="LSYMGRAD"> F  </i>
   <i type="logical" name="LHFONE"> F  </i>
   <i type="logical" name="LRHFCALC"> F  </i>
   <i type="logical" name="LTHOMAS"> F  </i>
   <i type="logical" name="LMODELHF"> F  </i>
   <i type="logical" name="LFOCKACE"> F  </i>
   <i name="ENCUT4O">     -1.00000000</i>
   <i type="int" name="EXXOEP">     0</i>
   <i type="int" name="FOURORBIT">     0</i>
   <i name="AEXX">      0.00000000</i>
   <i name="HFALPHA">      0.00000000</i>
   <i name="MCALPHA">      0.00000000</i>
   <i name="ALDAX">      1.00000000</i>
   <i name="AGGAX">      1.00000000</i>
   <i name="ALDAC">      1.00000000</i>
   <i name="AGGAC">      1.00000000</i>
   <i type="int" name="NKREDX">     1</i>
   <i type="int" name="NKREDY">     1</i>
   <i type="int" name="NKREDZ">     1</i>
   <i type="logical" name="SHIFTRED"> F  </i>
   <i type="logical" name="ODDONLY"> F  </i>
   <i type="logical" name="EVENONLY"> F  </i>
   <i type="int" name="LMAXFOCK">     0</i>
   <i type="int" name="NMAXFOCKAE">     0</i>
   <i type="logical" name="LFOCKAEDFT"> F  </i>
   <i name="HFSCREEN">      0.00000000</i>
   <i name="HFSCREENC">      0.00000000</i>
   <i type="int" name="NBANDSGWLOW">     0</i>
  </separator>
  <separator name="vdW DFT" >
   <i type="logical" name="LUSE_VDW"> F  </i>
   <i name="Zab_VDW">     -0.84910000</i>
   <i name="PARAM1">      0.12340000</i>
   <i name="PARAM2">      1.00000000</i>
   <i name="PARAM3">      0.00000000</i>
  </separator>
  <separator name="model GW" >
   <i type="int" name="MODEL_GW">     0</i>
   <i name="MODEL_EPS0">      8.28518757</i>
   <i name="MODEL_ALPHA">      1.00000000</i>
  </separator>
  <separator name="linear response parameters" >
   <i type="logical" name="LEPSILON"> F  </i>
   <i type="logical" name="LRPA"> F  </i>
   <i type="logical" name="LNABLA"> F  </i>
   <i type="logical" name="LVEL"> F  </i>
   <i type="int" name="KINTER">     0</i>
   <i name="CSHIFT">      0.10000000</i>
   <i name="OMEGAMAX">     -1.00000000</i>
   <i name="DEG_THRESHOLD">      0.00200000</i>
   <i name="RTIME">     -0.10000000</i>
   <i name="WPLASMAI">      0.00000000</i>
   <v name="DFIELD">      0.00000000      0.00000000      0.00000000</v>
   <v name="WPLASMA">      0.00000000      0.00000000      0.00000000      0.00000000      0.00000000      0.00000000      0.00000000      0.00000000      0.00000000</v>
  </separator>
  <separator name="orbital magnetization" >
   <i type="logical" name="NUCIND"> F  </i>
   <v name="MAGPOS">      0.00000000      0.00000000      0.00000000</v>
   <i type="logical" name="LNICSALL"> T  </i>
   <i type="logical" name="ORBITALMAG"> F  </i>
   <i type="logical" name="LMAGBLOCH"> F  </i>
   <i type="logical" name="LCHIMAG"> F  </i>
   <i type="logical" name="LGAUGE"> T  </i>
   <i type="int" name="MAGATOM">     0</i>
   <v name="MAGDIPOL">      0.00000000      0.00000000      0.00000000</v>
   <v name="AVECCONST">      0.00000000      0.00000000      0.00000000</v>
  </separator>
  <separator name="response functions" >
   <i type="logical" name="LFINITE_TEMPERATURE"> F  </i>
   <i type="logical" name="LADDER"> F  </i>
   <i type="logical" name="LRPAFORCE"> F  </i>
   <i type="logical" name="LFXC"> F  </i>
   <i type="logical" name="LHARTREE"> T  </i>
   <i type="int" name="IBSE">     0</i>
   <v type="int" name="KPOINT">    -1     0     0     0</v>
   <i type="logical" name="LTCTC"> F  </i>
   <i type="logical" name="LTCTE"> F  </i>
   <i type="logical" name="LTETE"> F  </i>
   <i type="logical" name="LTRIPLET"> F  </i>
   <i type="logical" name="LFXCEPS"> F  </i>
   <i type="logical" name="LFXHEG"> F  </i>
   <i type="int" name="NATURALO">     2</i>
   <i type="logical" name="LHOLEGF"> F  </i>
   <i type="logical" name="L2ORDER"> F  </i>
   <i type="logical" name="LDMP1"> F  </i>
   <i type="logical" name="LMP2LT"> F  </i>
   <i type="logical" name="LSMP2LT"> F  </i>
   <i type="logical" name="LGWLF"> F  </i>
   <i name="ENCUTGW">     -2.00000000</i>
   <i name="ENCUTGWSOFT">     -2.00000000</i>
   <i name="ENCUTLF">     -1.00000000</i>
   <i type="logical" name="LESF_SPLINES"> F  </i>
   <i type="int" name="LMAXMP2">    -1</i>
   <i name="SCISSOR">      0.00000000</i>
   <i type="int" name="NOMEGA">     0</i>
   <i type="int" name="NOMEGAR">     0</i>
   <i type="int" name="NBANDSGW">    -1</i>
   <i type="int" name="NBANDSO">    -1</i>
   <i type="int" name="NBANDSV">    -1</i>
   <i type="int" name="NELM">     1</i>
   <i type="int" name="NELMHF">     1</i>
   <i type="int" name="DIM">     3</i>
   <i type="int" name="IESPILON">     4</i>
   <i type="int" name="ANTIRES">     0</i>
   <i name="OMEGAMAX">    -30.00000000</i>
   <i name="OMEGAMIN">    -30.00000000</i>
   <i name="OMEGATL">   -200.00000000</i>
   <i type="int" name="OMEGAGRID">     0</i>
   <i name="CSHIFT">     -0.10000000</i>
   <i type="logical" name="LSELFENERGY"> F  </i>
   <i type="logical" name="LSPECTRAL"> F  </i>
   <i type="logical" name="LSPECTRALGW"> F  </i>
   <i type="logical" name="LSINGLES"> F  </i>
   <i type="logical" name="LFERMIGW"> F  </i>
   <i type="logical" name="ODDONLYGW"> F  </i>
   <i type="logical" name="EVENONLYGW"> F  </i>
   <i type="int" name="NKREDLFX">     1</i>
   <i type="int" name="NKREDLFY">     1</i>
   <i type="int" name="NKREDLFZ">     1</i>
   <i type="int" name="MAXMEM">  2800</i>
   <i type="int" name="TELESCOPE">     0</i>
   <i type="int" name="NTAUPAR">    -1</i>
   <i type="int" name="NOMEGAPAR">    -1</i>
   <i name="DAMP_NEWTON">      0.80000001</i>
   <i name="LAMBDA">      1.00000000</i>
  </separator>
  <separator name="External order field" >
   <i name="OFIELD_KAPPA">      0.00000000</i>
   <v name="OFIELD_K">      0.00000000      0.00000000      0.00000000</v>
   <i name="OFIELD_Q6_NEAR">      0.00000000</i>
   <i name="OFIELD_Q6_FAR">      0.00000000</i>
   <i name="OFIELD_A">      0.00000000</i>
  </separator>
 </parameters>
 <atominfo>
  <atoms>       4 </atoms>
  <types>       4 </types>
  <array name="atoms" >
   <dimension dim="1">ion</dimension>
   <field type="string">element</field>
   <field type="int">atomtype</field>
   <set>
    <rc><c>Pd</c><c>   1</c></rc>
    <rc><c>Ir</c><c>   2</c></rc>
    <rc><c>Pt</c><c>   3</c></rc>
    <rc><c>Cu</c><c>   4</c></rc>
   </set>
  </array>
  <array name="atomtypes" >
   <dimension dim="1">type</dimension>
   <field type="int">atomspertype</field>
   <field type="string">element</field>
   <field>mass</field>
   <field>valence</field>
   <field type="string">pseudopotential</field>
   <set>
    <rc><c>   1</c><c>Pd</c><c>    106.42000000</c><c>     10.00000000</c><c>  PAW_PBE Pd 04Jan2005                  </c></rc>
    <rc><c>   1</c><c>Ir</c><c>    192.22000000</c><c>      9.00000000</c><c>  PAW_PBE Ir 06Sep2000                  </c></rc>
    <rc><c>   1</c><c>Pt</c><c>    195.08000000</c><c>     10.00000000</c><c>  PAW_PBE Pt 04Feb2005                  </c></rc>
    <rc><c>   1</c><c>Cu</c><c>     63.54600000</c><c>     11.00000000</c><c>  PAW_PBE Cu 22Jun2005                  </c></rc>
   </set>
  </array>
 </atominfo>
 <structure name="initialpos" >
  <crystal>
   <varray name="basis" >
    <v>       3.80835153       0.00000000       0.00000000 </v>
    <v>       0.00000000       3.80835153       0.00000000 </v>
    <v>       0.00000000       0.00000000       3.80835153 </v>
   </varray>
   <i name="volume">     55.23458381 </i>
   <varray name="rec_basis" >
    <v>       0.26258080       0.00000000       0.00000000 </v>
    <v>       0.00000000       0.26258080       0.00000000 </v>
    <v>       0.00000000       0.00000000       0.26258080 </v>
   </varray>
  </crystal>
  <varray name="positions" >
   <v>       0.00000000       0.00000000       0.00000000 </v>
   <v>       0.50000000       0.50000000       0.00000000 </v>
   <v>       0.50000000       0.00000000       0.50000000 </v>
   <v>       0.00000000       0.50000000       0.50000000 </v>
  </varray>
 </structure>
 <calculation>
  <scstep>
   <time name="dav">    2.57    2.59</time>
   <time name="total">    2.59    2.61</time>
   <energy>
    <i name="alphaZ">    255.93386943 </i>
    <i name="ewald">  -3475.69701893 </i>
    <i name="hartreedc">   -629.63901840 </i>
    <i name="XCdc">      4.17727298 </i>
    <i name="pawpsdc">   3282.45812088 </i>
    <i name="pawaedc">  -3257.47686163 </i>
    <i name="eentropy">     -0.00035825 </i>
    <i name="bandstr">    555.99425154 </i>
    <i name="atom">   3489.78669473 </i>
    <i name="e_fr_energy">    225.53695235 </i>
    <i name="e_wo_entrp">    225.53731060 </i>
    <i name="e_0_energy">    225.53707177 </i>
   </energy>
  </scstep>
  <scstep>
   <time name="dav">    2.49    2.49</time>
   <time name="total">    2.50    2.50</time>
   <energy>
    <i name="e_fr_energy">    -13.77928117 </i>
    <i name="e_wo_entrp">    -13.77828651 </i>
    <i name="e_0_energy">    -13.77894962 </i>
   </energy>
  </scstep>
  <scstep>
   <time name="dav">    2.70    2.70</time>
   <time name="total">    2.72    2.72</time>
   <energy>
    <i name="e_fr_energy">    -25.62621974 </i>
    <i name="e_wo_entrp">    -25.62404300 </i>
    <i name="e_0_energy">    -25.62549416 </i>
   </energy>
  </scstep>
  <scstep>
   <time name="dav">    2.80    2.80</time>
   <time name="total">    2.81    2.81</time>
   <energy>
    <i name="e_fr_energy">    -25.91107629 </i>
    <i name="e_wo_entrp">    -25.90898898 </i>
    <i name="e_0_energy">    -25.91038052 </i>
   </energy>
  </scstep>
  <scstep>
   <time name="dav">    3.14    3.14</time>
   <time name="total">    3.34    3.34</time>
   <energy>
    <i name="e_fr_energy">    -25.92409757 </i>
    <i name="e_wo_entrp">    -25.92201429 </i>
    <i name="e_0_energy">    -25.92340315 </i>
   </energy>
  </scstep>
  <scstep>
   <time name="dav">    2.69    2.69</time>
   <time name="total">    2.89    2.89</time>
   <energy>
    <i name="e_fr_energy">    -28.42249233 </i>
    <i name="e_wo_entrp">    -28.42328517 </i>
    <i name="e_0_energy">    -28.42275661 </i>
   </energy>
  </scstep>
  <scstep>
   <time name="dav">    3.05    3.05</time>
   <time name="total">    3.25    3.25</time>
   <energy>
    <i name="e_fr_energy">    -23.56329471 </i>
    <i name="e_wo_entrp">    -23.57063735 </i>
    <i name="e_0_energy">    -23.56574226 </i>
   </energy>
  </scstep>
  <scstep>
   <time name="dav">    3.26    3.26</time>
   <time name="total">    3.46    3.46</time>
   <energy>
    <i name="e_fr_energy">    -23.85081323 </i>
    <i name="e_wo_entrp">    -23.84980341 </i>
    <i name="e_0_energy">    -23.85047662 </i>
   </energy>
  </scstep>
  <scstep>
   <time name="dav">    3.16    3.16</time>
   <time name="total">    3.37    3.37</time>
   <energy>
    <i name="e_fr_energy">    -23.46512226 </i>
    <i name="e_wo_entrp">    -23.47002472 </i>
    <i name="e_0_energy">    -23.46675642 </i>
   </energy>
  </scstep>
  <scstep>
   <time name="dav">    3.36    3.36</time>
   <time name="total">    3.57    3.57</time>
   <energy>
    <i name="e_fr_energy">    -23.45855695 </i>
    <i name="e_wo_entrp">    -23.46524418 </i>
    <i name="e_0_energy">    -23.46078602 </i>
   </energy>
  </scstep>
  <scstep>
   <time name="dav">    3.12    3.12</time>
   <time name="total">    3.32    3.32</time>
   <energy>
    <i name="e_fr_energy">    -23.44964814 </i>
    <i name="e_wo_entrp">    -23.45665518 </i>
    <i name="e_0_energy">    -23.45198382 </i>
   </energy>
  </scstep>
  <scstep>
   <time name="dav">    2.73    2.73</time>
   <time name="total">    2.93    2.93</time>
   <energy>
    <i name="e_fr_energy">    -23.44155612 </i>
    <i name="e_wo_entrp">    -23.44662874 </i>
    <i name="e_0_energy">    -23.44324699 </i>
   </energy>
  </scstep>
  <scstep>
   <time name="dav">    2.69    2.69</time>
   <time name="total">    2.89    2.89</time>
   <energy>
    <i name="e_fr_energy">    -23.44162749 </i>
    <i name="e_wo_entrp">    -23.44679891 </i>
    <i name="e_0_energy">    -23.44335130 </i>
   </energy>
  </scstep>
  <scstep>
   <time name="dav">    2.97    2.97</time>
   <time name="total">    3.17    3.17</time>
   <energy>
    <i name="e_fr_energy">    -23.44158755 </i>
    <i name="e_wo_entrp">    -23.44686928 </i>
    <i name="e_0_energy">    -23.44334813 </i>
   </energy>
  </scstep>
  <scstep>
   <time name="dav">    3.21    3.21</time>
   <time name="total">    3.41    3.41</time>
   <energy>
    <i name="e_fr_energy">    -23.44160189 </i>
    <i name="e_wo_entrp">    -23.44679359 </i>
    <i name="e_0_energy">    -23.44333246 </i>
   </energy>
  </scstep>
  <scstep>
   <time name="dav">    2.71    2.71</time>
   <time name="total">    2.91    2.91</time>
   <energy>
    <i name="e_fr_energy">    -23.44158645 </i>
    <i name="e_wo_entrp">    -23.44686377 </i>
    <i name="e_0_energy">    -23.44334556 </i>
   </energy>
  </scstep>
  <scstep>
   <time name="dav">    2.23    2.23</time>
   <time name="total">    2.26    2.26</time>
   <energy>
    <i name="alphaZ">    255.93386943 </i>
    <i name="ewald">  -3475.69701893 </i>
    <i name="hartreedc">   -575.85482502 </i>
    <i name="XCdc">      2.30973766 </i>
    <i name="pawpsdc">   4042.01677156 </i>
    <i name="pawaedc">  -4028.80125877 </i>
    <i name="eentropy">      0.00528406 </i>
    <i name="bandstr">    266.85915897 </i>
    <i name="atom">   3489.78669473 </i>
    <i name="e_fr_energy">    -23.44158631 </i>
    <i name="e_wo_entrp">    -23.44687037 </i>
    <i name="e_0_energy">    -23.44334766 </i>
   </energy>
  </scstep>
  <structure>
   <crystal>
    <varray name="basis" >
     <v>       3.80835153       0.00000000       0.00000000 </v>
     <v>       0.00000000       3.80835153       0.00000000 </v>
     <v>       0.00000000       0.00000000       3.80835153 </v>
    </varray>
    <i name="volume">     55.23458381 </i>
    <varray name="rec_basis" >
     <v>       0.26258080       0.00000000       0.00000000 </v>
     <v>       0.00000000       0.26258080       0.00000000 </v>
     <v>       0.00000000       0.00000000       0.26258080 </v>
    </varray>
   </crystal>
   <varray name="positions" >
    <v>       0.00000000       0.00000000       0.00000000 </v>
    <v>       0.50000000       0.50000000       0.00000000 </v>
    <v>       0.50000000       0.00000000       0.50000000 </v>
    <v>       0.00000000       0.50000000       0.50000000 </v>
   </varray>
  </structure>
  <varray name="forces" >
   <v>       0.00000000      -0.00000000       0.00000000 </v>
   <v>      -0.00000000      -0.00000000       0.00000000 </v>
   <v>      -0.00000000      -0.00000000      -0.00000000 </v>
   <v>      -0.00000000       0.00000000      -0.00000000 </v>
  </varray>
  <varray name="stress" >
   <v>      73.66328509       0.00000000       0.00000000 </v>
   <v>       0.00000000      69.74721606       0.00000000 </v>
   <v>       0.00000000       0.00000000      55.58881985 </v>
  </varray>
  <energy>
   <i name="e_fr_energy">    -23.44158631 </i>
   <i name="e_wo_entrp">    -23.44687037 </i>
   <i name="e_0_energy">    -23.44334766 </i>
  </energy>
  <time name="totalsc">   53.94   53.96</time>
  <eigenvalues>
   <array>
    <dimension dim="1">band</dimension>
    <dimension dim="2">kpoint</dimension>
    <dimension dim="3">spin</dimension>
    <field>eigene</field>
    <field>occ</field>
    <set>
     <set comment="spin 1">
      <set comment="kpoint 1">
       <r>    0.4153    1.0000 </r>
       <r>    2.8606    1.0000 </r>
       <r>    3.8537    1.0000 </r>
       <r>    3.8980    1.0000 </r>
       <r>    3.9590    1.0000 </r>
       <r>    4.0749    1.0000 </r>
       <r>    4.0848    1.0000 </r>
       <r>    6.7066    1.0000 </r>
       <r>    6.7189    1.0000 </r>
       <r>    6.8554    1.0000 </r>
       <r>    8.0382    1.0000 </r>
       <r>    8.1805    1.0000 </r>
       <r>    8.8910    1.0000 </r>
       <r>    9.0689    1.0000 </r>
       <r>    9.2171    1.0000 </r>
       <r>    9.9966    0.2425 </r>
       <r>   10.1760   -0.0355 </r>
       <r>   10.2671   -0.0197 </r>
       <r>   10.5803   -0.0000 </r>
       <r>   11.1083   -0.0000 </r>
       <r>   11.7186   -0.0000 </r>
       <r>   12.0754   -0.0000 </r>
       <r>   12.0834   -0.0000 </r>
       <r>   12.1012   -0.0000 </r>
       <r>   19.1146    0.0000 </r>
       <r>   19.3394    0.0000 </r>
       <r>   20.9946    0.0000 </r>
       <r>   21.1621    0.0000 </r>
       <r>   21.3452    0.0000 </r>
       <r>   21.5919    0.0000 </r>
      </set>
      <set comment="kpoint 2">
       <r>    0.5188    1.0000 </r>
       <r>    2.9309    1.0000 </r>
       <r>    3.9043    1.0000 </r>
       <r>    3.9352    1.0000 </r>
       <r>    4.0224    1.0000 </r>
       <r>    4.1362    1.0000 </r>
       <r>    4.1558    1.0000 </r>
       <r>    6.6671    1.0000 </r>
       <r>    6.7451    1.0000 </r>
       <r>    6.8972    1.0000 </r>
       <r>    8.0473    1.0000 </r>
       <r>    8.1395    1.0000 </r>
       <r>    8.8926    1.0000 </r>
       <r>    8.9796    1.0000 </r>
       <r>    8.9857    1.0000 </r>
       <r>    9.5441    1.0096 </r>
       <r>   10.1161   -0.0146 </r>
       <r>   10.1340   -0.0260 </r>
       <r>   10.5031   -0.0002 </r>
       <r>   10.6842   -0.0000 </r>
       <r>   11.6070   -0.0000 </r>
       <r>   11.7182   -0.0000 </r>
       <r>   12.6720   -0.0000 </r>
       <r>   12.7041   -0.0000 </r>
       <r>   19.1169    0.0000 </r>
       <r>   19.6142    0.0000 </r>
       <r>   20.5130    0.0000 </r>
       <r>   21.4190    0.0000 </r>
       <r>   21.6312    0.0000 </r>
       <r>   21.9354    0.0000 </r>
      </set>
      <set comment="kpoint 3">
       <r>    0.5289    1.0000 </r>
       <r>    2.9362    1.0000 </r>
       <r>    3.8926    1.0000 </r>
       <r>    3.9659    1.0000 </r>
       <r>    3.9957    1.0000 </r>
       <r>    4.1359    1.0000 </r>
       <r>    4.1618    1.0000 </r>
       <r>    6.7499    1.0000 </r>
       <r>    6.7596    1.0000 </r>
       <r>    6.8137    1.0000 </r>
       <r>    8.0071    1.0000 </r>
       <r>    8.1953    1.0000 </r>
       <r>    8.7431    1.0000 </r>
       <r>    9.0252    1.0000 </r>
       <r>    9.0481    1.0000 </r>
       <r>    9.9878    0.2747 </r>
       <r>   10.0290    0.1390 </r>
       <r>   10.2622   -0.0208 </r>
       <r>   10.4666   -0.0005 </r>
       <r>   10.5730   -0.0000 </r>
       <r>   10.9594   -0.0000 </r>
       <r>   11.6240   -0.0000 </r>
       <r>   12.7651   -0.0000 </r>
       <r>   12.9443   -0.0000 </r>
       <r>   19.0644    0.0000 </r>
       <r>   19.5164    0.0000 </r>
       <r>   21.1594    0.0000 </r>
       <r>   21.2705    0.0000 </r>
       <r>   21.4186    0.0000 </r>
       <r>   21.7514    0.0000 </r>
      </set>
      <set comment="kpoint 4">
       <r>    0.5295    1.0000 </r>
       <r>    2.9387    1.0000 </r>
       <r>    3.9337    1.0000 </r>
       <r>    3.9674    1.0000 </r>
       <r>    4.0238    1.0000 </r>
       <r>    4.1150    1.0000 </r>
       <r>    4.1178    1.0000 </r>
       <r>    6.6533    1.0000 </r>
       <r>    6.7552    1.0000 </r>
       <r>    6.8974    1.0000 </r>
       <r>    8.0205    1.0000 </r>
       <r>    8.1745    1.0000 </r>
       <r>    8.7313    1.0000 </r>
       <r>    9.0065    1.0000 </r>
       <r>    9.2137    1.0000 </r>
       <r>    9.6741    1.0348 </r>
       <r>    9.9378    0.4765 </r>
       <r>   10.1078   -0.0073 </r>
       <r>   10.4571   -0.0007 </r>
       <r>   10.9900   -0.0000 </r>
       <r>   11.1046   -0.0000 </r>
       <r>   11.6318   -0.0000 </r>
       <r>   12.6965   -0.0000 </r>
       <r>   12.9120   -0.0000 </r>
       <r>   18.8854    0.0000 </r>
       <r>   19.6218    0.0000 </r>
       <r>   21.1695    0.0000 </r>
       <r>   21.2802    0.0000 </r>
       <r>   21.6320    0.0000 </r>
       <r>   21.6455    0.0000 </r>
      </set>
      <set comment="kpoint 5">
       <r>    0.8202    1.0000 </r>
       <r>    3.1309    1.0000 </r>
       <r>    4.0171    1.0000 </r>
       <r>    4.0399    1.0000 </r>
       <r>    4.2081    1.0000 </r>
       <r>    4.3140    1.0000 </r>
       <r>    4.3722    1.0000 </r>
       <r>    6.5146    1.0000 </r>
       <r>    6.8457    1.0000 </r>
       <r>    7.0072    1.0000 </r>
       <r>    7.9751    1.0000 </r>
       <r>    8.0965    1.0000 </r>
       <r>    8.4114    1.0000 </r>
       <r>    8.6694    1.0000 </r>
       <r>    8.7192    1.0000 </r>
       <r>    8.8848    1.0000 </r>
       <r>    9.8187    0.9050 </r>
       <r>    9.9303    0.5083 </r>
       <r>   10.1166   -0.0150 </r>
       <r>   10.2882   -0.0152 </r>
       <r>   10.6240   -0.0000 </r>
       <r>   11.7171   -0.0000 </r>
       <r>   13.7686   -0.0000 </r>
       <r>   13.7696   -0.0000 </r>
       <r>   19.0997    0.0000 </r>
       <r>   19.1778    0.0000 </r>
       <r>   21.4102    0.0000 </r>
       <r>   21.4545    0.0000 </r>
       <r>   21.4848    0.0000 </r>
       <r>   22.2520    0.0000 </r>
      </set>
      <set comment="kpoint 6">
       <r>    0.8633    1.0000 </r>
       <r>    3.1490    1.0000 </r>
       <r>    3.9744    1.0000 </r>
       <r>    4.0968    1.0000 </r>
       <r>    4.1641    1.0000 </r>
       <r>    4.3124    1.0000 </r>
       <r>    4.3987    1.0000 </r>
       <r>    6.6792    1.0000 </r>
       <r>    6.8703    1.0000 </r>
       <r>    6.8751    1.0000 </r>
       <r>    7.8942    1.0000 </r>
       <r>    8.2297    1.0000 </r>
       <r>    8.3295    1.0000 </r>
       <r>    8.5038    1.0000 </r>
       <r>    8.9791    1.0000 </r>
       <r>    9.5740    1.0148 </r>
       <r>    9.8899    0.6749 </r>
       <r>    9.9610    0.3799 </r>
       <r>   10.1289   -0.0233 </r>
       <r>   10.1436   -0.0300 </r>
       <r>   10.2497   -0.0236 </r>
       <r>   10.6295   -0.0000 </r>
       <r>   13.8821   -0.0000 </r>
       <r>   14.0241   -0.0000 </r>
       <r>   18.6078    0.0000 </r>
       <r>   19.8544    0.0000 </r>
       <r>   21.3548    0.0000 </r>
       <r>   21.3609    0.0000 </r>
       <r>   21.5815    0.0000 </r>
       <r>   22.4068    0.0000 </r>
      </set>
      <set comment="kpoint 7">
       <r>    0.8655    1.0000 </r>
       <r>    3.1595    1.0000 </r>
       <r>    4.1412    1.0000 </r>
       <r>    4.1711    1.0000 </r>
       <r>    4.2050    1.0000 </r>
       <r>    4.2140    1.0000 </r>
       <r>    4.2383    1.0000 </r>
       <r>    6.4901    1.0000 </r>
       <r>    6.8523    1.0000 </r>
       <r>    7.0080    1.0000 </r>
       <r>    7.9139    1.0000 </r>
       <r>    8.1842    1.0000 </r>
       <r>    8.2957    1.0000 </r>
       <r>    8.7607    1.0000 </r>
       <r>    8.7995    1.0000 </r>
       <r>    9.1983    1.0000 </r>
       <r>    9.6390    1.0291 </r>
       <r>    9.9340    0.4927 </r>
       <r>   10.0289    0.1392 </r>
       <r>   10.2068   -0.0327 </r>
       <r>   10.6513   -0.0000 </r>
       <r>   11.0945   -0.0000 </r>
       <r>   13.8405   -0.0000 </r>
       <r>   13.9837   -0.0000 </r>
       <r>   18.2928    0.0000 </r>
       <r>   20.0395    0.0000 </r>
       <r>   21.4120    0.0000 </r>
       <r>   21.4815    0.0000 </r>
       <r>   21.7006    0.0000 </r>
       <r>   22.2942    0.0000 </r>
      </set>
      <set comment="kpoint 8">
       <r>    1.2875    1.0000 </r>
       <r>    3.4277    1.0000 </r>
       <r>    4.1346    1.0000 </r>
       <r>    4.1996    1.0000 </r>
       <r>    4.5132    1.0000 </r>
       <r>    4.6044    1.0000 </r>
       <r>    4.7207    1.0000 </r>
       <r>    6.2951    1.0000 </r>
       <r>    6.9672    1.0000 </r>
       <r>    7.1825    1.0000 </r>
       <r>    7.7544    1.0000 </r>
       <r>    7.7639    1.0000 </r>
       <r>    7.7755    1.0000 </r>
       <r>    8.1363    1.0000 </r>
       <r>    8.3436    1.0000 </r>
       <r>    8.8767    1.0000 </r>
       <r>    9.1040    1.0000 </r>
       <r>    9.4263    1.0010 </r>
       <r>    9.5807    1.0161 </r>
       <r>    9.8467    0.8279 </r>
       <r>   10.2245   -0.0293 </r>
       <r>   11.7160   -0.0000 </r>
       <r>   14.9556   -0.0000 </r>
       <r>   15.0013   -0.0000 </r>
       <r>   18.5628    0.0000 </r>
       <r>   19.1330    0.0000 </r>
       <r>   20.8948    0.0000 </r>
       <r>   20.9563    0.0000 </r>
       <r>   21.2171    0.0000 </r>
       <r>   22.4705    0.0000 </r>
      </set>
      <set comment="kpoint 9">
       <r>    1.3960    1.0000 </r>
       <r>    3.4518    1.0000 </r>
       <r>    4.0481    1.0000 </r>
       <r>    4.2478    1.0000 </r>
       <r>    4.4838    1.0000 </r>
       <r>    4.5964    1.0000 </r>
       <r>    4.7819    1.0000 </r>
       <r>    6.4850    1.0000 </r>
       <r>    7.0683    1.0000 </r>
       <r>    7.0697    1.0000 </r>
       <r>    7.7287    1.0000 </r>
       <r>    7.7472    1.0000 </r>
       <r>    7.8242    1.0000 </r>
       <r>    8.2699    1.0000 </r>
       <r>    8.6959    1.0000 </r>
       <r>    8.9456    1.0000 </r>
       <r>    9.2845    1.0000 </r>
       <r>    9.3904    1.0004 </r>
       <r>    9.6539    1.0321 </r>
       <r>    9.7362    1.0230 </r>
       <r>    9.9266    0.5240 </r>
       <r>   10.2380   -0.0264 </r>
       <r>   15.1066   -0.0000 </r>
       <r>   15.1696   -0.0000 </r>
       <r>   18.1434    0.0000 </r>
       <r>   19.8305    0.0000 </r>
       <r>   20.7935    0.0000 </r>
       <r>   20.9494    0.0000 </r>
       <r>   21.7564    0.0000 </r>
       <r>   21.9877    0.0000 </r>
      </set>
      <set comment="kpoint 10">
       <r>    1.4020    1.0000 </r>
       <r>    3.4719    1.0000 </r>
       <r>    4.2459    1.0000 </r>
       <r>    4.4283    1.0000 </r>
       <r>    4.5048    1.0000 </r>
       <r>    4.5197    1.0000 </r>
       <r>    4.5275    1.0000 </r>
       <r>    6.2453    1.0000 </r>
       <r>    6.9734    1.0000 </r>
       <r>    7.1827    1.0000 </r>
       <r>    7.7243    1.0000 </r>
       <r>    7.7339    1.0000 </r>
       <r>    7.8433    1.0000 </r>
       <r>    8.2283    1.0000 </r>
       <r>    8.4413    1.0000 </r>
       <r>    9.0720    1.0000 </r>
       <r>    9.1813    1.0000 </r>
       <r>    9.2456    1.0000 </r>
       <r>    9.5137    1.0059 </r>
       <r>    9.6995    1.0348 </r>
       <r>    9.9822    0.2956 </r>
       <r>   11.0830   -0.0000 </r>
       <r>   15.1151   -0.0000 </r>
       <r>   15.1292   -0.0000 </r>
       <r>   17.7375    0.0000 </r>
       <r>   20.1532    0.0000 </r>
       <r>   20.8248    0.0000 </r>
       <r>   21.0473    0.0000 </r>
       <r>   21.7627    0.0000 </r>
       <r>   22.0458    0.0000 </r>
      </set>
      <set comment="kpoint 11">
       <r>    1.8423    1.0000 </r>
       <r>    3.7501    1.0000 </r>
       <r>    4.1852    1.0000 </r>
       <r>    4.3812    1.0000 </r>
       <r>    4.9294    1.0000 </r>
       <r>    4.9950    1.0000 </r>
       <r>    5.1171    1.0000 </r>
       <r>    6.0578    1.0000 </r>
       <r>    6.7704    1.0000 </r>
       <r>    6.9509    1.0000 </r>
       <r>    7.4013    1.0000 </r>
       <r>    7.4703    1.0000 </r>
       <r>    7.5033    1.0000 </r>
       <r>    7.9371    1.0000 </r>
       <r>    8.1164    1.0000 </r>
       <r>    8.2038    1.0000 </r>
       <r>    8.8702    1.0000 </r>
       <r>    9.0205    1.0000 </r>
       <r>    9.0925    1.0000 </r>
       <r>    9.4138    1.0008 </r>
       <r>   10.1339   -0.0260 </r>
       <r>   11.7150   -0.0000 </r>
       <r>   16.1800    0.0000 </r>
       <r>   16.2612    0.0000 </r>
       <r>   18.1414    0.0000 </r>
       <r>   19.1917    0.0000 </r>
       <r>   19.9949    0.0000 </r>
       <r>   20.1218    0.0000 </r>
       <r>   20.4113    0.0000 </r>
       <r>   22.9110    0.0000 </r>
      </set>
      <set comment="kpoint 12">
       <r>    2.0781    1.0000 </r>
       <r>    3.6946    1.0000 </r>
       <r>    4.0801    1.0000 </r>
       <r>    4.4144    1.0000 </r>
       <r>    4.8956    1.0000 </r>
       <r>    4.9628    1.0000 </r>
       <r>    5.2330    1.0000 </r>
       <r>    6.2769    1.0000 </r>
       <r>    7.1092    1.0000 </r>
       <r>    7.1148    1.0000 </r>
       <r>    7.3420    1.0000 </r>
       <r>    7.3723    1.0000 </r>
       <r>    7.5136    1.0000 </r>
       <r>    7.8593    1.0000 </r>
       <r>    8.2373    1.0000 </r>
       <r>    8.7343    1.0000 </r>
       <r>    8.7529    1.0000 </r>
       <r>    8.7946    1.0000 </r>
       <r>    9.0324    1.0000 </r>
       <r>    9.2677    1.0000 </r>
       <r>    9.8950    0.6548 </r>
       <r>   10.2302   -0.0281 </r>
       <r>   16.3562    0.0000 </r>
       <r>   16.3824    0.0000 </r>
       <r>   17.8028    0.0000 </r>
       <r>   19.6991    0.0000 </r>
       <r>   19.8720    0.0000 </r>
       <r>   20.0566    0.0000 </r>
       <r>   21.6547    0.0000 </r>
       <r>   21.8253    0.0000 </r>
      </set>
      <set comment="kpoint 13">
       <r>    2.0929    1.0000 </r>
       <r>    3.6983    1.0000 </r>
       <r>    4.3170    1.0000 </r>
       <r>    4.6627    1.0000 </r>
       <r>    4.8968    1.0000 </r>
       <r>    4.9549    1.0000 </r>
       <r>    4.9587    1.0000 </r>
       <r>    5.9593    1.0000 </r>
       <r>    6.7752    1.0000 </r>
       <r>    6.9638    1.0000 </r>
       <r>    7.4464    1.0000 </r>
       <r>    7.4771    1.0000 </r>
       <r>    7.4867    1.0000 </r>
       <r>    7.9475    1.0000 </r>
       <r>    8.1400    1.0000 </r>
       <r>    8.3113    1.0000 </r>
       <r>    8.8268    1.0000 </r>
       <r>    8.9209    1.0000 </r>
       <r>    9.1669    1.0000 </r>
       <r>    9.2858    1.0000 </r>
       <r>    9.7324    1.0250 </r>
       <r>   11.0732   -0.0000 </r>
       <r>   16.3218    0.0000 </r>
       <r>   16.4369    0.0000 </r>
       <r>   17.3456    0.0000 </r>
       <r>   19.8598    0.0000 </r>
       <r>   20.1697    0.0000 </r>
       <r>   20.1707    0.0000 </r>
       <r>   21.2491    0.0000 </r>
       <r>   22.2100    0.0000 </r>
      </set>
      <set comment="kpoint 14">
       <r>    2.2911    1.0000 </r>
       <r>    3.9657    1.0000 </r>
       <r>    4.1451    1.0000 </r>
       <r>    4.5176    1.0000 </r>
       <r>    5.4093    1.0000 </r>
       <r>    5.4130    1.0000 </r>
       <r>    5.4339    1.0000 </r>
       <r>    5.8879    1.0000 </r>
       <r>    6.2356    1.0000 </r>
       <r>    6.2573    1.0000 </r>
       <r>    7.3078    1.0000 </r>
       <r>    7.4450    1.0000 </r>
       <r>    7.5914    1.0000 </r>
       <r>    7.6016    1.0000 </r>
       <r>    7.7896    1.0000 </r>
       <r>    8.2138    1.0000 </r>
       <r>    8.7220    1.0000 </r>
       <r>    8.7469    1.0000 </r>
       <r>    8.8655    1.0000 </r>
       <r>    9.1078    1.0000 </r>
       <r>   10.0939    0.0079 </r>
       <r>   11.7145   -0.0000 </r>
       <r>   17.3057    0.0000 </r>
       <r>   17.3957    0.0000 </r>
       <r>   17.9281    0.0000 </r>
       <r>   19.0108    0.0000 </r>
       <r>   19.1726    0.0000 </r>
       <r>   19.3033    0.0000 </r>
       <r>   19.9133    0.0000 </r>
       <r>   23.0756    0.0000 </r>
      </set>
      <set comment="kpoint 15">
       <r>    2.7944    1.0000 </r>
       <r>    3.5096    1.0000 </r>
       <r>    4.1849    1.0000 </r>
       <r>    4.5338    1.0000 </r>
       <r>    5.2974    1.0000 </r>
       <r>    5.3165    1.0000 </r>
       <r>    5.5900    1.0000 </r>
       <r>    6.1305    1.0000 </r>
       <r>    6.5779    1.0000 </r>
       <r>    6.6061    1.0000 </r>
       <r>    7.1676    1.0000 </r>
       <r>    7.5170    1.0000 </r>
       <r>    7.6743    1.0000 </r>
       <r>    7.6788    1.0000 </r>
       <r>    8.0788    1.0000 </r>
       <r>    8.2339    1.0000 </r>
       <r>    8.2678    1.0000 </r>
       <r>    8.6248    1.0000 </r>
       <r>    8.8092    1.0000 </r>
       <r>    9.0037    1.0000 </r>
       <r>    9.8765    0.7259 </r>
       <r>   10.2265   -0.0289 </r>
       <r>   17.5423    0.0000 </r>
       <r>   17.6279    0.0000 </r>
       <r>   17.6658    0.0000 </r>
       <r>   18.7866    0.0000 </r>
       <r>   18.9223    0.0000 </r>
       <r>   19.6053    0.0000 </r>
       <r>   21.5037    0.0000 </r>
       <r>   21.8383    0.0000 </r>
      </set>
      <set comment="kpoint 16">
       <r>    2.8445    1.0000 </r>
       <r>    3.4720    1.0000 </r>
       <r>    4.4641    1.0000 </r>
       <r>    4.8705    1.0000 </r>
       <r>    5.1679    1.0000 </r>
       <r>    5.4847    1.0000 </r>
       <r>    5.4919    1.0000 </r>
       <r>    5.7194    1.0000 </r>
       <r>    6.1771    1.0000 </r>
       <r>    6.2329    1.0000 </r>
       <r>    7.2430    1.0000 </r>
       <r>    7.4373    1.0000 </r>
       <r>    7.6650    1.0000 </r>
       <r>    7.6659    1.0000 </r>
       <r>    7.8409    1.0000 </r>
       <r>    8.3535    1.0000 </r>
       <r>    8.4876    1.0000 </r>
       <r>    8.4908    1.0000 </r>
       <r>    8.9298    1.0000 </r>
       <r>    9.1584    1.0000 </r>
       <r>    9.6529    1.0319 </r>
       <r>   11.0678   -0.0000 </r>
       <r>   17.1480    0.0000 </r>
       <r>   17.5272    0.0000 </r>
       <r>   17.7576    0.0000 </r>
       <r>   18.7435    0.0000 </r>
       <r>   19.0277    0.0000 </r>
       <r>   20.1770    0.0000 </r>
       <r>   20.9716    0.0000 </r>
       <r>   22.2751    0.0000 </r>
      </set>
      <set comment="kpoint 17">
       <r>    0.6313    1.0000 </r>
       <r>    3.0053    1.0000 </r>
       <r>    3.9468    1.0000 </r>
       <r>    3.9952    1.0000 </r>
       <r>    4.0635    1.0000 </r>
       <r>    4.1691    1.0000 </r>
       <r>    4.2504    1.0000 </r>
       <r>    6.6764    1.0000 </r>
       <r>    6.7806    1.0000 </r>
       <r>    6.8788    1.0000 </r>
       <r>    8.0101    1.0000 </r>
       <r>    8.1521    1.0000 </r>
       <r>    8.7052    1.0000 </r>
       <r>    8.7939    1.0000 </r>
       <r>    8.9724    1.0000 </r>
       <r>    9.5807    1.0161 </r>
       <r>   10.0079    0.2038 </r>
       <r>   10.0993    0.0015 </r>
       <r>   10.1011   -0.0005 </r>
       <r>   10.4054   -0.0021 </r>
       <r>   11.1742   -0.0000 </r>
       <r>   12.0168   -0.0000 </r>
       <r>   12.5151   -0.0000 </r>
       <r>   13.3015   -0.0000 </r>
       <r>   19.1283    0.0000 </r>
       <r>   19.8586    0.0000 </r>
       <r>   20.5501    0.0000 </r>
       <r>   21.4460    0.0000 </r>
       <r>   21.5282    0.0000 </r>
       <r>   22.2994    0.0000 </r>
      </set>
      <set comment="kpoint 18">
       <r>    0.6407    1.0000 </r>
       <r>    3.0134    1.0000 </r>
       <r>    3.9554    1.0000 </r>
       <r>    4.0411    1.0000 </r>
       <r>    4.0526    1.0000 </r>
       <r>    4.1820    1.0000 </r>
       <r>    4.1984    1.0000 </r>
       <r>    6.6646    1.0000 </r>
       <r>    6.7889    1.0000 </r>
       <r>    6.8782    1.0000 </r>
       <r>    7.9896    1.0000 </r>
       <r>    8.1799    1.0000 </r>
       <r>    8.5818    1.0000 </r>
       <r>    8.9552    1.0000 </r>
       <r>    9.0037    1.0000 </r>
       <r>    9.7176    1.0312 </r>
       <r>    9.9253    0.5293 </r>
       <r>    9.9701    0.3430 </r>
       <r>   10.2848   -0.0159 </r>
       <r>   10.3551   -0.0054 </r>
       <r>   10.7816   -0.0000 </r>
       <r>   12.0178   -0.0000 </r>
       <r>   12.8259   -0.0000 </r>
       <r>   13.1938   -0.0000 </r>
       <r>   19.1330    0.0000 </r>
       <r>   19.4915    0.0000 </r>
       <r>   21.1901    0.0000 </r>
       <r>   21.4127    0.0000 </r>
       <r>   21.4204    0.0000 </r>
       <r>   22.1949    0.0000 </r>
      </set>
      <set comment="kpoint 19">
       <r>    0.6317    1.0000 </r>
       <r>    3.0080    1.0000 </r>
       <r>    3.9707    1.0000 </r>
       <r>    3.9988    1.0000 </r>
       <r>    4.0924    1.0000 </r>
       <r>    4.1809    1.0000 </r>
       <r>    4.1880    1.0000 </r>
       <r>    6.6149    1.0000 </r>
       <r>    6.7744    1.0000 </r>
       <r>    6.9302    1.0000 </r>
       <r>    8.0309    1.0000 </r>
       <r>    8.1258    1.0000 </r>
       <r>    8.6607    1.0000 </r>
       <r>    8.9207    1.0000 </r>
       <r>    9.0638    1.0000 </r>
       <r>    9.3834    1.0004 </r>
       <r>    9.5263    1.0073 </r>
       <r>   10.0792    0.0286 </r>
       <r>   10.4450   -0.0009 </r>
       <r>   10.6019   -0.0000 </r>
       <r>   11.2877   -0.0000 </r>
       <r>   12.1243   -0.0000 </r>
       <r>   12.3103   -0.0000 </r>
       <r>   13.2974   -0.0000 </r>
       <r>   18.9866    0.0000 </r>
       <r>   19.9358    0.0000 </r>
       <r>   20.5647    0.0000 </r>
       <r>   21.4146    0.0000 </r>
       <r>   21.7355    0.0000 </r>
       <r>   22.2289    0.0000 </r>
      </set>
      <set comment="kpoint 20">
       <r>    0.9297    1.0000 </r>
       <r>    3.2031    1.0000 </r>
       <r>    4.0756    1.0000 </r>
       <r>    4.0954    1.0000 </r>
       <r>    4.2514    1.0000 </r>
       <r>    4.3193    1.0000 </r>
       <r>    4.4709    1.0000 </r>
       <r>    6.5122    1.0000 </r>
       <r>    6.8639    1.0000 </r>
       <r>    7.0030    1.0000 </r>
       <r>    7.9625    1.0000 </r>
       <r>    8.0711    1.0000 </r>
       <r>    8.2617    1.0000 </r>
       <r>    8.4240    1.0000 </r>
       <r>    8.7234    1.0000 </r>
       <r>    9.0173    1.0000 </r>
       <r>    9.3928    1.0005 </r>
       <r>    9.8085    0.9283 </r>
       <r>    9.9115    0.5874 </r>
       <r>   10.2016   -0.0335 </r>
       <r>   11.3083   -0.0000 </r>
       <r>   11.3408   -0.0000 </r>
       <r>   13.2947   -0.0000 </r>
       <r>   14.1942   -0.0000 </r>
       <r>   18.9396    0.0000 </r>
       <r>   19.6707    0.0000 </r>
       <r>   20.8817    0.0000 </r>
       <r>   21.4707    0.0000 </r>
       <r>   21.6078    0.0000 </r>
       <r>   22.4942    0.0000 </r>
      </set>
      <set comment="kpoint 21">
       <r>    0.9681    1.0000 </r>
       <r>    3.2248    1.0000 </r>
       <r>    4.0323    1.0000 </r>
       <r>    4.1451    1.0000 </r>
       <r>    4.2208    1.0000 </r>
       <r>    4.3631    1.0000 </r>
       <r>    4.4530    1.0000 </r>
       <r>    6.6169    1.0000 </r>
       <r>    6.8895    1.0000 </r>
       <r>    6.9140    1.0000 </r>
       <r>    7.8905    1.0000 </r>
       <r>    8.1234    1.0000 </r>
       <r>    8.2843    1.0000 </r>
       <r>    8.4046    1.0000 </r>
       <r>    8.9446    1.0000 </r>
       <r>    9.2895    1.0000 </r>
       <r>    9.6164    1.0240 </r>
       <r>    9.6444    1.0303 </r>
       <r>    9.8948    0.6555 </r>
       <r>   10.0573    0.0690 </r>
       <r>   10.3538   -0.0056 </r>
       <r>   11.3139   -0.0000 </r>
       <r>   13.6168   -0.0000 </r>
       <r>   14.1861   -0.0000 </r>
       <r>   18.7360    0.0000 </r>
       <r>   19.7805    0.0000 </r>
       <r>   20.8517    0.0000 </r>
       <r>   21.5641    0.0000 </r>
       <r>   22.0278    0.0000 </r>
       <r>   22.3353    0.0000 </r>
      </set>
      <set comment="kpoint 22">
       <r>    0.9642    1.0000 </r>
       <r>    3.2273    1.0000 </r>
       <r>    4.1511    1.0000 </r>
       <r>    4.1798    1.0000 </r>
       <r>    4.2515    1.0000 </r>
       <r>    4.3218    1.0000 </r>
       <r>    4.3310    1.0000 </r>
       <r>    6.4565    1.0000 </r>
       <r>    6.8702    1.0000 </r>
       <r>    7.0249    1.0000 </r>
       <r>    7.9221    1.0000 </r>
       <r>    8.1294    1.0000 </r>
       <r>    8.2213    1.0000 </r>
       <r>    8.5671    1.0000 </r>
       <r>    8.7523    1.0000 </r>
       <r>    9.0020    1.0000 </r>
       <r>    9.0959    1.0000 </r>
       <r>    9.9089    0.5979 </r>
       <r>   10.1688   -0.0352 </r>
       <r>   10.2069   -0.0327 </r>
       <r>   10.9657   -0.0000 </r>
       <r>   11.1564   -0.0000 </r>
       <r>   13.3412   -0.0000 </r>
       <r>   14.2920   -0.0000 </r>
       <r>   18.4160    0.0000 </r>
       <r>   20.3651    0.0000 </r>
       <r>   20.8987    0.0000 </r>
       <r>   21.5132    0.0000 </r>
       <r>   21.6760    0.0000 </r>
       <r>   22.3136    0.0000 </r>
      </set>
      <set comment="kpoint 23">
       <r>    0.9624    1.0000 </r>
       <r>    3.2162    1.0000 </r>
       <r>    4.0396    1.0000 </r>
       <r>    4.1342    1.0000 </r>
       <r>    4.2215    1.0000 </r>
       <r>    4.3275    1.0000 </r>
       <r>    4.4862    1.0000 </r>
       <r>    6.6222    1.0000 </r>
       <r>    6.8845    1.0000 </r>
       <r>    6.9167    1.0000 </r>
       <r>    7.8987    1.0000 </r>
       <r>    8.1392    1.0000 </r>
       <r>    8.2640    1.0000 </r>
       <r>    8.3809    1.0000 </r>
       <r>    8.8901    1.0000 </r>
       <r>    9.2291    1.0000 </r>
       <r>    9.5767    1.0153 </r>
       <r>    9.7226    1.0294 </r>
       <r>   10.0339    0.1254 </r>
       <r>   10.1110   -0.0103 </r>
       <r>   10.4762   -0.0004 </r>
       <r>   11.1770   -0.0000 </r>
       <r>   13.4278   -0.0000 </r>
       <r>   14.3134   -0.0000 </r>
       <r>   18.6772    0.0000 </r>
       <r>   20.1806    0.0000 </r>
       <r>   20.8718    0.0000 </r>
       <r>   21.4716    0.0000 </r>
       <r>   21.5455    0.0000 </r>
       <r>   22.3055    0.0000 </r>
      </set>
      <set comment="kpoint 24">
       <r>    0.9298    1.0000 </r>
       <r>    3.2063    1.0000 </r>
       <r>    4.0752    1.0000 </r>
       <r>    4.0957    1.0000 </r>
       <r>    4.2603    1.0000 </r>
       <r>    4.3641    1.0000 </r>
       <r>    4.4253    1.0000 </r>
       <r>    6.4745    1.0000 </r>
       <r>    6.8664    1.0000 </r>
       <r>    7.0242    1.0000 </r>
       <r>    7.9813    1.0000 </r>
       <r>    8.0576    1.0000 </r>
       <r>    8.2841    1.0000 </r>
       <r>    8.4771    1.0000 </r>
       <r>    8.6941    1.0000 </r>
       <r>    8.9014    1.0000 </r>
       <r>    9.1188    1.0000 </r>
       <r>    9.9489    0.4300 </r>
       <r>   10.0875    0.0163 </r>
       <r>   10.3170   -0.0101 </r>
       <r>   11.2481   -0.0000 </r>
       <r>   11.3711   -0.0000 </r>
       <r>   13.2428   -0.0000 </r>
       <r>   14.1881   -0.0000 </r>
       <r>   18.8668    0.0000 </r>
       <r>   19.7223    0.0000 </r>
       <r>   20.8997    0.0000 </r>
       <r>   21.4428    0.0000 </r>
       <r>   21.6908    0.0000 </r>
       <r>   22.4914    0.0000 </r>
      </set>
      <set comment="kpoint 25">
       <r>    0.9698    1.0000 </r>
       <r>    3.2325    1.0000 </r>
       <r>    4.1456    1.0000 </r>
       <r>    4.2047    1.0000 </r>
       <r>    4.2135    1.0000 </r>
       <r>    4.3280    1.0000 </r>
       <r>    4.3409    1.0000 </r>
       <r>    6.4890    1.0000 </r>
       <r>    6.8703    1.0000 </r>
       <r>    7.0033    1.0000 </r>
       <r>    7.9045    1.0000 </r>
       <r>    8.1152    1.0000 </r>
       <r>    8.2227    1.0000 </r>
       <r>    8.5295    1.0000 </r>
       <r>    8.8201    1.0000 </r>
       <r>    9.2555    1.0000 </r>
       <r>    9.3682    1.0002 </r>
       <r>    9.6576    1.0327 </r>
       <r>    9.8300    0.8763 </r>
       <r>   10.0244    0.1521 </r>
       <r>   10.8751   -0.0000 </r>
       <r>   11.3503   -0.0000 </r>
       <r>   13.5799   -0.0000 </r>
       <r>   14.1713   -0.0000 </r>
       <r>   18.4774    0.0000 </r>
       <r>   19.9789    0.0000 </r>
       <r>   20.8626    0.0000 </r>
       <r>   21.6130    0.0000 </r>
       <r>   22.0546    0.0000 </r>
       <r>   22.4441    0.0000 </r>
      </set>
      <set comment="kpoint 26">
       <r>    1.3929    1.0000 </r>
       <r>    3.4975    1.0000 </r>
       <r>    4.2039    1.0000 </r>
       <r>    4.2532    1.0000 </r>
       <r>    4.5535    1.0000 </r>
       <r>    4.5953    1.0000 </r>
       <r>    4.8048    1.0000 </r>
       <r>    6.2885    1.0000 </r>
       <r>    6.9418    1.0000 </r>
       <r>    7.1808    1.0000 </r>
       <r>    7.6136    1.0000 </r>
       <r>    7.7010    1.0000 </r>
       <r>    7.7664    1.0000 </r>
       <r>    8.0901    1.0000 </r>
       <r>    8.3660    1.0000 </r>
       <r>    8.6533    1.0000 </r>
       <r>    8.8599    1.0000 </r>
       <r>    9.4344    1.0012 </r>
       <r>    9.5730    1.0146 </r>
       <r>   10.0049    0.2138 </r>
       <r>   10.4949   -0.0003 </r>
       <r>   11.4062   -0.0000 </r>
       <r>   14.3434   -0.0000 </r>
       <r>   15.3330   -0.0000 </r>
       <r>   18.4074    0.0000 </r>
       <r>   19.5782    0.0000 </r>
       <r>   20.0214    0.0000 </r>
       <r>   21.1800    0.0000 </r>
       <r>   22.2021    0.0000 </r>
       <r>   22.7744    0.0000 </r>
      </set>
      <set comment="kpoint 27">
       <r>    1.4901    1.0000 </r>
       <r>    3.5277    1.0000 </r>
       <r>    4.1074    1.0000 </r>
       <r>    4.2919    1.0000 </r>
       <r>    4.5120    1.0000 </r>
       <r>    4.6436    1.0000 </r>
       <r>    4.8434    1.0000 </r>
       <r>    6.4508    1.0000 </r>
       <r>    7.0491    1.0000 </r>
       <r>    7.0835    1.0000 </r>
       <r>    7.6093    1.0000 </r>
       <r>    7.7522    1.0000 </r>
       <r>    7.7549    1.0000 </r>
       <r>    8.2490    1.0000 </r>
       <r>    8.3492    1.0000 </r>
       <r>    8.8844    1.0000 </r>
       <r>    9.1347    1.0000 </r>
       <r>    9.2113    1.0000 </r>
       <r>    9.6065    1.0217 </r>
       <r>    9.8700    0.7496 </r>
       <r>   10.1793   -0.0354 </r>
       <r>   10.3836   -0.0032 </r>
       <r>   14.6310   -0.0000 </r>
       <r>   15.3462   -0.0000 </r>
       <r>   18.1822    0.0000 </r>
       <r>   19.6314    0.0000 </r>
       <r>   20.5281    0.0000 </r>
       <r>   21.1564    0.0000 </r>
       <r>   22.0821    0.0000 </r>
       <r>   22.7244    0.0000 </r>
      </set>
      <set comment="kpoint 28">
       <r>    1.4949    1.0000 </r>
       <r>    3.5402    1.0000 </r>
       <r>    4.3029    1.0000 </r>
       <r>    4.4244    1.0000 </r>
       <r>    4.4841    1.0000 </r>
       <r>    4.5957    1.0000 </r>
       <r>    4.6637    1.0000 </r>
       <r>    6.2137    1.0000 </r>
       <r>    6.9931    1.0000 </r>
       <r>    7.1657    1.0000 </r>
       <r>    7.6113    1.0000 </r>
       <r>    7.6895    1.0000 </r>
       <r>    7.7592    1.0000 </r>
       <r>    8.1734    1.0000 </r>
       <r>    8.3680    1.0000 </r>
       <r>    8.5151    1.0000 </r>
       <r>    9.0914    1.0000 </r>
       <r>    9.5328    1.0081 </r>
       <r>    9.6010    1.0205 </r>
       <r>    9.9182    0.5590 </r>
       <r>   10.1179   -0.0160 </r>
       <r>   10.8965   -0.0000 </r>
       <r>   14.5008   -0.0000 </r>
       <r>   15.3962    0.0000 </r>
       <r>   17.8481    0.0000 </r>
       <r>   20.0400    0.0000 </r>
       <r>   20.6915    0.0000 </r>
       <r>   21.0423    0.0000 </r>
       <r>   22.1250    0.0000 </r>
       <r>   22.4428    0.0000 </r>
      </set>
      <set comment="kpoint 29">
       <r>    1.4900    1.0000 </r>
       <r>    3.5180    1.0000 </r>
       <r>    4.1194    1.0000 </r>
       <r>    4.2934    1.0000 </r>
       <r>    4.5278    1.0000 </r>
       <r>    4.6014    1.0000 </r>
       <r>    4.8525    1.0000 </r>
       <r>    6.4542    1.0000 </r>
       <r>    7.0469    1.0000 </r>
       <r>    7.0849    1.0000 </r>
       <r>    7.6252    1.0000 </r>
       <r>    7.6931    1.0000 </r>
       <r>    7.7715    1.0000 </r>
       <r>    8.2631    1.0000 </r>
       <r>    8.3963    1.0000 </r>
       <r>    8.7567    1.0000 </r>
       <r>    9.2733    1.0000 </r>
       <r>    9.2825    1.0000 </r>
       <r>    9.6741    1.0348 </r>
       <r>    9.8856    0.6913 </r>
       <r>   10.1675   -0.0351 </r>
       <r>   10.2066   -0.0328 </r>
       <r>   14.5288   -0.0000 </r>
       <r>   15.4211    0.0000 </r>
       <r>   18.1566    0.0000 </r>
       <r>   19.8254    0.0000 </r>
       <r>   20.6672    0.0000 </r>
       <r>   21.0052    0.0000 </r>
       <r>   22.0592    0.0000 </r>
       <r>   22.3720    0.0000 </r>
      </set>
      <set comment="kpoint 30">
       <r>    1.3925    1.0000 </r>
       <r>    3.5017    1.0000 </r>
       <r>    4.1966    1.0000 </r>
       <r>    4.2497    1.0000 </r>
       <r>    4.5299    1.0000 </r>
       <r>    4.6542    1.0000 </r>
       <r>    4.7908    1.0000 </r>
       <r>    6.2585    1.0000 </r>
       <r>    6.9880    1.0000 </r>
       <r>    7.1654    1.0000 </r>
       <r>    7.5857    1.0000 </r>
       <r>    7.7037    1.0000 </r>
       <r>    7.7701    1.0000 </r>
       <r>    8.0856    1.0000 </r>
       <r>    8.3303    1.0000 </r>
       <r>    8.5439    1.0000 </r>
       <r>    8.8575    1.0000 </r>
       <r>    9.5617    1.0125 </r>
       <r>    9.6779    1.0351 </r>
       <r>   10.1235   -0.0200 </r>
       <r>   10.3219   -0.0094 </r>
       <r>   11.4053   -0.0000 </r>
       <r>   14.3546   -0.0000 </r>
       <r>   15.2936   -0.0000 </r>
       <r>   18.4039    0.0000 </r>
       <r>   19.6109    0.0000 </r>
       <r>   20.0348    0.0000 </r>
       <r>   21.1199    0.0000 </r>
       <r>   22.2068    0.0000 </r>
       <r>   22.7054    0.0000 </r>
      </set>
      <set comment="kpoint 31">
       <r>    1.4954    1.0000 </r>
       <r>    3.5442    1.0000 </r>
       <r>    4.3038    1.0000 </r>
       <r>    4.4362    1.0000 </r>
       <r>    4.4619    1.0000 </r>
       <r>    4.6018    1.0000 </r>
       <r>    4.6614    1.0000 </r>
       <r>    6.2399    1.0000 </r>
       <r>    6.9485    1.0000 </r>
       <r>    7.1811    1.0000 </r>
       <r>    7.6079    1.0000 </r>
       <r>    7.7394    1.0000 </r>
       <r>    7.7543    1.0000 </r>
       <r>    8.1733    1.0000 </r>
       <r>    8.4564    1.0000 </r>
       <r>    8.5632    1.0000 </r>
       <r>    9.0486    1.0000 </r>
       <r>    9.3686    1.0002 </r>
       <r>    9.5098    1.0055 </r>
       <r>    9.6640    1.0337 </r>
       <r>   10.4763   -0.0004 </r>
       <r>   10.8983   -0.0000 </r>
[...]
       <r>   10.1378   -0.0278 </r>
       <r>   10.3126   -0.0108 </r>
       <r>   10.6712   -0.0000 </r>
       <r>   11.4568   -0.0000 </r>
       <r>   11.6813   -0.0000 </r>
       <r>   16.1263    0.0000 </r>
       <r>   16.6772    0.0000 </r>
       <r>   17.0850    0.0000 </r>
       <r>   18.4046    0.0000 </r>
       <r>   26.1356    0.0000 </r>
       <r>   26.1611    0.0000 </r>
      </set>
      <set comment="kpoint 214">
       <r>    3.2704    1.0000 </r>
       <r>    3.4013    1.0000 </r>
       <r>    3.4919    1.0000 </r>
       <r>    3.9825    1.0000 </r>
       <r>    6.1167    1.0000 </r>
       <r>    6.3408    1.0000 </r>
       <r>    6.4179    1.0000 </r>
       <r>    6.5254    1.0000 </r>
       <r>    6.6132    1.0000 </r>
       <r>    6.8629    1.0000 </r>
       <r>    6.9820    1.0000 </r>
       <r>    7.1316    1.0000 </r>
       <r>    8.0875    1.0000 </r>
       <r>    8.1635    1.0000 </r>
       <r>    8.2300    1.0000 </r>
       <r>    8.5060    1.0000 </r>
       <r>    9.0044    1.0000 </r>
       <r>    9.5688    1.0138 </r>
       <r>    9.8014    0.9428 </r>
       <r>    9.9525    0.4145 </r>
       <r>   10.3392   -0.0071 </r>
       <r>   10.5376   -0.0001 </r>
       <r>   11.7125   -0.0000 </r>
       <r>   11.8970   -0.0000 </r>
       <r>   16.1464    0.0000 </r>
       <r>   16.2784    0.0000 </r>
       <r>   17.1309    0.0000 </r>
       <r>   18.4863    0.0000 </r>
       <r>   25.9706    0.0000 </r>
       <r>   26.1247    0.0000 </r>
      </set>
      <set comment="kpoint 215">
       <r>    3.2710    1.0000 </r>
       <r>    3.3893    1.0000 </r>
       <r>    3.5688    1.0000 </r>
       <r>    3.9399    1.0000 </r>
       <r>    6.0687    1.0000 </r>
       <r>    6.2271    1.0000 </r>
       <r>    6.5265    1.0000 </r>
       <r>    6.6389    1.0000 </r>
       <r>    6.6630    1.0000 </r>
       <r>    6.9112    1.0000 </r>
       <r>    6.9598    1.0000 </r>
       <r>    7.0389    1.0000 </r>
       <r>    8.0402    1.0000 </r>
       <r>    8.1299    1.0000 </r>
       <r>    8.3262    1.0000 </r>
       <r>    8.5965    1.0000 </r>
       <r>    8.9634    1.0000 </r>
       <r>    9.4841    1.0034 </r>
       <r>    9.5359    1.0085 </r>
       <r>   10.2376   -0.0264 </r>
       <r>   10.5483   -0.0001 </r>
       <r>   10.8888   -0.0000 </r>
       <r>   11.1353   -0.0000 </r>
       <r>   11.5784   -0.0000 </r>
       <r>   16.1234    0.0000 </r>
       <r>   16.7040    0.0000 </r>
       <r>   17.0506    0.0000 </r>
       <r>   18.4344    0.0000 </r>
       <r>   26.0892    0.0000 </r>
       <r>   26.2247    0.0000 </r>
      </set>
      <set comment="kpoint 216">
       <r>    3.1396    1.0000 </r>
       <r>    3.3191    1.0000 </r>
       <r>    3.4010    1.0000 </r>
       <r>    3.8334    1.0000 </r>
       <r>    6.1571    1.0000 </r>
       <r>    6.2990    1.0000 </r>
       <r>    6.4957    1.0000 </r>
       <r>    6.5008    1.0000 </r>
       <r>    6.6048    1.0000 </r>
       <r>    6.8834    1.0000 </r>
       <r>    6.9466    1.0000 </r>
       <r>    7.0720    1.0000 </r>
       <r>    8.5752    1.0000 </r>
       <r>    8.6520    1.0000 </r>
       <r>    8.9482    1.0000 </r>
       <r>    9.0362    1.0000 </r>
       <r>    9.3472    1.0001 </r>
       <r>    9.5759    1.0152 </r>
       <r>    9.6480    1.0310 </r>
       <r>   10.0348    0.1230 </r>
       <r>   10.4458   -0.0009 </r>
       <r>   10.4898   -0.0003 </r>
       <r>   10.8816   -0.0000 </r>
       <r>   11.0542   -0.0000 </r>
       <r>   15.9161    0.0000 </r>
       <r>   16.1196    0.0000 </r>
       <r>   16.6338    0.0000 </r>
       <r>   18.0705    0.0000 </r>
       <r>   25.9013    0.0000 </r>
       <r>   26.0908    0.0000 </r>
      </set>
     </set>
    </set>
   </array>
  </eigenvalues>
  <separator name="orbital magnetization" >
   <v name="MAGDIPOLOUT">      0.00000000      0.00000000      0.00000000</v>
  </separator>
  <dos>
   <i name="efermi">      9.93223903 </i>
   <total>
    <array>
     <dimension dim="1">gridpoints</dimension>
     <dimension dim="2">spin</dimension>
     <field>energy</field>
     <field>total</field>
     <field>integrated</field>
     <set>
      <set comment="spin 1">
       <r>    -1.5847     0.0000     0.0000 </r>
       <r>    -1.4850     0.0000     0.0000 </r>
       <r>    -1.3852     0.0000     0.0000 </r>
       <r>    -1.2855     0.0000     0.0000 </r>
       <r>    -1.1858    -0.0000    -0.0000 </r>
       <r>    -1.0860    -0.0000    -0.0000 </r>
       <r>    -0.9863    -0.0000    -0.0000 </r>
       <r>    -0.8865    -0.0000    -0.0000 </r>
       <r>    -0.7868    -0.0000    -0.0000 </r>
       <r>    -0.6870    -0.0000    -0.0000 </r>
       <r>    -0.5873    -0.0000    -0.0000 </r>
       <r>    -0.4876    -0.0000    -0.0000 </r>
       <r>    -0.3878    -0.0000    -0.0000 </r>
       <r>    -0.2881    -0.0000    -0.0000 </r>
       <r>    -0.1883    -0.0000    -0.0000 </r>
       <r>    -0.0886    -0.0000    -0.0000 </r>
       <r>     0.0112    -0.0002    -0.0000 </r>
       <r>     0.1109    -0.0009    -0.0001 </r>
       <r>     0.2106    -0.0025    -0.0004 </r>
       <r>     0.3104    -0.0020    -0.0006 </r>
       <r>     0.4101     0.0120     0.0006 </r>
       <r>     0.5099     0.0510     0.0057 </r>
       <r>     0.6096     0.0998     0.0157 </r>
       <r>     0.7093     0.1229     0.0279 </r>
       <r>     0.8091     0.1327     0.0412 </r>
       <r>     0.9088     0.1880     0.0599 </r>
       <r>     1.0086     0.2570     0.0855 </r>
       <r>     1.1083     0.2377     0.1092 </r>
       <r>     1.2081     0.1826     0.1275 </r>
       <r>     1.3078     0.2292     0.1503 </r>
       <r>     1.4075     0.3292     0.1832 </r>
       <r>     1.5073     0.3550     0.2186 </r>
       <r>     1.6070     0.3243     0.2509 </r>
       <r>     1.7068     0.3457     0.2854 </r>
       <r>     1.8065     0.4216     0.3274 </r>
       <r>     1.9063     0.4159     0.3689 </r>
       <r>     2.0060     0.3445     0.4033 </r>
       <r>     2.1057     0.3778     0.4410 </r>
       <r>     2.2055     0.5281     0.4936 </r>
       <r>     2.3052     0.6637     0.5598 </r>
       <r>     2.4050     0.7032     0.6300 </r>
       <r>     2.5047     0.6176     0.6916 </r>
       <r>     2.6044     0.4919     0.7407 </r>
       <r>     2.7042     0.5789     0.7984 </r>
       <r>     2.8039     0.8522     0.8834 </r>
       <r>     2.9037     0.9661     0.9798 </r>
       <r>     3.0034     0.8997     1.0695 </r>
       <r>     3.1032     1.0812     1.1773 </r>
       <r>     3.2029     1.5991     1.3368 </r>
       <r>     3.3026     2.0135     1.5377 </r>
       <r>     3.4024     2.2257     1.7596 </r>
       <r>     3.5021     2.3657     1.9956 </r>
       <r>     3.6019     2.4006     2.2350 </r>
       <r>     3.7016     2.5123     2.4856 </r>
       <r>     3.8014     2.8575     2.7706 </r>
       <r>     3.9011     3.3686     3.1066 </r>
       <r>     4.0008     4.0480     3.5104 </r>
       <r>     4.1006     4.7322     3.9824 </r>
       <r>     4.2003     5.1857     4.4996 </r>
       <r>     4.3001     5.4894     5.0471 </r>
       <r>     4.3998     5.8694     5.6326 </r>
       <r>     4.4995     6.3551     6.2664 </r>
       <r>     4.5993     6.5199     6.9167 </r>
       <r>     4.6990     6.1612     7.5313 </r>
       <r>     4.7988     5.7731     8.1071 </r>
       <r>     4.8985     5.7099     8.6766 </r>
       <r>     4.9983     5.6670     9.2419 </r>
       <r>     5.0980     5.2764     9.7681 </r>
       <r>     5.1977     4.6633    10.2333 </r>
       <r>     5.2975     4.2508    10.6573 </r>
       <r>     5.3972     4.2203    11.0782 </r>
       <r>     5.4970     4.3123    11.5083 </r>
       <r>     5.5967     4.2462    11.9319 </r>
       <r>     5.6965     4.1701    12.3478 </r>
       <r>     5.7962     4.4315    12.7898 </r>
       <r>     5.8959     5.0881    13.2973 </r>
       <r>     5.9957     5.9263    13.8884 </r>
       <r>     6.0954     6.7244    14.5591 </r>
       <r>     6.1952     7.1074    15.2680 </r>
       <r>     6.2949     6.7295    15.9392 </r>
       <r>     6.3946     5.9532    16.5330 </r>
       <r>     6.4944     5.5283    17.0844 </r>
       <r>     6.5941     5.5956    17.6425 </r>
       <r>     6.6939     6.1168    18.2526 </r>
       <r>     6.7936     7.5127    19.0020 </r>
       <r>     6.8934     9.6597    19.9654 </r>
       <r>     6.9931    11.4191    21.1044 </r>
       <r>     7.0928    11.5279    22.2542 </r>
       <r>     7.1926     9.9214    23.2438 </r>
       <r>     7.2923     8.1192    24.0536 </r>
       <r>     7.3921     7.4196    24.7937 </r>
       <r>     7.4918     7.6407    25.5558 </r>
       <r>     7.5916     8.0804    26.3617 </r>
       <r>     7.6913     8.4590    27.2054 </r>
       <r>     7.7910     8.5113    28.0544 </r>
       <r>     7.8908     7.6609    28.8185 </r>
       <r>     7.9905     6.3354    29.4504 </r>
       <r>     8.0903     5.6983    30.0188 </r>
       <r>     8.1900     5.5141    30.5687 </r>
       <r>     8.2897     4.8383    31.0513 </r>
       <r>     8.3895     3.8871    31.4390 </r>
       <r>     8.4892     3.3254    31.7707 </r>
       <r>     8.5890     3.4025    32.1101 </r>
       <r>     8.6887     4.2398    32.5330 </r>
       <r>     8.7885     5.6173    33.0932 </r>
       <r>     8.8882     6.8064    33.7721 </r>
       <r>     8.9879     7.2565    34.4959 </r>
       <r>     9.0877     6.9707    35.1912 </r>
       <r>     9.1874     6.3165    35.8212 </r>
       <r>     9.2872     5.7783    36.3975 </r>
       <r>     9.3869     5.4511    36.9412 </r>
       <r>     9.4867     5.3325    37.4731 </r>
       <r>     9.5864     5.7810    38.0497 </r>
       <r>     9.6861     6.3842    38.6865 </r>
       <r>     9.7859     6.0900    39.2939 </r>
       <r>     9.8856     5.0372    39.7964 </r>
       <r>     9.9854     4.2407    40.2193 </r>
       <r>    10.0851     4.0018    40.6185 </r>
       <r>    10.1848     3.8791    41.0054 </r>
       <r>    10.2846     3.5480    41.3593 </r>
       <r>    10.3843     3.2456    41.6830 </r>
       <r>    10.4841     3.1622    41.9984 </r>
       <r>    10.5838     3.0200    42.2996 </r>
       <r>    10.6836     2.6960    42.5685 </r>
       <r>    10.7833     2.2777    42.7957 </r>
       <r>    10.8830     1.7667    42.9719 </r>
       <r>    10.9828     1.3174    43.1033 </r>
       <r>    11.0825     1.1951    43.2225 </r>
       <r>    11.1823     1.2833    43.3505 </r>
       <r>    11.2820     1.2340    43.4736 </r>
       <r>    11.3818     1.0645    43.5798 </r>
       <r>    11.4815     0.9371    43.6732 </r>
       <r>    11.5812     0.8461    43.7576 </r>
       <r>    11.6810     0.7997    43.8374 </r>
       <r>    11.7807     0.7372    43.9109 </r>
       <r>    11.8805     0.5878    43.9696 </r>
       <r>    11.9802     0.5297    44.0224 </r>
       <r>    12.0799     0.6793    44.0901 </r>
       <r>    12.1797     0.8334    44.1733 </r>
       <r>    12.2794     0.8457    44.2576 </r>
       <r>    12.3792     0.8034    44.3378 </r>
       <r>    12.4789     0.7717    44.4147 </r>
       <r>    12.5787     0.7830    44.4928 </r>
       <r>    12.6784     0.8510    44.5777 </r>
       <r>    12.7781     0.8729    44.6648 </r>
       <r>    12.8779     0.8223    44.7468 </r>
       <r>    12.9776     0.8299    44.8296 </r>
       <r>    13.0774     0.9541    44.9247 </r>
       <r>    13.1771     1.1303    45.0375 </r>
       <r>    13.2769     1.2980    45.1669 </r>
       <r>    13.3766     1.3872    45.3053 </r>
       <r>    13.4763     1.3620    45.4411 </r>
       <r>    13.5761     1.2965    45.5705 </r>
       <r>    13.6758     1.2779    45.6979 </r>
       <r>    13.7756     1.3261    45.8302 </r>
       <r>    13.8753     1.2832    45.9582 </r>
       <r>    13.9750     0.9991    46.0578 </r>
       <r>    14.0748     0.6878    46.1264 </r>
       <r>    14.1745     0.6108    46.1874 </r>
       <r>    14.2743     0.6553    46.2527 </r>
       <r>    14.3740     0.6834    46.3209 </r>
       <r>    14.4738     0.8020    46.4009 </r>
       <r>    14.5735     1.0366    46.5043 </r>
       <r>    14.6732     1.2254    46.6265 </r>
       <r>    14.7730     1.2138    46.7476 </r>
       <r>    14.8727     1.0369    46.8510 </r>
       <r>    14.9725     0.8099    46.9318 </r>
       <r>    15.0722     0.5582    46.9875 </r>
       <r>    15.1720     0.4239    47.0297 </r>
       <r>    15.2717     0.5638    47.0860 </r>
       <r>    15.3714     0.8374    47.1695 </r>
       <r>    15.4712     0.9855    47.2678 </r>
       <r>    15.5709     0.9008    47.3576 </r>
       <r>    15.6707     0.6022    47.4177 </r>
       <r>    15.7704     0.2914    47.4468 </r>
       <r>    15.8701     0.2906    47.4758 </r>
       <r>    15.9699     0.6572    47.5413 </r>
       <r>    16.0696     1.1578    47.6568 </r>
       <r>    16.1694     1.6048    47.8169 </r>
       <r>    16.2691     1.8235    47.9987 </r>
       <r>    16.3689     1.6154    48.1599 </r>
       <r>    16.4686     1.2156    48.2811 </r>
       <r>    16.5683     1.0659    48.3874 </r>
       <r>    16.6681     1.0982    48.4970 </r>
       <r>    16.7678     1.0921    48.6059 </r>
       <r>    16.8676     1.1239    48.7180 </r>
       <r>    16.9673     1.2877    48.8464 </r>
       <r>    17.0671     1.4978    48.9958 </r>
       <r>    17.1668     1.4854    49.1440 </r>
       <r>    17.2665     1.1673    49.2604 </r>
       <r>    17.3663     0.8871    49.3489 </r>
       <r>    17.4660     0.9562    49.4443 </r>
       <r>    17.5658     1.2729    49.5712 </r>
       <r>    17.6655     1.4457    49.7154 </r>
       <r>    17.7652     1.3298    49.8481 </r>
       <r>    17.8650     1.1751    49.9653 </r>
       <r>    17.9647     1.1431    50.0793 </r>
       <r>    18.0645     1.1932    50.1983 </r>
       <r>    18.1642     1.2092    50.3189 </r>
       <r>    18.2640     1.0910    50.4277 </r>
       <r>    18.3637     0.9628    50.5238 </r>
       <r>    18.4634     0.9466    50.6182 </r>
       <r>    18.5632     0.9998    50.7179 </r>
       <r>    18.6629     1.1673    50.8343 </r>
       <r>    18.7627     1.4258    50.9765 </r>
       <r>    18.8624     1.4822    51.1244 </r>
       <r>    18.9622     1.2643    51.2505 </r>
       <r>    19.0619     1.1383    51.3640 </r>
       <r>    19.1616     1.2311    51.4868 </r>
       <r>    19.2614     1.2669    51.6132 </r>
       <r>    19.3611     1.1997    51.7328 </r>
       <r>    19.4609     1.2820    51.8607 </r>
       <r>    19.5606     1.4804    52.0084 </r>
       <r>    19.6604     1.4676    52.1548 </r>
       <r>    19.7601     1.2685    52.2813 </r>
       <r>    19.8598     1.2014    52.4011 </r>
       <r>    19.9596     1.3024    52.5310 </r>
       <r>    20.0593     1.4338    52.6740 </r>
       <r>    20.1591     1.5484    52.8285 </r>
       <r>    20.2588     1.5224    52.9803 </r>
       <r>    20.3585     1.2381    53.1038 </r>
       <r>    20.4583     0.8830    53.1919 </r>
       <r>    20.5580     0.8551    53.2771 </r>
       <r>    20.6578     1.2602    53.4028 </r>
       <r>    20.7575     1.7555    53.5779 </r>
       <r>    20.8573     2.0391    53.7813 </r>
       <r>    20.9570     2.1309    53.9939 </r>
       <r>    21.0567     2.0950    54.2028 </r>
       <r>    21.1565     1.9192    54.3942 </r>
       <r>    21.2562     1.7143    54.5652 </r>
       <r>    21.3560     1.6481    54.7296 </r>
       <r>    21.4557     1.7445    54.9036 </r>
       <r>    21.5555     1.8281    55.0859 </r>
       <r>    21.6552     1.7039    55.2559 </r>
       <r>    21.7549     1.4226    55.3978 </r>
       <r>    21.8547     1.2012    55.5176 </r>
       <r>    21.9544     1.2041    55.6377 </r>
       <r>    22.0542     1.4560    55.7829 </r>
       <r>    22.1539     1.8103    55.9635 </r>
       <r>    22.2536     2.0066    56.1636 </r>
       <r>    22.3534     2.0113    56.3642 </r>
       <r>    22.4531     2.0503    56.5687 </r>
       <r>    22.5529     2.1193    56.7801 </r>
       <r>    22.6526     2.0973    56.9893 </r>
       <r>    22.7524     1.9833    57.1871 </r>
       <r>    22.8521     1.7136    57.3581 </r>
       <r>    22.9518     1.4174    57.4994 </r>
       <r>    23.0516     1.3362    57.6327 </r>
       <r>    23.1513     1.4034    57.7727 </r>
       <r>    23.2511     1.4293    57.9152 </r>
       <r>    23.3508     1.4246    58.0573 </r>
       <r>    23.4506     1.4756    58.2045 </r>
       <r>    23.5503     1.4937    58.3535 </r>
       <r>    23.6500     1.3682    58.4900 </r>
       <r>    23.7498     1.1577    58.6054 </r>
       <r>    23.8495     0.9511    58.7003 </r>
       <r>    23.9493     0.8978    58.7899 </r>
       <r>    24.0490     1.0391    58.8935 </r>
       <r>    24.1487     1.0908    59.0023 </r>
       <r>    24.2485     0.8593    59.0880 </r>
       <r>    24.3482     0.5574    59.1436 </r>
       <r>    24.4480     0.4980    59.1933 </r>
       <r>    24.5477     0.5938    59.2525 </r>
       <r>    24.6475     0.5203    59.3044 </r>
       <r>    24.7472     0.3339    59.3377 </r>
       <r>    24.8469     0.2937    59.3670 </r>
       <r>    24.9467     0.3872    59.4056 </r>
       <r>    25.0464     0.4805    59.4536 </r>
       <r>    25.1462     0.5335    59.5068 </r>
       <r>    25.2459     0.5483    59.5615 </r>
       <r>    25.3457     0.4857    59.6099 </r>
       <r>    25.4454     0.3198    59.6418 </r>
       <r>    25.5451     0.1503    59.6568 </r>
       <r>    25.6449     0.0723    59.6640 </r>
       <r>    25.7446     0.0724    59.6712 </r>
       <r>    25.8444     0.1710    59.6883 </r>
       <r>    25.9441     0.3897    59.7271 </r>
       <r>    26.0438     0.6374    59.7907 </r>
       <r>    26.1436     0.7848    59.8690 </r>
       <r>    26.2433     0.7259    59.9414 </r>
       <r>    26.3431     0.4585    59.9871 </r>
       <r>    26.4428     0.1593    60.0030 </r>
       <r>    26.5426     0.0031    60.0033 </r>
       <r>    26.6423    -0.0219    60.0011 </r>
       <r>    26.7420    -0.0093    60.0002 </r>
       <r>    26.8418    -0.0019    60.0000 </r>
       <r>    26.9415    -0.0002    60.0000 </r>
       <r>    27.0413    -0.0000    60.0000 </r>
       <r>    27.1410    -0.0000    60.0000 </r>
       <r>    27.2408    -0.0000    60.0000 </r>
       <r>    27.3405    -0.0000    60.0000 </r>
       <r>    27.4402    -0.0000    60.0000 </r>
       <r>    27.5400    -0.0000    60.0000 </r>
       <r>    27.6397    -0.0000    60.0000 </r>
       <r>    27.7395     0.0000    60.0000 </r>
       <r>    27.8392     0.0000    60.0000 </r>
       <r>    27.9389     0.0000    60.0000 </r>
       <r>    28.0387     0.0000    60.0000 </r>
       <r>    28.1384     0.0000    60.0000 </r>
       <r>    28.2382     0.0000    60.0000 </r>
       <r>    28.3379     0.0000    60.0000 </r>
      </set>
     </set>
    </array>
   </total>
  </dos>
 </calculation>
 <structure name="finalpos" >
  <crystal>
   <varray name="basis" >
    <v>       3.80835153       0.00000000       0.00000000 </v>
    <v>       0.00000000       3.80835153       0.00000000 </v>
    <v>       0.00000000       0.00000000       3.80835153 </v>
   </varray>
   <i name="volume">     55.23458381 </i>
   <varray name="rec_basis" >
    <v>       0.26258080       0.00000000       0.00000000 </v>
    <v>       0.00000000       0.26258080       0.00000000 </v>
    <v>       0.00000000       0.00000000       0.26258080 </v>
   </varray>
  </crystal>
  <varray name="positions" >
   <v>       0.00000000       0.00000000       0.00000000 </v>
   <v>       0.50000000       0.50000000       0.00000000 </v>
   <v>       0.50000000       0.00000000       0.50000000 </v>
   <v>       0.00000000       0.50000000       0.50000000 </v>
  </varray>
 </structure>
</modeling>
