unknown system                          
   1.00000000000000     
     3.635000    0.000000    0.000000
     0.000000    3.635000    0.000000
     0.000000    0.000000    3.635000
   Cu
     4
Direct
  0.000000  0.000000  0.000000
  0.500000  0.500000  0.000000
  0.500000  0.000000  0.500000
  0.000000  0.500000  0.500000
 
   32   32   32
  844.99      796.36      665.89      491.82      317.50      175.92      82.805      36.340      20.807      15.166    
  11.523      9.3165      8.0618      7.4279      7.0276      6.6576      6.4813      6.6576      7.0276      7.4279    
  8.0618      9.3165      11.523      15.166      20.807      36.340      82.805      175.92      317.50      491.82    
  665.89      796.36      796.36      750.33      626.84      462.14      297.45      164.21      77.253      34.488    
  20.408      14.968      11.455      9.3393      8.1431      7.5423      7.1669      6.8218      6.6576      6.8218    
  7.1669      7.5423      8.1431      9.3393      11.455      14.968      20.408      34.488      77.253      164.21    
  297.45      462.14      626.84      750.33      665.89      626.84      522.11      382.70      244.08      133.38    
  62.981      29.926      19.373      14.425      11.271      9.3945      8.3369      7.7996      7.4646      7.1669    
  7.0276      7.1669      7.4646      7.7996      8.3369      9.3945      11.271      14.425      19.373      29.926    
  62.981      133.38      244.08      382.70      522.11      626.84      491.82      462.14      382.70      277.54    
  174.37      94.206      45.776      24.885      17.915      13.672      11.038      9.4845      8.5929      8.1109    
  7.7996      7.5423      7.4279      7.5423      7.7996      8.1109      8.5929      9.4845      11.038      13.672    
  17.915      24.885      45.776      94.206      174.37      277.54      382.70      462.14      317.50      297.45    
  244.08      174.37      107.83      58.701      31.583      21.084      16.234      12.885      10.862      9.6770    
  8.9861      8.5929      8.3369      8.1431      8.0618      8.1431      8.3369      8.5929      8.9861      9.6770    
  10.862      12.885      16.234      21.084      31.583      58.701      107.83      174.37      244.08      297.45    
  175.92      164.21      133.38      94.206      58.701      34.777      23.247      18.240      14.618      12.239    
  10.855      10.085      9.6770      9.4845      9.3945      9.3393      9.3165      9.3393      9.3945      9.4845    
  9.6770      10.085      10.855      12.239      14.618      18.240      23.247      34.777      58.701      94.206    
  133.38      164.21      82.805      77.253      62.981      45.776      31.583      23.247      18.991      15.695    
  13.319      11.875      11.136      10.855      10.862      11.038      11.271      11.455      11.523      11.455    
  11.271      11.038      10.862      10.855      11.136      11.875      13.319      15.695      18.991      23.247    
  31.583      45.776      62.981      77.253      36.340      34.488      29.926      24.885      21.084      18.240    
  15.695      13.737      12.495      11.917      11.875      12.239      12.885      13.672      14.425      14.968    
  15.166      14.968      14.425      13.672      12.885      12.239      11.875      11.917      12.495      13.737    
  15.695      18.240      21.084      24.885      29.926      34.488      20.807      20.408      19.373      17.915    
  16.234      14.618      13.319      12.495      12.215      12.495      13.319      14.618      16.234      17.915    
  19.373      20.408      20.807      20.408      19.373      17.915      16.234      14.618      13.319      12.495    
  12.215      12.495      13.319      14.618      16.234      17.915      19.373      20.408      15.166      14.968    
  14.425      13.672      12.885      12.239      11.875      11.917      12.495      13.737      15.695      18.240    
  21.084      24.885      29.926      34.488      36.340      34.488      29.926      24.885      21.084      18.240    
  15.695      13.737      12.495      11.917      11.875      12.239      12.885      13.672      14.425      14.968    
  11.523      11.455      11.271      11.038      10.862      10.855      11.136      11.875      13.319      15.695    
  18.991      23.247      31.583      45.776      62.981      77.253      82.805      77.253      62.981      45.776    
  31.583      23.247      18.991      15.695      13.319      11.875      11.136      10.855      10.862      11.038    
  11.271      11.455      9.3165      9.3393      9.3945      9.4845      9.6770      10.085      10.855      12.239    
  14.618      18.240      23.247      34.777      58.701      94.206      133.38      164.21      175.92      164.21    
  133.38      94.206      58.701      34.777      23.247      18.240      14.618      12.239      10.855      10.085    
  9.6770      9.4845      9.3945      9.3393      8.0618      8.1431      8.3369      8.5929      8.9861      9.6770    
  10.862      12.885      16.234      21.084      31.583      58.701      107.83      174.37      244.08      297.45    
  317.50      297.45      244.08      174.37      107.83      58.701      31.583      21.084      16.234      12.885    
  10.862      9.6770      8.9861      8.5929      8.3369      8.1431      7.4279      7.5423      7.7996      8.1109    
  8.5929      9.4845      11.038      13.672      17.915      24.885      45.776      94.206      174.37      277.54    
  382.70      462.14      491.82      462.14      382.70      277.54      174.37      94.206      45.776      24.885    
  17.915      13.672      11.038      9.4845      8.5929      8.1109      7.7996      7.5423      7.0276      7.1669    
  7.4646      7.7996      8.3369      9.3945      11.271      14.425      19.373      29.926      62.981      133.38    
  244.08      382.70      522.11      626.84      665.89      626.84      522.11      382.70      244.08      133.38    
  62.981      29.926      19.373      14.425      11.271      9.3945      8.3369      7.7996      7.4646      7.1669    
  6.6576      6.8218      7.1669      7.5423      8.1431      9.3393      11.455      14.968      20.408      34.488    
  77.253      164.21      297.45      462.14      626.84      750.33      796.36      750.33      626.84      462.14    
  297.45      164.21      77.253      34.488      20.408      14.968      11.455      9.3393      8.1431      7.5423    
  7.1669      6.8218      6.4813      6.6576      7.0276      7.4279      8.0618      9.3165      11.523      15.166    
  20.807      36.340      82.805      175.92      317.50      491.82      665.89      796.36      844.99      796.36    
  665.89      491.82      317.50      175.92      82.805      36.340      20.807      15.166      11.523      9.3165    
  8.0618      7.4279      7.0276      6.6576      6.6576      6.8218      7.1669      7.5423      8.1431      9.3393    
  11.455      14.968      20.408      34.488      77.253      164.21      297.45      462.14      626.84      750.33    
  796.36      750.33      626.84      462.14      297.45      164.21      77.253      34.488      20.408      14.968    
  11.455      9.3393      8.1431      7.5423      7.1669      6.8218      7.0276      7.1669      7.4646      7.7996    
  8.3369      9.3945      11.271      14.425      19.373      29.926      62.981      133.38      244.08      382.70    
  522.11      626.84      665.89      626.84      522.11      382.70      244.08      133.38      62.981      29.926    
  19.373      14.425      11.271      9.3945      8.3369      7.7996      7.4646      7.1669      7.4279      7.5423    
  7.7996      8.1109      8.5929      9.4845      11.038      13.672      17.915      24.885      45.776      94.206    
  174.37      277.54      382.70      462.14      491.82      462.14      382.70      277.54      174.37      94.206    
  45.776      24.885      17.915      13.672      11.038      9.4845      8.5929      8.1109      7.7996      7.5423    
  8.0618      8.1431      8.3369      8.5929      8.9861      9.6770      10.862      12.885      16.234      21.084    
  31.583      58.701      107.83      174.37      244.08      297.45      317.50      297.45      244.08      174.37    
  107.83      58.701      31.583      21.084      16.234      12.885      10.862      9.6770      8.9861      8.5929    
  8.3369      8.1431      9.3165      9.3393      9.3945      9.4845      9.6770      10.085      10.855      12.239    
  14.618      18.240      23.247      34.777      58.701      94.206      133.38      164.21      175.92      164.21    
  133.38      94.206      58.701      34.777      23.247      18.240      14.618      12.239      10.855      10.085    
  9.6770      9.4845      9.3945      9.3393      11.523      11.455      11.271      11.038      10.862      10.855    
  11.136      11.875      13.319      15.695      18.991      23.247      31.583      45.776      62.981      77.253    
  82.805      77.253      62.981      45.776      31.583      23.247      18.991      15.695      13.319      11.875    
  11.136      10.855      10.862      11.038      11.271      11.455      15.166      14.968      14.425      13.672    
  12.885      12.239      11.875      11.917      12.495      13.737      15.695      18.240      21.084      24.885    
  29.926      34.488      36.340      34.488      29.926      24.885      21.084      18.240      15.695      13.737    
  12.495      11.917      11.875      12.239      12.885      13.672      14.425      14.968      20.807      20.408    
  19.373      17.915      16.234      14.618      13.319      12.495      12.215      12.495      13.319      14.618    
  16.234      17.915      19.373      20.408      20.807      20.408      19.373      17.915      16.234      14.618    
  13.319      12.495      12.215      12.495      13.319      14.618      16.234      17.915      19.373      20.408    
  36.340      34.488      29.926      24.885      21.084      18.240      15.695      13.737      12.495      11.917    
  11.875      12.239      12.885      13.672      14.425      14.968      15.166      14.968      14.425      13.672    
  12.885      12.239      11.875      11.917      12.495      13.737      15.695      18.240      21.084      24.885    
  29.926      34.488      82.805      77.253      62.981      45.776      31.583      23.247      18.991      15.695    
  13.319      11.875      11.136      10.855      10.862      11.038      11.271      11.455      11.523      11.455    
  11.271      11.038      10.862      10.855      11.136      11.875      13.319      15.695      18.991      23.247    
  31.583      45.776      62.981      77.253      175.92      164.21      133.38      94.206      58.701      34.777    
  23.247      18.240      14.618      12.239      10.855      10.085      9.6770      9.4845      9.3945      9.3393    
  9.3165      9.3393      9.3945      9.4845      9.6770      10.085      10.855      12.239      14.618      18.240    
  23.247      34.777      58.701      94.206      133.38      164.21      317.50      297.45      244.08      174.37    
  107.83      58.701      31.583      21.084      16.234      12.885      10.862      9.6770      8.9861      8.5929    
  8.3369      8.1431      8.0618      8.1431      8.3369      8.5929      8.9861      9.6770      10.862      12.885    
  16.234      21.084      31.583      58.701      107.83      174.37      244.08      297.45      491.82      462.14    
  382.70      277.54      174.37      94.206      45.776      24.885      17.915      13.672      11.038      9.4845    
  8.5929      8.1109      7.7996      7.5423      7.4279      7.5423      7.7996      8.1109      8.5929      9.4845    
  11.038      13.672      17.915      24.885      45.776      94.206      174.37      277.54      382.70      462.14    
  665.89      626.84      522.11      382.70      244.08      133.38      62.981      29.926      19.373      14.425    
  11.271      9.3945      8.3369      7.7996      7.4646      7.1669      7.0276      7.1669      7.4646      7.7996    
  8.3369      9.3945      11.271      14.425      19.373      29.926      62.981      133.38      244.08      382.70    
  522.11      626.84      796.36      750.33      626.84      462.14      297.45      164.21      77.253      34.488    
  20.408      14.968      11.455      9.3393      8.1431      7.5423      7.1669      6.8218      6.6576      6.8218    
  7.1669      7.5423      8.1431      9.3393      11.455      14.968      20.408      34.488      77.253      164.21    
  297.45      462.14      626.84      750.33      796.36      750.33      626.84      462.14      297.45      164.21    
  77.253      34.488      20.408      14.968      11.455      9.3393      8.1431      7.5423      7.1669      6.8218    
  6.6576      6.8218      7.1669      7.5423      8.1431      9.3393      11.455      14.968      20.408      34.488    
  77.253      164.21      297.45      462.14      626.84      750.33      750.33      706.77      589.89      434.09    
  278.56      153.23      72.111      32.807      20.036      14.775      11.387      9.3593      8.2185      7.6489    
  7.2966      6.9748      6.8218      6.9748      7.2966      7.6489      8.2185      9.3593      11.387      14.775    
  20.036      32.807      72.111      153.23      278.56      434.09      589.89      706.77      626.84      589.89    
  490.81      359.04      228.30      124.39      58.925      28.679      19.048      14.246      11.207      9.4085    
  8.3993      7.8891      7.5742      7.2966      7.1669      7.2966      7.5742      7.8891      8.3993      9.4085    
  11.207      14.246      19.048      28.679      58.925      124.39      228.30      359.04      490.81      589.89    
  462.14      434.09      359.04      259.84      162.81      87.876      43.117      24.137      17.621      13.515    
  10.980      9.4917      8.6409      8.1826      7.8891      7.6489      7.5423      7.6489      7.8891      8.1826    
  8.6409      9.4917      10.980      13.515      17.621      24.137      43.117      87.876      162.81      259.84    
  359.04      434.09      297.45      278.56      228.30      162.81      100.57      55.000      30.198      20.673    
  15.984      12.753      10.809      9.6745      9.0151      8.6409      8.3993      8.2185      8.1431      8.2185    
  8.3993      8.6409      9.0151      9.6745      10.809      12.753      15.984      20.673      30.198      55.000    
  100.57      162.81      228.30      278.56      164.21      153.23      124.39      87.876      55.000      33.098    
  22.671      17.922      14.418      12.129      10.801      10.064      9.6745      9.4917      9.4085      9.3593    
  9.3393      9.3593      9.4085      9.4917      9.6745      10.064      10.801      12.129      14.418      17.922    
  22.671      33.098      55.000      87.876      124.39      153.23      77.253      72.111      58.925      43.117    
  30.198      22.671      18.649      15.453      13.164      11.778      11.070      10.801      10.809      10.980    
  11.207      11.387      11.455      11.387      11.207      10.980      10.809      10.801      11.070      11.778    
  13.164      15.453      18.649      22.671      30.198      43.117      58.925      72.111      34.488      32.807    
  28.679      24.137      20.673      17.922      15.453      13.565      12.371      11.817      11.778      12.129    
  12.753      13.515      14.246      14.775      14.968      14.775      14.246      13.515      12.753      12.129    
  11.778      11.817      12.371      13.565      15.453      17.922      20.673      24.137      28.679      32.807    
  20.408      20.036      19.048      17.621      15.984      14.418      13.164      12.371      12.102      12.371    
  13.164      14.418      15.984      17.621      19.048      20.036      20.408      20.036      19.048      17.621    
  15.984      14.418      13.164      12.371      12.102      12.371      13.164      14.418      15.984      17.621    
  19.048      20.036      14.968      14.775      14.246      13.515      12.753      12.129      11.778      11.817    
  12.371      13.565      15.453      17.922      20.673      24.137      28.679      32.807      34.488      32.807    
  28.679      24.137      20.673      17.922      15.453      13.565      12.371      11.817      11.778      12.129    
  12.753      13.515      14.246      14.775      11.455      11.387      11.207      10.980      10.809      10.801    
  11.070      11.778      13.164      15.453      18.649      22.671      30.198      43.117      58.925      72.111    
  77.253      72.111      58.925      43.117      30.198      22.671      18.649      15.453      13.164      11.778    
  11.070      10.801      10.809      10.980      11.207      11.387      9.3393      9.3593      9.4085      9.4917    
  9.6745      10.064      10.801      12.129      14.418      17.922      22.671      33.098      55.000      87.876    
  124.39      153.23      164.21      153.23      124.39      87.876      55.000      33.098      22.671      17.922    
  14.418      12.129      10.801      10.064      9.6745      9.4917      9.4085      9.3593      8.1431      8.2185    
  8.3993      8.6409      9.0151      9.6745      10.809      12.753      15.984      20.673      30.198      55.000    
  100.57      162.81      228.30      278.56      297.45      278.56      228.30      162.81      100.57      55.000    
  30.198      20.673      15.984      12.753      10.809      9.6745      9.0151      8.6409      8.3993      8.2185    
  7.5423      7.6489      7.8891      8.1826      8.6409      9.4917      10.980      13.515      17.621      24.137    
  43.117      87.876      162.81      259.84      359.04      434.09      462.14      434.09      359.04      259.84    
  162.81      87.876      43.117      24.137      17.621      13.515      10.980      9.4917      8.6409      8.1826    
  7.8891      7.6489      7.1669      7.2966      7.5742      7.8891      8.3993      9.4085      11.207      14.246    
  19.048      28.679      58.925      124.39      228.30      359.04      490.81      589.89      626.84      589.89    
  490.81      359.04      228.30      124.39      58.925      28.679      19.048      14.246      11.207      9.4085    
  8.3993      7.8891      7.5742      7.2966      6.8218      6.9748      7.2966      7.6489      8.2185      9.3593    
  11.387      14.775      20.036      32.807      72.111      153.23      278.56      434.09      589.89      706.77    
  750.33      706.77      589.89      434.09      278.56      153.23      72.111      32.807      20.036      14.775    
  11.387      9.3593      8.2185      7.6489      7.2966      6.9748      6.6576      6.8218      7.1669      7.5423    
  8.1431      9.3393      11.455      14.968      20.408      34.488      77.253      164.21      297.45      462.14    
  626.84      750.33      796.36      750.33      626.84      462.14      297.45      164.21      77.253      34.488    
  20.408      14.968      11.455      9.3393      8.1431      7.5423      7.1669      6.8218      6.8218      6.9748    
  7.2966      7.6489      8.2185      9.3593      11.387      14.775      20.036      32.807      72.111      153.23    
  278.56      434.09      589.89      706.77      750.33      706.77      589.89      434.09      278.56      153.23    
  72.111      32.807      20.036      14.775      11.387      9.3593      8.2185      7.6489      7.2966      6.9748    
  7.1669      7.2966      7.5742      7.8891      8.3993      9.4085      11.207      14.246      19.048      28.679    
  58.925      124.39      228.30      359.04      490.81      589.89      626.84      589.89      490.81      359.04    
  228.30      124.39      58.925      28.679      19.048      14.246      11.207      9.4085      8.3993      7.8891    
  7.5742      7.2966      7.5423      7.6489      7.8891      8.1826      8.6409      9.4917      10.980      13.515    
  17.621      24.137      43.117      87.876      162.81      259.84      359.04      434.09      462.14      434.09    
  359.04      259.84      162.81      87.876      43.117      24.137      17.621      13.515      10.980      9.4917    
  8.6409      8.1826      7.8891      7.6489      8.1431      8.2185      8.3993      8.6409      9.0151      9.6745    
  10.809      12.753      15.984      20.673      30.198      55.000      100.57      162.81      228.30      278.56    
  297.45      278.56      228.30      162.81      100.57      55.000      30.198      20.673      15.984      12.753    
  10.809      9.6745      9.0151      8.6409      8.3993      8.2185      9.3393      9.3593      9.4085      9.4917    
  9.6745      10.064      10.801      12.129      14.418      17.922      22.671      33.098      55.000      87.876    
  124.39      153.23      164.21      153.23      124.39      87.876      55.000      33.098      22.671      17.922    
  14.418      12.129      10.801      10.064      9.6745      9.4917      9.4085      9.3593      11.455      11.387    
  11.207      10.980      10.809      10.801      11.070      11.778      13.164      15.453      18.649      22.671    
  30.198      43.117      58.925      72.111      77.253      72.111      58.925      43.117      30.198      22.671    
  18.649      15.453      13.164      11.778      11.070      10.801      10.809      10.980      11.207      11.387    
  14.968      14.775      14.246      13.515      12.753      12.129      11.778      11.817      12.371      13.565    
  15.453      17.922      20.673      24.137      28.679      32.807      34.488      32.807      28.679      24.137    
  20.673      17.922      15.453      13.565      12.371      11.817      11.778      12.129      12.753      13.515    
  14.246      14.775      20.408      20.036      19.048      17.621      15.984      14.418      13.164      12.371    
  12.102      12.371      13.164      14.418      15.984      17.621      19.048      20.036      20.408      20.036    
  19.048      17.621      15.984      14.418      13.164      12.371      12.102      12.371      13.164      14.418    
  15.984      17.621      19.048      20.036      34.488      32.807      28.679      24.137      20.673      17.922    
  15.453      13.565      12.371      11.817      11.778      12.129      12.753      13.515      14.246      14.775    
  14.968      14.775      14.246      13.515      12.753      12.129      11.778      11.817      12.371      13.565    
  15.453      17.922      20.673      24.137      28.679      32.807      77.253      72.111      58.925      43.117    
  30.198      22.671      18.649      15.453      13.164      11.778      11.070      10.801      10.809      10.980    
  11.207      11.387      11.455      11.387      11.207      10.980      10.809      10.801      11.070      11.778    
  13.164      15.453      18.649      22.671      30.198      43.117      58.925      72.111      164.21      153.23    
  124.39      87.876      55.000      33.098      22.671      17.922      14.418      12.129      10.801      10.064    
  9.6745      9.4917      9.4085      9.3593      9.3393      9.3593      9.4085      9.4917      9.6745      10.064    
  10.801      12.129      14.418      17.922      22.671      33.098      55.000      87.876      124.39      153.23    
  297.45      278.56      228.30      162.81      100.57      55.000      30.198      20.673      15.984      12.753    
  10.809      9.6745      9.0151      8.6409      8.3993      8.2185      8.1431      8.2185      8.3993      8.6409    
  9.0151      9.6745      10.809      12.753      15.984      20.673      30.198      55.000      100.57      162.81    
  228.30      278.56      462.14      434.09      359.04      259.84      162.81      87.876      43.117      24.137    
  17.621      13.515      10.980      9.4917      8.6409      8.1826      7.8891      7.6489      7.5423      7.6489    
  7.8891      8.1826      8.6409      9.4917      10.980      13.515      17.621      24.137      43.117      87.876    
  162.81      259.84      359.04      434.09      626.84      589.89      490.81      359.04      228.30      124.39    
  58.925      28.679      19.048      14.246      11.207      9.4085      8.3993      7.8891      7.5742      7.2966    
  7.1669      7.2966      7.5742      7.8891      8.3993      9.4085      11.207      14.246      19.048      28.679    
  58.925      124.39      228.30      359.04      490.81      589.89      750.33      706.77      589.89      434.09    
  278.56      153.23      72.111      32.807      20.036      14.775      11.387      9.3593      8.2185      7.6489    
  7.2966      6.9748      6.8218      6.9748      7.2966      7.6489      8.2185      9.3593      11.387      14.775    
  20.036      32.807      72.111      153.23      278.56      434.09      589.89      706.77      665.89      626.84    
  522.11      382.70      244.08      133.38      62.981      29.926      19.373      14.425      11.271      9.3945    
  8.3369      7.7996      7.4646      7.1669      7.0276      7.1669      7.4646      7.7996      8.3369      9.3945    
  11.271      14.425      19.373      29.926      62.981      133.38      244.08      382.70      522.11      626.84    
  626.84      589.89      490.81      359.04      228.30      124.39      58.925      28.679      19.048      14.246    
  11.207      9.4085      8.3993      7.8891      7.5742      7.2966      7.1669      7.2966      7.5742      7.8891    
  8.3993      9.4085      11.207      14.246      19.048      28.679      58.925      124.39      228.30      359.04    
  490.81      589.89      522.11      490.81      406.99      295.86      186.46      100.90      48.606      25.640    
  18.135      13.758      11.038      9.4449      8.5523      8.0951      7.8136      7.5742      7.4646      7.5742    
  7.8136      8.0951      8.5523      9.4449      11.038      13.758      18.135      25.640      48.606      100.90    
  186.46      295.86      406.99      490.81      382.70      359.04      295.86      212.77      132.36      71.499    
  36.453      22.305      16.801      13.088      10.829      9.5144      8.7638      8.3553      8.0951      7.8891    
  7.7996      7.8891      8.0951      8.3553      8.7638      9.5144      10.829      13.088      16.801      22.305    
  36.453      71.499      132.36      212.77      295.86      359.04      244.08      228.30      186.46      132.36    
  81.699      45.598      26.794      19.570      15.292      12.396      10.672      9.6742      9.0947      8.7638    
  8.5523      8.3993      8.3369      8.3993      8.5523      8.7638      9.0947      9.6742      10.672      12.396    
  15.292      19.570      26.794      45.598      81.699      132.36      186.46      228.30      133.38      124.39    
  100.90      71.499      45.598      28.947      21.217      17.031      13.867      11.832      10.661      10.015    
  9.6742      9.5144      9.4449      9.4085      9.3945      9.4085      9.4449      9.5144      9.6742      10.015    
  10.661      11.832      13.867      17.031      21.217      28.947      45.598      71.499      100.90      124.39    
  62.981      58.925      48.606      36.453      26.794      21.217      17.685      14.782      12.740      11.516    
  10.895      10.661      10.672      10.829      11.038      11.207      11.271      11.207      11.038      10.829    
  10.672      10.661      10.895      11.516      12.740      14.782      17.685      21.217      26.794      36.453    
  48.606      58.925      29.926      28.679      25.640      22.305      19.570      17.031      14.782      13.090    
  12.032      11.546      11.516      11.832      12.396      13.088      13.758      14.246      14.425      14.246    
  13.758      13.088      12.396      11.832      11.516      11.546      12.032      13.090      14.782      17.031    
  19.570      22.305      25.640      28.679      19.373      19.048      18.135      16.801      15.292      13.867    
  12.740      12.032      11.793      12.032      12.740      13.867      15.292      16.801      18.135      19.048    
  19.373      19.048      18.135      16.801      15.292      13.867      12.740      12.032      11.793      12.032    
  12.740      13.867      15.292      16.801      18.135      19.048      14.425      14.246      13.758      13.088    
  12.396      11.832      11.516      11.546      12.032      13.090      14.782      17.031      19.570      22.305    
  25.640      28.679      29.926      28.679      25.640      22.305      19.570      17.031      14.782      13.090    
  12.032      11.546      11.516      11.832      12.396      13.088      13.758      14.246      11.271      11.207    
  11.038      10.829      10.672      10.661      10.895      11.516      12.740      14.782      17.685      21.217    
  26.794      36.453      48.606      58.925      62.981      58.925      48.606      36.453      26.794      21.217    
  17.685      14.782      12.740      11.516      10.895      10.661      10.672      10.829      11.038      11.207    
  9.3945      9.4085      9.4449      9.5144      9.6742      10.015      10.661      11.832      13.867      17.031    
  21.217      28.947      45.598      71.499      100.90      124.39      133.38      124.39      100.90      71.499    
  45.598      28.947      21.217      17.031      13.867      11.832      10.661      10.015      9.6742      9.5144    
  9.4449      9.4085      8.3369      8.3993      8.5523      8.7638      9.0947      9.6742      10.672      12.396    
  15.292      19.570      26.794      45.598      81.699      132.36      186.46      228.30      244.08      228.30    