unknown system                          
   1.00000000000000     
     3.635000    0.000000    0.000000
     0.000000    3.635000    0.000000
     0.000000    0.000000    3.635000
   Cu
     4
Direct
  0.000000  0.000000  0.000000
  0.500000  0.500000  0.000000
  0.500000  0.000000  0.500000
  0.000000  0.500000  0.500000
 
   32   32   32
 0.84498967534E+03 0.79636133357E+03 0.66588926613E+03 0.49181766752E+03 0.31749638168E+03
 0.17592376000E+03 0.82805228357E+02 0.36340475824E+02 0.20806796021E+02 0.15165569043E+02
 0.11523205649E+02 0.93164586163E+01 0.80617929984E+01 0.74279035942E+01 0.70276435077E+01
 0.66576014025E+01 0.64813495021E+01 0.66576014025E+01 0.70276435077E+01 0.74279035942E+01
 0.80617929984E+01 0.93164586163E+01 0.11523205649E+02 0.15165569043E+02 0.20806796021E+02
 0.36340475824E+02 0.82805228357E+02 0.17592376000E+03 0.31749638168E+03 0.49181766752E+03
 0.66588926613E+03 0.79636133357E+03 0.79636133357E+03 0.75033295856E+03 0.62683847288E+03
 0.46213893082E+03 0.29744970666E+03 0.16420698609E+03 0.77253302270E+02 0.34488275281E+02
 0.20407937977E+02 0.14968033054E+02 0.11454601937E+02 0.93392762071E+01 0.81430780692E+01
 0.75423448359E+01 0.71669158455E+01 0.68218351480E+01 0.66576014025E+01 0.68218351480E+01
 0.71669158455E+01 0.75423448359E+01 0.81430780692E+01 0.93392762071E+01 0.11454601937E+02
 0.14968033054E+02 0.20407937977E+02 0.34488275281E+02 0.77253302270E+02 0.16420698609E+03
 0.29744970666E+03 0.46213893082E+03 0.62683847288E+03 0.75033295856E+03 0.66588926613E+03
 0.62683847288E+03 0.52210742015E+03 0.38269544109E+03 0.24407625000E+03 0.13337680947E+03
 0.62980830189E+02 0.29926162826E+02 0.19373360559E+02 0.14425411154E+02 0.11270543949E+02
 0.93945443502E+01 0.83369075769E+01 0.77996123574E+01 0.74646363394E+01 0.71669158455E+01
 0.70276435077E+01 0.71669158455E+01 0.74646363394E+01 0.77996123574E+01 0.83369075769E+01
 0.93945443502E+01 0.11270543949E+02 0.14425411154E+02 0.19373360559E+02 0.29926162826E+02
 0.62980830189E+02 0.13337680947E+03 0.24407625000E+03 0.38269544109E+03 0.52210742015E+03
 0.62683847288E+03 0.49181766752E+03 0.46213893082E+03 0.38269544109E+03 0.27754360897E+03
 0.17437354034E+03 0.94205541242E+02 0.45776097545E+02 0.24885097292E+02 0.17914616524E+02
 0.13672035694E+02 0.11038315301E+02 0.94844689161E+01 0.85929252560E+01 0.81109378355E+01
 0.77996123574E+01 0.75423448359E+01 0.74279035942E+01 0.75423448359E+01 0.77996123574E+01
 0.81109378355E+01 0.85929252560E+01 0.94844689161E+01 0.11038315301E+02 0.13672035694E+02
 0.17914616524E+02 0.24885097292E+02 0.45776097545E+02 0.94205541242E+02 0.17437354034E+03
 0.27754360897E+03 0.38269544109E+03 0.46213893082E+03 0.31749638168E+03 0.29744970666E+03
 0.24407625000E+03 0.17437354034E+03 0.10782777703E+03 0.58700729163E+02 0.31583127028E+02
 0.21083622657E+02 0.16233534756E+02 0.12885488007E+02 0.10861764660E+02 0.96769715659E+01
 0.89861344505E+01 0.85929252560E+01 0.83369075769E+01 0.81430780692E+01 0.80617929984E+01
 0.81430780692E+01 0.83369075769E+01 0.85929252560E+01 0.89861344505E+01 0.96769715659E+01
 0.10861764660E+02 0.12885488007E+02 0.16233534756E+02 0.21083622657E+02 0.31583127028E+02
 0.58700729163E+02 0.10782777703E+03 0.17437354034E+03 0.24407625000E+03 0.29744970666E+03
 0.17592376000E+03 0.16420698609E+03 0.13337680947E+03 0.94205541242E+02 0.58700729163E+02
 0.34776811236E+02 0.23247264805E+02 0.18240173447E+02 0.14618263551E+02 0.12238978073E+02
 0.10854702339E+02 0.10085236092E+02 0.96769715659E+01 0.94844689161E+01 0.93945443502E+01
 0.93392762071E+01 0.93164586163E+01 0.93392762071E+01 0.93945443502E+01 0.94844689161E+01
 0.96769715659E+01 0.10085236092E+02 0.10854702339E+02 0.12238978073E+02 0.14618263551E+02
 0.18240173447E+02 0.23247264805E+02 0.34776811236E+02 0.58700729163E+02 0.94205541242E+02
 0.13337680947E+03 0.16420698609E+03 0.82805228357E+02 0.77253302270E+02 0.62980830189E+02
 0.45776097545E+02 0.31583127028E+02 0.23247264805E+02 0.18991280534E+02 0.15695285945E+02
 0.13319030049E+02 0.11875139070E+02 0.11136165671E+02 0.10854702339E+02 0.10861764660E+02
 0.11038315301E+02 0.11270543949E+02 0.11454601937E+02 0.11523205649E+02 0.11454601937E+02
 0.11270543949E+02 0.11038315301E+02 0.10861764660E+02 0.10854702339E+02 0.11136165671E+02
 0.11875139070E+02 0.13319030049E+02 0.15695285945E+02 0.18991280534E+02 0.23247264805E+02
 0.31583127028E+02 0.45776097545E+02 0.62980830189E+02 0.77253302270E+02 0.36340475824E+02
 0.34488275281E+02 0.29926162826E+02 0.24885097292E+02 0.21083622657E+02 0.18240173447E+02
 0.15695285945E+02 0.13737272877E+02 0.12494829611E+02 0.11916991454E+02 0.11875139070E+02
 0.12238978073E+02 0.12885488007E+02 0.13672035694E+02 0.14425411154E+02 0.14968033054E+02
 0.15165569043E+02 0.14968033054E+02 0.14425411154E+02 0.13672035694E+02 0.12885488007E+02
 0.12238978073E+02 0.11875139070E+02 0.11916991454E+02 0.12494829611E+02 0.13737272877E+02
 0.15695285945E+02 0.18240173447E+02 0.21083622657E+02 0.24885097292E+02 0.29926162826E+02
 0.34488275281E+02 0.20806796021E+02 0.20407937977E+02 0.19373360559E+02 0.17914616524E+02
 0.16233534756E+02 0.14618263551E+02 0.13319030049E+02 0.12494829611E+02 0.12214778528E+02
 0.12494829611E+02 0.13319030049E+02 0.14618263551E+02 0.16233534756E+02 0.17914616524E+02
 0.19373360559E+02 0.20407937977E+02 0.20806796021E+02 0.20407937977E+02 0.19373360559E+02
 0.17914616524E+02 0.16233534756E+02 0.14618263551E+02 0.13319030049E+02 0.12494829611E+02
 0.12214778528E+02 0.12494829611E+02 0.13319030049E+02 0.14618263551E+02 0.16233534756E+02
 0.17914616524E+02 0.19373360559E+02 0.20407937977E+02 0.15165569043E+02 0.14968033054E+02
 0.14425411154E+02 0.13672035694E+02 0.12885488007E+02 0.12238978073E+02 0.11875139070E+02
 0.11916991454E+02 0.12494829611E+02 0.13737272877E+02 0.15695285945E+02 0.18240173447E+02
 0.21083622657E+02 0.24885097292E+02 0.29926162826E+02 0.34488275281E+02 0.36340475824E+02
 0.34488275281E+02 0.29926162826E+02 0.24885097292E+02 0.21083622657E+02 0.18240173447E+02
 0.15695285945E+02 0.13737272877E+02 0.12494829611E+02 0.11916991454E+02 0.11875139070E+02
 0.12238978073E+02 0.12885488007E+02 0.13672035694E+02 0.14425411154E+02 0.14968033054E+02
 0.11523205649E+02 0.11454601937E+02 0.11270543949E+02 0.11038315301E+02 0.10861764660E+02
 0.10854702339E+02 0.11136165671E+02 0.11875139070E+02 0.13319030049E+02 0.15695285945E+02
 0.18991280534E+02 0.23247264805E+02 0.31583127028E+02 0.45776097545E+02 0.62980830189E+02
 0.77253302270E+02 0.82805228357E+02 0.77253302270E+02 0.62980830189E+02 0.45776097545E+02
 0.31583127028E+02 0.23247264805E+02 0.18991280534E+02 0.15695285945E+02 0.13319030049E+02
 0.11875139070E+02 0.11136165671E+02 0.10854702339E+02 0.10861764660E+02 0.11038315301E+02
 0.11270543949E+02 0.11454601937E+02 0.93164586163E+01 0.93392762071E+01 0.93945443502E+01
 0.94844689161E+01 0.96769715659E+01 0.10085236092E+02 0.10854702339E+02 0.12238978073E+02
 0.14618263551E+02 0.18240173447E+02 0.23247264805E+02 0.34776811236E+02 0.58700729163E+02
 0.94205541242E+02 0.13337680947E+03 0.16420698609E+03 0.17592376000E+03 0.16420698609E+03
 0.13337680947E+03 0.94205541242E+02 0.58700729163E+02 0.34776811236E+02 0.23247264805E+02
 0.18240173447E+02 0.14618263551E+02 0.12238978073E+02 0.10854702339E+02 0.10085236092E+02
 0.96769715659E+01 0.94844689161E+01 0.93945443502E+01 0.93392762071E+01 0.80617929984E+01
 0.81430780692E+01 0.83369075769E+01 0.85929252560E+01 0.89861344505E+01 0.96769715659E+01
 0.10861764660E+02 0.12885488007E+02 0.16233534756E+02 0.21083622657E+02 0.31583127028E+02
 0.58700729163E+02 0.10782777703E+03 0.17437354034E+03 0.24407625000E+03 0.29744970666E+03
 0.31749638168E+03 0.29744970666E+03 0.24407625000E+03 0.17437354034E+03 0.10782777703E+03
 0.58700729163E+02 0.31583127028E+02 0.21083622657E+02 0.16233534756E+02 0.12885488007E+02
 0.10861764660E+02 0.96769715659E+01 0.89861344505E+01 0.85929252560E+01 0.83369075769E+01
 0.81430780692E+01 0.74279035942E+01 0.75423448359E+01 0.77996123574E+01 0.81109378355E+01
 0.85929252560E+01 0.94844689161E+01 0.11038315301E+02 0.13672035694E+02 0.17914616524E+02
 0.24885097292E+02 0.45776097545E+02 0.94205541242E+02 0.17437354034E+03 0.27754360897E+03
 0.38269544109E+03 0.46213893082E+03 0.49181766752E+03 0.46213893082E+03 0.38269544109E+03
 0.27754360897E+03 0.17437354034E+03 0.94205541242E+02 0.45776097545E+02 0.24885097292E+02
 0.17914616524E+02 0.13672035694E+02 0.11038315301E+02 0.94844689161E+01 0.85929252560E+01
 0.81109378355E+01 0.77996123574E+01 0.75423448359E+01 0.70276435077E+01 0.71669158455E+01
 0.74646363394E+01 0.77996123574E+01 0.83369075769E+01 0.93945443502E+01 0.11270543949E+02
 0.14425411154E+02 0.19373360559E+02 0.29926162826E+02 0.62980830189E+02 0.13337680947E+03
 0.24407625000E+03 0.38269544109E+03 0.52210742015E+03 0.62683847288E+03 0.66588926613E+03
 0.62683847288E+03 0.52210742015E+03 0.38269544109E+03 0.24407625000E+03 0.13337680947E+03
 0.62980830189E+02 0.29926162826E+02 0.19373360559E+02 0.14425411154E+02 0.11270543949E+02
 0.93945443502E+01 0.83369075769E+01 0.77996123574E+01 0.74646363394E+01 0.71669158455E+01
 0.66576014025E+01 0.68218351480E+01 0.71669158455E+01 0.75423448359E+01 0.81430780692E+01
 0.93392762071E+01 0.11454601937E+02 0.14968033054E+02 0.20407937977E+02 0.34488275281E+02
 0.77253302270E+02 0.16420698609E+03 0.29744970666E+03 0.46213893082E+03 0.62683847288E+03
 0.75033295856E+03 0.79636133357E+03 0.75033295856E+03 0.62683847288E+03 0.46213893082E+03
 0.29744970666E+03 0.16420698609E+03 0.77253302270E+02 0.34488275281E+02 0.20407937977E+02
 0.14968033054E+02 0.11454601937E+02 0.93392762071E+01 0.81430780692E+01 0.75423448359E+01
 0.71669158455E+01 0.68218351480E+01 0.64813495021E+01 0.66576014025E+01 0.70276435077E+01
 0.74279035942E+01 0.80617929984E+01 0.93164586163E+01 0.11523205649E+02 0.15165569043E+02
 0.20806796021E+02 0.36340475824E+02 0.82805228357E+02 0.17592376000E+03 0.31749638168E+03
 0.49181766752E+03 0.66588926613E+03 0.79636133357E+03 0.84498967534E+03 0.79636133357E+03
 0.66588926613E+03 0.49181766752E+03 0.31749638168E+03 0.17592376000E+03 0.82805228357E+02
 0.36340475824E+02 0.20806796021E+02 0.15165569043E+02 0.11523205649E+02 0.93164586163E+01
 0.80617929984E+01 0.74279035942E+01 0.70276435077E+01 0.66576014025E+01 0.66576014025E+01
 0.68218351480E+01 0.71669158455E+01 0.75423448359E+01 0.81430780692E+01 0.93392762071E+01
 0.11454601937E+02 0.14968033054E+02 0.20407937977E+02 0.34488275281E+02 0.77253302270E+02
 0.16420698609E+03 0.29744970666E+03 0.46213893082E+03 0.62683847288E+03 0.75033295856E+03
 0.79636133357E+03 0.75033295856E+03 0.62683847288E+03 0.46213893082E+03 0.29744970666E+03
 0.16420698609E+03 0.77253302270E+02 0.34488275281E+02 0.20407937977E+02 0.14968033054E+02
 0.11454601937E+02 0.93392762071E+01 0.81430780692E+01 0.75423448359E+01 0.71669158455E+01
 0.68218351480E+01 0.70276435077E+01 0.71669158455E+01 0.74646363394E+01 0.77996123574E+01
 0.83369075769E+01 0.93945443502E+01 0.11270543949E+02 0.14425411154E+02 0.19373360559E+02
 0.29926162826E+02 0.62980830189E+02 0.13337680947E+03 0.24407625000E+03 0.38269544109E+03
 0.52210742015E+03 0.62683847288E+03 0.66588926613E+03 0.62683847288E+03 0.52210742015E+03
 0.38269544109E+03 0.24407625000E+03 0.13337680947E+03 0.62980830189E+02 0.29926162826E+02
 0.19373360559E+02 0.14425411154E+02 0.11270543949E+02 0.93945443502E+01 0.83369075769E+01
 0.77996123574E+01 0.74646363394E+01 0.71669158455E+01 0.74279035942E+01 0.75423448359E+01
 0.77996123574E+01 0.81109378355E+01 0.85929252560E+01 0.94844689161E+01 0.11038315301E+02
 0.13672035694E+02 0.17914616524E+02 0.24885097292E+02 0.45776097545E+02 0.94205541242E+02
 0.17437354034E+03 0.27754360897E+03 0.38269544109E+03 0.46213893082E+03 0.49181766752E+03
 0.46213893082E+03 0.38269544109E+03 0.27754360897E+03 0.17437354034E+03 0.94205541242E+02
 0.45776097545E+02 0.24885097292E+02 0.17914616524E+02 0.13672035694E+02 0.11038315301E+02
 0.94844689161E+01 0.85929252560E+01 0.81109378355E+01 0.77996123574E+01 0.75423448359E+01
 0.80617929984E+01 0.81430780692E+01 0.83369075769E+01 0.85929252560E+01 0.89861344505E+01
 0.96769715659E+01 0.10861764660E+02 0.12885488007E+02 0.16233534756E+02 0.21083622657E+02
 0.31583127028E+02 0.58700729163E+02 0.10782777703E+03 0.17437354034E+03 0.24407625000E+03
 0.29744970666E+03 0.31749638168E+03 0.29744970666E+03 0.24407625000E+03 0.17437354034E+03
 0.10782777703E+03 0.58700729163E+02 0.31583127028E+02 0.21083622657E+02 0.16233534756E+02
 0.12885488007E+02 0.10861764660E+02 0.96769715659E+01 0.89861344505E+01 0.85929252560E+01
 0.83369075769E+01 0.81430780692E+01 0.93164586163E+01 0.93392762071E+01 0.93945443502E+01
 0.94844689161E+01 0.96769715659E+01 0.10085236092E+02 0.10854702339E+02 0.12238978073E+02
 0.14618263551E+02 0.18240173447E+02 0.23247264805E+02 0.34776811236E+02 0.58700729163E+02
 0.94205541242E+02 0.13337680947E+03 0.16420698609E+03 0.17592376000E+03 0.16420698609E+03
 0.13337680947E+03 0.94205541242E+02 0.58700729163E+02 0.34776811236E+02 0.23247264805E+02
 0.18240173447E+02 0.14618263551E+02 0.12238978073E+02 0.10854702339E+02 0.10085236092E+02
 0.96769715659E+01 0.94844689161E+01 0.93945443502E+01 0.93392762071E+01 0.11523205649E+02
 0.11454601937E+02 0.11270543949E+02 0.11038315301E+02 0.10861764660E+02 0.10854702339E+02
 0.11136165671E+02 0.11875139070E+02 0.13319030049E+02 0.15695285945E+02 0.18991280534E+02
 0.23247264805E+02 0.31583127028E+02 0.45776097545E+02 0.62980830189E+02 0.77253302270E+02
 0.82805228357E+02 0.77253302270E+02 0.62980830189E+02 0.45776097545E+02 0.31583127028E+02
 0.23247264805E+02 0.18991280534E+02 0.15695285945E+02 0.13319030049E+02 0.11875139070E+02
 0.11136165671E+02 0.10854702339E+02 0.10861764660E+02 0.11038315301E+02 0.11270543949E+02
 0.11454601937E+02 0.15165569043E+02 0.14968033054E+02 0.14425411154E+02 0.13672035694E+02
 0.12885488007E+02 0.12238978073E+02 0.11875139070E+02 0.11916991454E+02 0.12494829611E+02
 0.13737272877E+02 0.15695285945E+02 0.18240173447E+02 0.21083622657E+02 0.24885097292E+02
 0.29926162826E+02 0.34488275281E+02 0.36340475824E+02 0.34488275281E+02 0.29926162826E+02
 0.24885097292E+02 0.21083622657E+02 0.18240173447E+02 0.15695285945E+02 0.13737272877E+02
 0.12494829611E+02 0.11916991454E+02 0.11875139070E+02 0.12238978073E+02 0.12885488007E+02
 0.13672035694E+02 0.14425411154E+02 0.14968033054E+02 0.20806796021E+02 0.20407937977E+02
 0.19373360559E+02 0.17914616524E+02 0.16233534756E+02 0.14618263551E+02 0.13319030049E+02
 0.12494829611E+02 0.12214778528E+02 0.12494829611E+02 0.13319030049E+02 0.14618263551E+02
 0.16233534756E+02 0.17914616524E+02 0.19373360559E+02 0.20407937977E+02 0.20806796021E+02
 0.20407937977E+02 0.19373360559E+02 0.17914616524E+02 0.16233534756E+02 0.14618263551E+02
 0.13319030049E+02 0.12494829611E+02 0.12214778528E+02 0.12494829611E+02 0.13319030049E+02
 0.14618263551E+02 0.16233534756E+02 0.17914616524E+02 0.19373360559E+02 0.20407937977E+02
 0.36340475824E+02 0.34488275281E+02 0.29926162826E+02 0.24885097292E+02 0.21083622657E+02
 0.18240173447E+02 0.15695285945E+02 0.13737272877E+02 0.12494829611E+02 0.11916991454E+02
 0.11875139070E+02 0.12238978073E+02 0.12885488007E+02 0.13672035694E+02 0.14425411154E+02
 0.14968033054E+02 0.15165569043E+02 0.14968033054E+02 0.14425411154E+02 0.13672035694E+02
 0.12885488007E+02 0.12238978073E+02 0.11875139070E+02 0.11916991454E+02 0.12494829611E+02
 0.13737272877E+02 0.15695285945E+02 0.18240173447E+02 0.21083622657E+02 0.24885097292E+02
 0.29926162826E+02 0.34488275281E+02 0.82805228357E+02 0.77253302270E+02 0.62980830189E+02
 0.45776097545E+02 0.31583127028E+02 0.23247264805E+02 0.18991280534E+02 0.15695285945E+02
 0.13319030049E+02 0.11875139070E+02 0.11136165671E+02 0.10854702339E+02 0.10861764660E+02
 0.11038315301E+02 0.11270543949E+02 0.11454601937E+02 0.11523205649E+02 0.11454601937E+02
 0.11270543949E+02 0.11038315301E+02 0.10861764660E+02 0.10854702339E+02 0.11136165671E+02
 0.11875139070E+02 0.13319030049E+02 0.15695285945E+02 0.18991280534E+02 0.23247264805E+02
 0.31583127028E+02 0.45776097545E+02 0.62980830189E+02 0.77253302270E+02 0.17592376000E+03
 0.16420698609E+03 0.13337680947E+03 0.94205541242E+02 0.58700729163E+02 0.34776811236E+02
 0.23247264805E+02 0.18240173447E+02 0.14618263551E+02 0.12238978073E+02 0.10854702339E+02
 0.10085236092E+02 0.96769715659E+01 0.94844689161E+01 0.93945443502E+01 0.93392762071E+01
 0.93164586163E+01 0.93392762071E+01 0.93945443502E+01 0.94844689161E+01 0.96769715659E+01
 0.10085236092E+02 0.10854702339E+02 0.12238978073E+02 0.14618263551E+02 0.18240173447E+02
 0.23247264805E+02 0.34776811236E+02 0.58700729163E+02 0.94205541242E+02 0.13337680947E+03
 0.16420698609E+03 0.31749638168E+03 0.29744970666E+03 0.24407625000E+03 0.17437354034E+03
 0.10782777703E+03 0.58700729163E+02 0.31583127028E+02 0.21083622657E+02 0.16233534756E+02
 0.12885488007E+02 0.10861764660E+02 0.96769715659E+01 0.89861344505E+01 0.85929252560E+01
 0.83369075769E+01 0.81430780692E+01 0.80617929984E+01 0.81430780692E+01 0.83369075769E+01
 0.85929252560E+01 0.89861344505E+01 0.96769715659E+01 0.10861764660E+02 0.12885488007E+02
 0.16233534756E+02 0.21083622657E+02 0.31583127028E+02 0.58700729163E+02 0.10782777703E+03
 0.17437354034E+03 0.24407625000E+03 0.29744970666E+03 0.49181766752E+03 0.46213893082E+03
 0.38269544109E+03 0.27754360897E+03 0.17437354034E+03 0.94205541242E+02 0.45776097545E+02
 0.24885097292E+02 0.17914616524E+02 0.13672035694E+02 0.11038315301E+02 0.94844689161E+01
 0.85929252560E+01 0.81109378355E+01 0.77996123574E+01 0.75423448359E+01 0.74279035942E+01
 0.75423448359E+01 0.77996123574E+01 0.81109378355E+01 0.85929252560E+01 0.94844689161E+01
 0.11038315301E+02 0.13672035694E+02 0.17914616524E+02 0.24885097292E+02 0.45776097545E+02
 0.94205541242E+02 0.17437354034E+03 0.27754360897E+03 0.38269544109E+03 0.46213893082E+03
 0.66588926613E+03 0.62683847288E+03 0.52210742015E+03 0.38269544109E+03 0.24407625000E+03
 0.13337680947E+03 0.62980830189E+02 0.29926162826E+02 0.19373360559E+02 0.14425411154E+02
 0.11270543949E+02 0.93945443502E+01 0.83369075769E+01 0.77996123574E+01 0.74646363394E+01
 0.71669158455E+01 0.70276435077E+01 0.71669158455E+01 0.74646363394E+01 0.77996123574E+01
 0.83369075769E+01 0.93945443502E+01 0.11270543949E+02 0.14425411154E+02 0.19373360559E+02
 0.29926162826E+02 0.62980830189E+02 0.13337680947E+03 0.24407625000E+03 0.38269544109E+03
 0.52210742015E+03 0.62683847288E+03 0.79636133357E+03 0.75033295856E+03 0.62683847288E+03
 0.46213893082E+03 0.29744970666E+03 0.16420698609E+03 0.77253302270E+02 0.34488275281E+02
 0.20407937977E+02 0.14968033054E+02 0.11454601937E+02 0.93392762071E+01 0.81430780692E+01
 0.75423448359E+01 0.71669158455E+01 0.68218351480E+01 0.66576014025E+01 0.68218351480E+01
 0.71669158455E+01 0.75423448359E+01 0.81430780692E+01 0.93392762071E+01 0.11454601937E+02
 0.14968033054E+02 0.20407937977E+02 0.34488275281E+02 0.77253302270E+02 0.16420698609E+03
 0.29744970666E+03 0.46213893082E+03 0.62683847288E+03 0.75033295856E+03 0.79636133357E+03
 0.75033295856E+03 0.62683847288E+03 0.46213893082E+03 0.29744970666E+03 0.16420698609E+03
 0.77253302270E+02 0.34488275281E+02 0.20407937977E+02 0.14968033054E+02 0.11454601937E+02
 0.93392762071E+01 0.81430780692E+01 0.75423448359E+01 0.71669158455E+01 0.68218351480E+01
 0.66576014025E+01 0.68218351480E+01 0.71669158455E+01 0.75423448359E+01 0.81430780692E+01
 0.93392762071E+01 0.11454601937E+02 0.14968033054E+02 0.20407937977E+02 0.34488275281E+02
 0.77253302270E+02 0.16420698609E+03 0.29744970666E+03 0.46213893082E+03 0.62683847288E+03
 0.75033295856E+03 0.75033295856E+03 0.70676711627E+03 0.58988758756E+03 0.43408680253E+03
 0.27855537730E+03 0.15322960259E+03 0.72111081656E+02 0.32807254012E+02 0.20036060855E+02
 0.14775206116E+02 0.11387025230E+02 0.93592793141E+01 0.82185105937E+01 0.76488577587E+01
 0.72965507623E+01 0.69748036932E+01 0.68218351480E+01 0.69748036932E+01 0.72965507623E+01
 0.76488577587E+01 0.82185105937E+01 0.93592793141E+01 0.11387025230E+02 0.14775206116E+02
 0.20036060855E+02 0.32807254012E+02 0.72111081656E+02 0.15322960259E+03 0.27855537730E+03
 0.43408680253E+03 0.58988758756E+03 0.70676711627E+03 0.62683847288E+03 0.58988758756E+03
 0.49081136977E+03 0.35903601785E+03 0.22829668126E+03 0.12438921473E+03 0.58924636386E+02
 0.28679401007E+02 0.19048475507E+02 0.14246486145E+02 0.11206569047E+02 0.94084518668E+01
 0.83993376995E+01 0.78891278518E+01 0.75742145604E+01 0.72965507623E+01 0.71669158455E+01
 0.72965507623E+01 0.75742145604E+01 0.78891278518E+01 0.83993376995E+01 0.94084518668E+01
 0.11206569047E+02 0.14246486145E+02 0.19048475507E+02 0.28679401007E+02 0.58924636386E+02
 0.12438921473E+03 0.22829668126E+03 0.35903601785E+03 0.49081136977E+03 0.58988758756E+03
 0.46213893082E+03 0.43408680253E+03 0.35903601785E+03 0.25983784282E+03 0.16281004636E+03
 0.87875983091E+02 0.43116889184E+02 0.24136575090E+02 0.17621131945E+02 0.13514644603E+02
 0.10980292097E+02 0.94917042263E+01 0.86408869934E+01 0.81825917828E+01 0.78891278518E+01
 0.76488577587E+01 0.75423448359E+01 0.76488577587E+01 0.78891278518E+01 0.81825917828E+01
 0.86408869934E+01 0.94917042263E+01 0.10980292097E+02 0.13514644603E+02 0.17621131945E+02
 0.24136575090E+02 0.43116889184E+02 0.87875983091E+02 0.16281004636E+03 0.25983784282E+03
 0.35903601785E+03 0.43408680253E+03 0.29744970666E+03 0.27855537730E+03 0.22829668126E+03
 0.16281004636E+03 0.10056953728E+03 0.54999969042E+02 0.30197559042E+02 0.20672759144E+02
 0.15983806832E+02 0.12753139468E+02 0.10808841375E+02 0.96745048637E+01 0.90150932402E+01
 0.86408869934E+01 0.83993376995E+01 0.82185105937E+01 0.81430780692E+01 0.82185105937E+01
 0.83993376995E+01 0.86408869934E+01 0.90150932402E+01 0.96745048637E+01 0.10808841375E+02
 0.12753139468E+02 0.15983806832E+02 0.20672759144E+02 0.30197559042E+02 0.54999969042E+02
 0.10056953728E+03 0.16281004636E+03 0.22829668126E+03 0.27855537730E+03 0.16420698609E+03
 0.15322960259E+03 0.12438921473E+03 0.87875983091E+02 0.54999969042E+02 0.33097625340E+02
 0.22670944663E+02 0.17922327811E+02 0.14418267450E+02 0.12128966345E+02 0.10800852740E+02
 0.10064323394E+02 0.96745048637E+01 0.94917042263E+01 0.94084518668E+01 0.93592793141E+01
 0.93392762071E+01 0.93592793141E+01 0.94084518668E+01 0.94917042263E+01 0.96745048637E+01
 0.10064323394E+02 0.10800852740E+02 0.12128966345E+02 0.14418267450E+02 0.17922327811E+02
 0.22670944663E+02 0.33097625340E+02 0.54999969042E+02 0.87875983091E+02 0.12438921473E+03
 0.15322960259E+03 0.77253302270E+02 0.72111081656E+02 0.58924636386E+02 0.43116889184E+02
 0.30197559042E+02 0.22670944663E+02 0.18649096424E+02 0.15453412652E+02 0.13164230052E+02
 0.11778108382E+02 0.11069923954E+02 0.10800852740E+02 0.10808841375E+02 0.10980292097E+02
 0.11206569047E+02 0.11387025230E+02 0.11454601937E+02 0.11387025230E+02 0.11206569047E+02
 0.10980292097E+02 0.10808841375E+02 0.10800852740E+02 0.11069923954E+02 0.11778108382E+02
 0.13164230052E+02 0.15453412652E+02 0.18649096424E+02 0.22670944663E+02 0.30197559042E+02
 0.43116889184E+02 0.58924636386E+02 0.72111081656E+02 0.34488275281E+02 0.32807254012E+02
 0.28679401007E+02 0.24136575090E+02 0.20672759144E+02 0.17922327811E+02 0.15453412652E+02
 0.13564789666E+02 0.12371068115E+02 0.11817306265E+02 0.11778108382E+02 0.12128966345E+02
 0.12753139468E+02 0.13514644603E+02 0.14246486145E+02 0.14775206116E+02 0.14968033054E+02
 0.14775206116E+02 0.14246486145E+02 0.13514644603E+02 0.12753139468E+02 0.12128966345E+02
 0.11778108382E+02 0.11817306265E+02 0.12371068115E+02 0.13564789666E+02 0.15453412652E+02
 0.17922327811E+02 0.20672759144E+02 0.24136575090E+02 0.28679401007E+02 0.32807254012E+02
 0.20407937977E+02 0.20036060855E+02 0.19048475507E+02 0.17621131945E+02 0.15983806832E+02
 0.14418267450E+02 0.13164230052E+02 0.12371068115E+02 0.12101985305E+02 0.12371068115E+02
 0.13164230052E+02 0.14418267450E+02 0.15983806832E+02 0.17621131945E+02 0.19048475507E+02
 0.20036060855E+02 0.20407937977E+02 0.20036060855E+02 0.19048475507E+02 0.17621131945E+02
 0.15983806832E+02 0.14418267450E+02 0.13164230052E+02 0.12371068115E+02 0.12101985305E+02
 0.12371068115E+02 0.13164230052E+02 0.14418267450E+02 0.15983806832E+02 0.17621131945E+02
 0.19048475507E+02 0.20036060855E+02 0.14968033054E+02 0.14775206116E+02 0.14246486145E+02
 0.13514644603E+02 0.12753139468E+02 0.12128966345E+02 0.11778108382E+02 0.11817306265E+02
 0.12371068115E+02 0.13564789666E+02 0.15453412652E+02 0.17922327811E+02 0.20672759144E+02
 0.24136575090E+02 0.28679401007E+02 0.32807254012E+02 0.34488275281E+02 0.32807254012E+02
 0.28679401007E+02 0.24136575090E+02 0.20672759144E+02 0.17922327811E+02 0.15453412652E+02
 0.13564789666E+02 0.12371068115E+02 0.11817306265E+02 0.11778108382E+02 0.12128966345E+02
 0.12753139468E+02 0.13514644603E+02 0.14246486145E+02 0.14775206116E+02 0.11454601937E+02
 0.11387025230E+02 0.11206569047E+02 0.10980292097E+02 0.10808841375E+02 0.10800852740E+02
 0.11069923954E+02 0.11778108382E+02 0.13164230052E+02 0.15453412652E+02 0.18649096424E+02
 0.22670944663E+02 0.30197559042E+02 0.43116889184E+02 0.58924636386E+02 0.72111081656E+02
 0.77253302270E+02 0.72111081656E+02 0.58924636386E+02 0.43116889184E+02 0.30197559042E+02
 0.22670944663E+02 0.18649096424E+02 0.15453412652E+02 0.13164230052E+02 0.11778108382E+02
 0.11069923954E+02 0.10800852740E+02 0.10808841375E+02 0.10980292097E+02 0.11206569047E+02
 0.11387025230E+02 0.93392762071E+01 0.93592793141E+01 0.94084518668E+01 0.94917042263E+01
 0.96745048637E+01 0.10064323394E+02 0.10800852740E+02 0.12128966345E+02 0.14418267450E+02
 0.17922327811E+02 0.22670944663E+02 0.33097625340E+02 0.54999969042E+02 0.87875983091E+02
 0.12438921473E+03 0.15322960259E+03 0.16420698609E+03 0.15322960259E+03 0.12438921473E+03
 0.87875983091E+02 0.54999969042E+02 0.33097625340E+02 0.22670944663E+02 0.17922327811E+02
 0.14418267450E+02 0.12128966345E+02 0.10800852740E+02 0.10064323394E+02 0.96745048637E+01
 0.94917042263E+01 0.94084518668E+01 0.93592793141E+01 0.81430780692E+01 0.82185105937E+01
 0.83993376995E+01 0.86408869934E+01 0.90150932402E+01 0.96745048637E+01 0.10808841375E+02
 0.12753139468E+02 0.15983806832E+02 0.20672759144E+02 0.30197559042E+02 0.54999969042E+02
 0.10056953728E+03 0.16281004636E+03 0.22829668126E+03 0.27855537730E+03 0.29744970666E+03
 0.27855537730E+03 0.22829668126E+03 0.16281004636E+03 0.10056953728E+03 0.54999969042E+02
 0.30197559042E+02 0.20672759144E+02 0.15983806832E+02 0.12753139468E+02 0.10808841375E+02
 0.96745048637E+01 0.90150932402E+01 0.86408869934E+01 0.83993376995E+01 0.82185105937E+01
 0.75423448359E+01 0.76488577587E+01 0.78891278518E+01 0.81825917828E+01 0.86408869934E+01
 0.94917042263E+01 0.10980292097E+02 0.13514644603E+02 0.17621131945E+02 0.24136575090E+02
 0.43116889184E+02 0.87875983091E+02 0.16281004636E+03 0.25983784282E+03 0.35903601785E+03
 0.43408680253E+03 0.46213893082E+03 0.43408680253E+03 0.35903601785E+03 0.25983784282E+03
 0.16281004636E+03 0.87875983091E+02 0.43116889184E+02 0.24136575090E+02 0.17621131945E+02
 0.13514644603E+02 0.10980292097E+02 0.94917042263E+01 0.86408869934E+01 0.81825917828E+01
 0.78891278518E+01 0.76488577587E+01 0.71669158455E+01 0.72965507623E+01 0.75742145604E+01
 0.78891278518E+01 0.83993376995E+01 0.94084518668E+01 0.11206569047E+02 0.14246486145E+02
 0.19048475507E+02 0.28679401007E+02 0.58924636386E+02 0.12438921473E+03 0.22829668126E+03
 0.35903601785E+03 0.49081136977E+03 0.58988758756E+03 0.62683847288E+03 0.58988758756E+03
 0.49081136977E+03 0.35903601785E+03 0.22829668126E+03 0.12438921473E+03 0.58924636386E+02
 0.28679401007E+02 0.19048475507E+02 0.14246486145E+02 0.11206569047E+02 0.94084518668E+01
 0.83993376995E+01 0.78891278518E+01 0.75742145604E+01 0.72965507623E+01 0.68218351480E+01
 0.69748036932E+01 0.72965507623E+01 0.76488577587E+01 0.82185105937E+01 0.93592793141E+01
 0.11387025230E+02 0.14775206116E+02 0.20036060855E+02 0.32807254012E+02 0.72111081656E+02
 0.15322960259E+03 0.27855537730E+03 0.43408680253E+03 0.58988758756E+03 0.70676711627E+03
 0.75033295856E+03 0.70676711627E+03 0.58988758756E+03 0.43408680253E+03 0.27855537730E+03
 0.15322960259E+03 0.72111081656E+02 0.32807254012E+02 0.20036060855E+02 0.14775206116E+02
 0.11387025230E+02 0.93592793141E+01 0.82185105937E+01 0.76488577587E+01 0.72965507623E+01
 0.69748036932E+01 0.66576014025E+01 0.68218351480E+01 0.71669158455E+01 0.75423448359E+01
 0.81430780692E+01 0.93392762071E+01 0.11454601937E+02 0.14968033054E+02 0.20407937977E+02
 0.34488275281E+02 0.77253302270E+02 0.16420698609E+03 0.29744970666E+03 0.46213893082E+03
 0.62683847288E+03 0.75033295856E+03 0.79636133357E+03 0.75033295856E+03 0.62683847288E+03
 0.46213893082E+03 0.29744970666E+03 0.16420698609E+03 0.77253302270E+02 0.34488275281E+02
 0.20407937977E+02 0.14968033054E+02 0.11454601937E+02 0.93392762071E+01 0.81430780692E+01
 0.75423448359E+01 0.71669158455E+01 0.68218351480E+01 0.68218351480E+01 0.69748036932E+01
 0.72965507623E+01 0.76488577587E+01 0.82185105937E+01 0.93592793141E+01 0.11387025230E+02
 0.14775206116E+02 0.20036060855E+02 0.32807254012E+02 0.72111081656E+02 0.15322960259E+03
 0.27855537730E+03 0.43408680253E+03 0.58988758756E+03 0.70676711627E+03 0.75033295856E+03
 0.70676711627E+03 0.58988758756E+03 0.43408680253E+03 0.27855537730E+03 0.15322960259E+03
 0.72111081656E+02 0.32807254012E+02 0.20036060855E+02 0.14775206116E+02 0.11387025230E+02
 0.93592793141E+01 0.82185105937E+01 0.76488577587E+01 0.72965507623E+01 0.69748036932E+01
 0.71669158455E+01 0.72965507623E+01 0.75742145604E+01 0.78891278518E+01 0.83993376995E+01
 0.94084518668E+01 0.11206569047E+02 0.14246486145E+02 0.19048475507E+02 0.28679401007E+02
 0.58924636386E+02 0.12438921473E+03 0.22829668126E+03 0.35903601785E+03 0.49081136977E+03
 0.58988758756E+03 0.62683847288E+03 0.58988758756E+03 0.49081136977E+03 0.35903601785E+03
 0.22829668126E+03 0.12438921473E+03 0.58924636386E+02 0.28679401007E+02 0.19048475507E+02