   4   4   0   0
  0.1200752E+02  0.3635000E-09  0.3635000E-09  0.3635000E-09  0.5000000E-15
  1.000000000000000E-004
  CAR 
 unknown system                          
     27.68404717     -3.84298839  301      7.24093981      1.00000000
     -3.843  0.0000E+00  0.0000E+00
     -3.738  0.0000E+00  0.0000E+00
     -3.633  0.0000E+00  0.0000E+00
     -3.528 -0.5519E-31 -0.5800E-32
     -3.423 -0.2744E-27 -0.2885E-28
     -3.318 -0.7822E-24 -0.8223E-25
     -3.212 -0.1277E-20 -0.1343E-21
     -3.107 -0.1192E-17 -0.1254E-18
     -3.002 -0.6196E-15 -0.6524E-16
     -2.897 -0.1870E-12 -0.1972E-13
     -2.792 -0.3215E-10 -0.3399E-11
     -2.687 -0.3127E-08 -0.3320E-09
     -2.582 -0.1708E-06 -0.1828E-07
     -2.477 -0.5179E-05 -0.5626E-06
     -2.372 -0.8524E-04 -0.9521E-05
     -2.267 -0.7249E-03 -0.8570E-04
     -2.162 -0.2747E-02 -0.3744E-03
     -2.056 -0.1129E-02 -0.4930E-03
     -1.951  0.2097E-01  0.1711E-02
     -1.846  0.5610E-01  0.7606E-02
     -1.741  0.5014E-01  0.1287E-01
     -1.636  0.3498E-02  0.1324E-01
     -1.531  0.3366E-01  0.1678E-01
     -1.426  0.2292E+00  0.4087E-01
     -1.321  0.3801E+00  0.8081E-01
     -1.216  0.2310E+00  0.1051E+00
     -1.111  0.4447E-01  0.1098E+00
     -1.006  0.2520E+00  0.1362E+00
     -0.900  0.6897E+00  0.2087E+00
     -0.795  0.6775E+00  0.2799E+00
     -0.690  0.2414E+00  0.3053E+00
     -0.585  0.1031E+00  0.3161E+00
     -0.480  0.3750E+00  0.3555E+00
     -0.375  0.4865E+00  0.4067E+00
     -0.270  0.2287E+00  0.4307E+00
     -0.165  0.6404E-01  0.4374E+00
     -0.060  0.2235E+00  0.4609E+00
      0.045  0.3406E+00  0.4967E+00
      0.150  0.1631E+00  0.5138E+00
      0.256  0.2257E+00  0.5376E+00
      0.361  0.9862E+00  0.6412E+00
      0.466  0.1490E+01  0.7977E+00
      0.571  0.9382E+00  0.8963E+00
      0.676  0.6450E+00  0.9641E+00
      0.781  0.1288E+01  0.1100E+01
      0.886  0.1396E+01  0.1246E+01
      0.991  0.5736E+00  0.1306E+01
      1.096 -0.1236E-01  0.1305E+01
      1.201 -0.9695E-01  0.1295E+01
      1.306 -0.7006E-01  0.1288E+01
      1.412  0.7179E-01  0.1295E+01
      1.517  0.5123E+00  0.1349E+01
      1.622  0.1220E+01  0.1477E+01
      1.727  0.1928E+01  0.1680E+01
      1.832  0.1814E+01  0.1870E+01
      1.937  0.9937E+00  0.1975E+01
      2.042  0.1133E+01  0.2094E+01
      2.147  0.2021E+01  0.2306E+01
      2.252  0.2192E+01  0.2537E+01
      2.357  0.1756E+01  0.2721E+01
      2.462  0.1453E+01  0.2874E+01
      2.568  0.2172E+01  0.3102E+01
      2.673  0.4165E+01  0.3540E+01
      2.778  0.6256E+01  0.4197E+01
      2.883  0.6712E+01  0.4903E+01
      2.988  0.5575E+01  0.5488E+01
      3.093  0.4482E+01  0.5959E+01
      3.198  0.5699E+01  0.6558E+01
      3.303  0.9377E+01  0.7544E+01
      3.408  0.1065E+02  0.8663E+01
      3.513  0.9092E+01  0.9619E+01
      3.618  0.9218E+01  0.1059E+02
      3.724  0.9171E+01  0.1155E+02
      3.829  0.7235E+01  0.1231E+02
      3.934  0.7693E+01  0.1312E+02
      4.039  0.1087E+02  0.1426E+02
      4.144  0.1333E+02  0.1566E+02
      4.249  0.1545E+02  0.1729E+02
      4.354  0.1683E+02  0.1905E+02
      4.459  0.1647E+02  0.2079E+02
      4.564  0.1513E+02  0.2238E+02
      4.669  0.1276E+02  0.2372E+02
      4.774  0.1126E+02  0.2490E+02
      4.879  0.1235E+02  0.2620E+02
      4.985  0.1423E+02  0.2769E+02
      5.090  0.1415E+02  0.2918E+02
      5.195  0.1451E+02  0.3070E+02
      5.300  0.1650E+02  0.3244E+02
      5.405  0.1453E+02  0.3397E+02
      5.510  0.1151E+02  0.3517E+02
      5.615  0.1480E+02  0.3673E+02
      5.720  0.1964E+02  0.3879E+02
      5.825  0.1723E+02  0.4061E+02
      5.930  0.9873E+01  0.4164E+02
      6.035  0.4892E+01  0.4216E+02
      6.141  0.3030E+01  0.4248E+02
      6.246  0.2157E+01  0.4270E+02
      6.351  0.1303E+01  0.4284E+02
      6.456  0.3803E+00  0.4288E+02
      6.561 -0.8265E-01  0.4287E+02
      6.666 -0.5268E-01  0.4287E+02
      6.771  0.1268E+00  0.4288E+02
      6.876  0.1373E+00  0.4289E+02
      6.981  0.3689E+00  0.4293E+02
      7.086  0.2331E+01  0.4318E+02
      7.191  0.5167E+01  0.4372E+02
      7.297  0.5139E+01  0.4426E+02
      7.402  0.2328E+01  0.4450E+02
      7.507  0.1837E+00  0.4452E+02
      7.612 -0.2768E+00  0.4449E+02
      7.717  0.2224E+00  0.4452E+02
      7.822  0.1184E+01  0.4464E+02
      7.927  0.1526E+01  0.4480E+02
      8.032  0.7697E+00  0.4488E+02
      8.137  0.1280E-01  0.4489E+02
      8.242 -0.1442E+00  0.4487E+02
      8.347  0.2732E+00  0.4490E+02
      8.453  0.1143E+01  0.4502E+02
      8.558  0.1420E+01  0.4517E+02
      8.663  0.8827E+00  0.4526E+02
      8.768  0.1192E+01  0.4539E+02
      8.873  0.2239E+01  0.4562E+02
      8.978  0.1999E+01  0.4583E+02
      9.083  0.6909E+00  0.4590E+02
      9.188 -0.8141E-01  0.4590E+02
      9.293 -0.1716E+00  0.4588E+02
      9.398  0.1578E+00  0.4589E+02
      9.503  0.9370E+00  0.4599E+02
      9.609  0.1417E+01  0.4614E+02
      9.714  0.1573E+01  0.4631E+02
      9.819  0.2688E+01  0.4659E+02
      9.924  0.3492E+01  0.4696E+02
     10.029  0.2262E+01  0.4719E+02
     10.134  0.5739E+00  0.4725E+02
     10.239 -0.8598E-01  0.4725E+02
     10.344 -0.9752E-01  0.4723E+02
     10.449 -0.4183E-01  0.4723E+02
     10.554 -0.4316E-01  0.4723E+02
     10.659  0.4313E-01  0.4723E+02
     10.765  0.4157E+00  0.4727E+02
     10.870  0.7716E+00  0.4736E+02
     10.975  0.5748E+00  0.4742E+02
     11.080  0.1166E+00  0.4743E+02
     11.185 -0.1100E+00  0.4742E+02
     11.290 -0.1059E-01  0.4742E+02
     11.395  0.6202E+00  0.4748E+02
     11.500  0.1398E+01  0.4763E+02
     11.605  0.1478E+01  0.4778E+02
     11.710  0.1458E+01  0.4794E+02
     11.815  0.1898E+01  0.4814E+02
     11.921  0.2087E+01  0.4835E+02
     12.026  0.1631E+01  0.4853E+02
     12.131  0.9639E+00  0.4863E+02
     12.236  0.6086E+00  0.4869E+02
     12.341  0.7828E+00  0.4877E+02
     12.446  0.2030E+01  0.4899E+02
     12.551  0.3023E+01  0.4930E+02
     12.656  0.1976E+01  0.4951E+02
     12.761  0.8503E+00  0.4960E+02
     12.866  0.1201E+01  0.4973E+02
     12.971  0.1325E+01  0.4987E+02
     13.077  0.6023E+00  0.4993E+02
     13.182  0.2872E+00  0.4996E+02
     13.287  0.4478E+00  0.5001E+02
     13.392  0.3423E+00  0.5004E+02
     13.497  0.3388E-01  0.5005E+02
     13.602 -0.1703E+00  0.5003E+02
     13.707  0.4162E-02  0.5003E+02
     13.812  0.1264E+01  0.5016E+02
     13.917  0.2930E+01  0.5047E+02
     14.022  0.2644E+01  0.5075E+02
     14.127  0.8455E+00  0.5084E+02
     14.233 -0.1341E+00  0.5082E+02
     14.338 -0.1639E-01  0.5082E+02
     14.443  0.7380E+00  0.5090E+02
     14.548  0.1770E+01  0.5108E+02
     14.653  0.2005E+01  0.5130E+02
     14.758  0.1147E+01  0.5142E+02
     14.863  0.6521E+00  0.5148E+02
     14.968  0.1164E+01  0.5161E+02
     15.073  0.1509E+01  0.5177E+02
     15.178  0.1562E+01  0.5193E+02
     15.283  0.1903E+01  0.5213E+02
     15.389  0.2004E+01  0.5234E+02
     15.494  0.2422E+01  0.5259E+02
     15.599  0.3084E+01  0.5292E+02
     15.704  0.2133E+01  0.5314E+02
     15.809  0.4167E+00  0.5319E+02
     15.914 -0.1827E+00  0.5317E+02
     16.019  0.3772E+00  0.5321E+02
     16.124  0.1323E+01  0.5335E+02
     16.229  0.1392E+01  0.5349E+02
     16.334  0.5771E+00  0.5355E+02
     16.439  0.3420E+00  0.5359E+02
     16.544  0.9212E+00  0.5369E+02
     16.650  0.1356E+01  0.5383E+02
     16.755  0.1504E+01  0.5399E+02
     16.860  0.1760E+01  0.5417E+02
     16.965  0.2005E+01  0.5438E+02
     17.070  0.2274E+01  0.5462E+02
     17.175  0.2344E+01  0.5487E+02
     17.280  0.1714E+01  0.5505E+02
     17.385  0.7916E+00  0.5513E+02
     17.490  0.2722E+00  0.5516E+02
     17.595  0.2906E+00  0.5519E+02
     17.700  0.9408E+00  0.5529E+02
     17.806  0.1429E+01  0.5544E+02
     17.911  0.9959E+00  0.5554E+02
     18.016  0.1035E+01  0.5565E+02
     18.121  0.2207E+01  0.5588E+02
     18.226  0.2849E+01  0.5618E+02
     18.331  0.2183E+01  0.5641E+02
     18.436  0.9312E+00  0.5651E+02
     18.541  0.3625E+00  0.5655E+02
     18.646  0.1224E+01  0.5668E+02
     18.751  0.2436E+01  0.5693E+02
     18.856  0.2456E+01  0.5719E+02
     18.962  0.1442E+01  0.5734E+02
     19.067  0.1520E+01  0.5750E+02
     19.172  0.3487E+01  0.5787E+02
     19.277  0.4243E+01  0.5832E+02
     19.382  0.2234E+01  0.5855E+02
     19.487  0.2499E+00  0.5858E+02
     19.592 -0.2091E+00  0.5855E+02
     19.697 -0.8808E-01  0.5855E+02
     19.802 -0.2053E-01  0.5854E+02
     19.907 -0.4171E-01  0.5854E+02
     20.012 -0.1079E+00  0.5853E+02
     20.118  0.5839E-01  0.5853E+02
     20.223  0.9806E+00  0.5864E+02
     20.328  0.2319E+01  0.5888E+02
     20.433  0.2688E+01  0.5916E+02
     20.538  0.1653E+01  0.5934E+02
     20.643  0.4027E+00  0.5938E+02
     20.748 -0.8667E-01  0.5937E+02
     20.853 -0.7495E-01  0.5936E+02
     20.958 -0.1745E-01  0.5936E+02
     21.063 -0.1938E-02  0.5936E+02
     21.168 -0.1136E-03  0.5936E+02
     21.274 -0.3646E-05  0.5936E+02
     21.379 -0.6522E-07  0.5936E+02
     21.484 -0.3098E-08  0.5936E+02
     21.589 -0.2069E-06  0.5936E+02
     21.694 -0.9825E-05  0.5936E+02
     21.799 -0.2579E-03  0.5936E+02
     21.904 -0.3644E-02  0.5936E+02
     22.009 -0.2606E-01  0.5936E+02
     22.114 -0.7641E-01  0.5935E+02
     22.219  0.4103E-01  0.5935E+02
     22.324  0.7219E+00  0.5943E+02
     22.430  0.1508E+01  0.5959E+02
     22.535  0.1253E+01  0.5972E+02
     22.640  0.3638E+00  0.5976E+02
     22.745 -0.5706E-01  0.5975E+02
     22.850 -0.5608E-01  0.5975E+02
     22.955 -0.1253E-01  0.5974E+02
     23.060 -0.1303E-02  0.5974E+02
     23.165 -0.7083E-04  0.5974E+02
     23.270 -0.2101E-05  0.5974E+02
     23.375 -0.3470E-07  0.5974E+02
     23.480 -0.3223E-09  0.5974E+02
     23.586 -0.1695E-11  0.5974E+02
     23.691 -0.4868E-14  0.5974E+02
     23.796  0.0000E+00  0.5974E+02
     23.901  0.0000E+00  0.5974E+02
     24.006 -0.1529E-29  0.5974E+02
     24.111 -0.7342E-26  0.5974E+02
     24.216 -0.2021E-22  0.5974E+02
     24.321 -0.3186E-19  0.5974E+02
     24.426 -0.2873E-16  0.5974E+02
     24.531 -0.1440E-13  0.5974E+02
     24.636 -0.4198E-11  0.5974E+02
     24.742 -0.6966E-09  0.5974E+02
     24.847 -0.6536E-07  0.5974E+02
     24.952 -0.3443E-05  0.5974E+02
     25.057 -0.1006E-03  0.5974E+02
     25.162 -0.1591E-02  0.5974E+02
     25.267 -0.1294E-01  0.5974E+02
     25.372 -0.4607E-01  0.5974E+02
     25.477 -0.8338E-02  0.5974E+02
     25.582  0.3735E+00  0.5978E+02
     25.687  0.9474E+00  0.5988E+02
     25.792  0.9216E+00  0.5997E+02
     25.898  0.3375E+00  0.6001E+02
     26.003 -0.1797E-01  0.6001E+02
     26.108 -0.4395E-01  0.6000E+02
     26.213 -0.1160E-01  0.6000E+02
     26.318 -0.1364E-02  0.6000E+02
     26.423 -0.8287E-04  0.6000E+02
     26.528 -0.2733E-05  0.6000E+02
     26.633 -0.5003E-07  0.6000E+02
     26.738 -0.5144E-09  0.6000E+02
     26.843 -0.2992E-11  0.6000E+02
     26.948 -0.9736E-14  0.6000E+02
     27.054  0.0000E+00  0.6000E+02
     27.159  0.0000E+00  0.6000E+02
     27.264  0.0000E+00  0.6000E+02
     27.369  0.0000E+00  0.6000E+02
     27.474  0.0000E+00  0.6000E+02
     27.579  0.0000E+00  0.6000E+02
     27.684  0.0000E+00  0.6000E+02
