<?xml version="1.0" encoding="ISO-8859-1"?>
<modeling>
 <generator>
  <i name="program" type="string">vasp </i>
  <i name="version" type="string">6.2.0  </i>
  <i name="subversion" type="string">18Jan21 (build Mar 17 2021 09:06:54) complex                          serial </i>
  <i name="platform" type="string">LinuxIFC </i>
  <i name="date" type="string">2021 08 03 </i>
  <i name="time" type="string">10:19:53 </i>
 </generator>
 <incar>
  <i type="string" name="PREC">normal</i>
  <i type="int" name="ICHARG">     1</i>
  <i type="int" name="IBRION">    -1</i>
  <i name="EDIFF">      0.00000100</i>
  <i type="int" name="NSW">     0</i>
  <i name="ENCUT">    290.00000000</i>
  <i type="int" name="NBANDS">    30</i>
  <i type="int" name="ISMEAR">     1</i>
  <i name="SIGMA">      0.20000000</i>
  <i type="logical" name="LCHARG"> T  </i>
  <i type="int" name="KPAR">     1</i>
  <i type="int" name="NCORE">     1</i>
  <i type="string" name="GGA">PE</i>
 </incar>
 <primitive_cell>
  <structure name="primitive_cell" >
   <crystal>
    <varray name="basis" >
     <v>       1.81750000      -1.81750000       0.00000000 </v>
     <v>       1.81750000       0.00000000       1.81750000 </v>
     <v>       0.00000000      -1.81750000       1.81750000 </v>
    </varray>
    <i name="volume">     12.00751822 </i>
    <varray name="rec_basis" >
     <v>       0.27510316      -0.27510316      -0.27510316 </v>
     <v>       0.27510316       0.27510316       0.27510316 </v>
     <v>      -0.27510316      -0.27510316       0.27510316 </v>
    </varray>
   </crystal>
   <varray name="positions" >
    <v>       0.00000000       0.00000000       0.00000000 </v>
   </varray>
  </structure>
  <varray name="primitive_index" >
   <v type="int" >        1 </v>
  </varray>
 </primitive_cell>
 <kpoints>
  <generation param="Monkhorst-Pack">
   <v type="int" name="divisions">       5        5        5 </v>
   <v name="usershift">      0.00000000       0.00000000       0.00000000 </v>
   <v name="genvec1">      0.20000000       0.00000000       0.00000000 </v>
   <v name="genvec2">      0.00000000       0.20000000       0.00000000 </v>
   <v name="genvec3">      0.00000000       0.00000000       0.20000000 </v>
   <v name="shift">      0.00000000       0.00000000       0.00000000 </v>
  </generation>
  <varray name="kpointlist" >
   <v>       0.00000000       0.00000000       0.00000000 </v>
   <v>       0.20000000       0.00000000       0.00000000 </v>
   <v>       0.40000000       0.00000000       0.00000000 </v>
   <v>       0.20000000       0.20000000       0.00000000 </v>
   <v>       0.40000000       0.20000000       0.00000000 </v>
   <v>       0.40000000       0.40000000       0.00000000 </v>
   <v>       0.20000000       0.20000000       0.20000000 </v>
   <v>       0.40000000       0.20000000       0.20000000 </v>
   <v>       0.40000000       0.40000000       0.20000000 </v>
   <v>       0.40000000       0.40000000       0.40000000 </v>
  </varray>
  <varray name="weights" >
   <v>       0.00800000 </v>
   <v>       0.04800000 </v>
   <v>       0.04800000 </v>
   <v>       0.09600000 </v>
   <v>       0.19200000 </v>
   <v>       0.09600000 </v>
   <v>       0.06400000 </v>
   <v>       0.19200000 </v>
   <v>       0.19200000 </v>
   <v>       0.06400000 </v>
  </varray>
 </kpoints>
 <parameters>
  <separator name="general" >
   <i type="string" name="SYSTEM">unknown system</i>
   <i type="logical" name="LCOMPAT"> F  </i>
  </separator>
  <separator name="electronic" >
   <i type="string" name="PREC">normal</i>
   <i name="ENMAX">    290.00000000</i>
   <i name="ENAUG">    586.98000000</i>
   <i name="EDIFF">      0.00000100</i>
   <i type="int" name="IALGO">    38</i>
   <i type="int" name="IWAVPR">     0</i>
   <i type="int" name="NBANDS">    30</i>
   <i type="int" name="NBANDSLOW">    -1</i>
   <i type="int" name="NBANDSHIGH">    -1</i>
   <i name="NELECT">     44.00000000</i>
   <i type="int" name="TURBO">     0</i>
   <i type="int" name="IRESTART">     0</i>
   <i type="int" name="NREBOOT">     0</i>
   <i type="int" name="NMIN">     0</i>
   <i name="EREF">      0.00000000</i>
   <separator name="electronic smearing" >
    <i type="int" name="ISMEAR">     1</i>
    <i name="SIGMA">      0.20000000</i>
    <i name="KSPACING">      0.50000000</i>
    <i type="logical" name="KGAMMA"> T  </i>
    <i type="logical" name="KBLOWUP"> T  </i>
   </separator>
   <separator name="electronic projectors" >
    <i type="logical" name="LREAL"> F  </i>
    <v name="ROPT">      0.00000000</v>
    <i type="int" name="LMAXPAW">  -100</i>
    <i type="int" name="LMAXMIX">     2</i>
    <i type="logical" name="NLSPLINE"> F  </i>
   </separator>
   <separator name="electronic startup" >
    <i type="int" name="ISTART">     0</i>
    <i type="int" name="ICHARG">     1</i>
    <i type="int" name="INIWAV">     1</i>
   </separator>
   <separator name="electronic spin" >
    <i type="int" name="ISPIN">     1</i>
    <i type="logical" name="LNONCOLLINEAR"> F  </i>
    <v name="MAGMOM">      1.00000000      1.00000000      1.00000000      1.00000000</v>
    <i name="NUPDOWN">     -1.00000000</i>
    <i type="logical" name="LSORBIT"> F  </i>
    <v name="SAXIS">      0.00000000      0.00000000      1.00000000</v>
    <i type="logical" name="LSPIRAL"> F  </i>
    <v name="QSPIRAL">      0.00000000      0.00000000      0.00000000</v>
    <i type="logical" name="LZEROZ"> F  </i>
   </separator>
   <separator name="electronic exchange-correlation" >
    <i type="logical" name="LASPH"> F  </i>
    <i type="logical" name="LMETAGGA"> F  </i>
   </separator>
   <separator name="electronic convergence" >
    <i type="int" name="NELM">    60</i>
    <i type="int" name="NELMDL">    -5</i>
    <i type="int" name="NELMIN">     2</i>
    <i name="ENINI">    290.00000000</i>
    <separator name="electronic convergence detail" >
     <i type="logical" name="LDIAG"> T  </i>
     <i type="logical" name="LSUBROT"> F  </i>
     <i name="WEIMIN">      0.00000000</i>
     <i name="EBREAK">      0.00000001</i>
     <i name="DEPER">      0.30000000</i>
     <i type="int" name="NRMM">     4</i>
     <i name="TIME">      0.40000000</i>
    </separator>
   </separator>
   <separator name="electronic mixer" >
    <i name="AMIX">      0.40000000</i>
    <i name="BMIX">      1.00000000</i>
    <i name="AMIN">      0.10000000</i>
    <i name="AMIX_MAG">      1.60000000</i>
    <i name="BMIX_MAG">      1.00000000</i>
    <separator name="electronic mixer details" >
     <i type="int" name="IMIX">     4</i>
     <i type="logical" name="MIXFIRST"> F  </i>
     <i type="int" name="MAXMIX">   -45</i>
     <i name="WC">    100.00000000</i>
     <i type="int" name="INIMIX">     1</i>
     <i type="int" name="MIXPRE">     1</i>
     <i type="int" name="MREMOVE">     5</i>
    </separator>
   </separator>
   <separator name="electronic dipolcorrection" >
    <i type="logical" name="LDIPOL"> F  </i>
    <i type="logical" name="LMONO"> F  </i>
    <i type="int" name="IDIPOL">     0</i>
    <i name="EPSILON">      1.00000000</i>
    <v name="DIPOL">   -100.00000000   -100.00000000   -100.00000000</v>
    <i name="EFIELD">      0.00000000</i>
   </separator>
  </separator>
  <separator name="grids" >
   <i type="int" name="NGX">    16</i>
   <i type="int" name="NGY">    16</i>
   <i type="int" name="NGZ">    16</i>
   <i type="int" name="NGXF">    32</i>
   <i type="int" name="NGYF">    32</i>
   <i type="int" name="NGZF">    32</i>
   <i type="logical" name="ADDGRID"> F  </i>
  </separator>
  <separator name="ionic" >
   <i type="int" name="NSW">     0</i>
   <i type="int" name="IBRION">    -1</i>
   <i type="int" name="MDALGO">     0</i>
   <i type="int" name="ISIF">     2</i>
   <i name="PSTRESS">      0.00000000</i>
   <i name="EDIFFG">      0.00001000</i>
   <i type="int" name="NFREE">     0</i>
   <i name="POTIM">      0.50000000</i>
   <i name="SMASS">     -3.00000000</i>
   <i name="SCALEE">      1.00000000</i>
  </separator>
  <separator name="ionic md" >
   <i name="TEBEG">      0.00010000</i>
   <i name="TEEND">      0.00010000</i>
   <i type="int" name="NBLOCK">     1</i>
   <i type="int" name="KBLOCK">     1</i>
   <i type="int" name="NPACO">   256</i>
   <i name="APACO">     16.00000000</i>
  </separator>
  <separator name="symmetry" >
   <i type="int" name="ISYM">     2</i>
   <i name="SYMPREC">      0.00001000</i>
  </separator>
  <separator name="dos" >
   <i type="int" name="LORBIT">     0</i>
   <v name="RWIGS">     -1.00000000</v>
   <i type="int" name="NEDOS">   301</i>
   <i name="EMIN">     10.00000000</i>
   <i name="EMAX">    -10.00000000</i>
   <i name="EFERMI">      0.00000000</i>
  </separator>
  <separator name="writing" >
   <i type="int" name="NWRITE">     2</i>
   <i type="logical" name="LWAVE"> T  </i>
   <i type="logical" name="LDOWNSAMPLE"> F  </i>
   <i type="logical" name="LCHARG"> T  </i>
   <i type="logical" name="LPARD"> F  </i>
   <i type="logical" name="LVTOT"> F  </i>
   <i type="logical" name="LVHAR"> F  </i>
   <i type="logical" name="LELF"> F  </i>
   <i type="logical" name="LOPTICS"> F  </i>
   <v name="STM">      0.00000000      0.00000000      0.00000000      0.00000000      0.00000000      0.00000000      0.00000000</v>
  </separator>
  <separator name="performance" >
   <i type="int" name="NPAR">     1</i>
   <i type="int" name="NSIM">     4</i>
   <i type="int" name="NBLK">    -1</i>
   <i type="logical" name="LPLANE"> T  </i>
   <i type="logical" name="LSCALAPACK"> F  </i>
   <i type="logical" name="LSCAAWARE"> F  </i>
   <i type="logical" name="LSCALU"> F  </i>
   <i type="logical" name="LASYNC"> F  </i>
   <i type="logical" name="LORBITALREAL"> F  </i>
  </separator>
  <separator name="miscellaneous" >
   <i type="int" name="IDIOT">     3</i>
   <i type="int" name="PHON_NSTRUCT">    -1</i>
   <i type="logical" name="LMUSIC"> F  </i>
   <v name="POMASS">     63.54600000</v>
   <v name="DARWINR">      0.00000000</v>
   <v name="DARWINV">      1.00000000</v>
   <i type="logical" name="LCORR"> T  </i>
  </separator>
  <i type="logical" name="GGA_COMPAT"> T  </i>
  <i type="logical" name="LBERRY"> F  </i>
  <i type="int" name="ICORELEVEL">     0</i>
  <i type="logical" name="LDAU"> F  </i>
  <i type="int" name="I_CONSTRAINED_M">     0</i>
  <separator name="electronic exchange-correlation" >
   <i type="string" name="GGA">PE</i>
   <i type="int" name="VOSKOWN">     0</i>
   <i type="logical" name="LHFCALC"> F  </i>
   <i type="string" name="PRECFOCK"></i>
   <i type="logical" name="LSYMGRAD"> F  </i>
   <i type="logical" name="LHFONE"> F  </i>
   <i type="logical" name="LRHFCALC"> F  </i>
   <i type="logical" name="LTHOMAS"> F  </i>
   <i type="logical" name="LMODELHF"> F  </i>
   <i type="logical" name="LFOCKACE"> F  </i>
   <i name="ENCUT4O">     -1.00000000</i>
   <i type="int" name="EXXOEP">     0</i>
   <i type="int" name="FOURORBIT">     0</i>
   <i name="AEXX">      0.00000000</i>
   <i name="HFALPHA">      0.00000000</i>
   <i name="MCALPHA">      0.00000000</i>
   <i name="ALDAX">      1.00000000</i>
   <i name="AGGAX">      1.00000000</i>
   <i name="ALDAC">      1.00000000</i>
   <i name="AGGAC">      1.00000000</i>
   <i type="int" name="NKREDX">     1</i>
   <i type="int" name="NKREDY">     1</i>
   <i type="int" name="NKREDZ">     1</i>
   <i type="logical" name="SHIFTRED"> F  </i>
   <i type="logical" name="ODDONLY"> F  </i>
   <i type="logical" name="EVENONLY"> F  </i>
   <i type="int" name="LMAXFOCK">     0</i>
   <i type="int" name="NMAXFOCKAE">     0</i>
   <i type="logical" name="LFOCKAEDFT"> F  </i>
   <i name="HFSCREEN">      0.00000000</i>
   <i name="HFSCREENC">      0.00000000</i>
   <i type="int" name="NBANDSGWLOW">     0</i>
  </separator>
  <separator name="vdW DFT" >
   <i type="logical" name="LUSE_VDW"> F  </i>
   <i name="Zab_VDW">     -0.84910000</i>
   <i name="PARAM1">      0.12340000</i>
   <i name="PARAM2">      1.00000000</i>
   <i name="PARAM3">      0.00000000</i>
  </separator>
  <separator name="model GW" >
   <i type="int" name="MODEL_GW">     0</i>
   <i name="MODEL_EPS0">      7.20451093</i>
   <i name="MODEL_ALPHA">      1.00000000</i>
  </separator>
  <separator name="linear response parameters" >
   <i type="logical" name="LEPSILON"> F  </i>
   <i type="logical" name="LRPA"> F  </i>
   <i type="logical" name="LNABLA"> F  </i>
   <i type="logical" name="LVEL"> F  </i>
   <i type="int" name="KINTER">     0</i>
   <i name="CSHIFT">      0.10000000</i>
   <i name="OMEGAMAX">     -1.00000000</i>
   <i name="DEG_THRESHOLD">      0.00200000</i>
   <i name="RTIME">     -0.10000000</i>
   <i name="WPLASMAI">      0.00000000</i>
   <v name="DFIELD">      0.00000000      0.00000000      0.00000000</v>
   <v name="WPLASMA">      0.00000000      0.00000000      0.00000000      0.00000000      0.00000000      0.00000000      0.00000000      0.00000000      0.00000000</v>
  </separator>
  <separator name="orbital magnetization" >
   <i type="logical" name="NUCIND"> F  </i>
   <v name="MAGPOS">      0.00000000      0.00000000      0.00000000</v>
   <i type="logical" name="LNICSALL"> T  </i>
   <i type="logical" name="ORBITALMAG"> F  </i>
   <i type="logical" name="LMAGBLOCH"> F  </i>
   <i type="logical" name="LCHIMAG"> F  </i>
   <i type="logical" name="LGAUGE"> T  </i>
   <i type="int" name="MAGATOM">     0</i>
   <v name="MAGDIPOL">      0.00000000      0.00000000      0.00000000</v>
   <v name="AVECCONST">      0.00000000      0.00000000      0.00000000</v>
  </separator>
  <separator name="response functions" >
   <i type="logical" name="LFINITE_TEMPERATURE"> F  </i>
   <i type="logical" name="LADDER"> F  </i>
   <i type="logical" name="LRPAFORCE"> F  </i>
   <i type="logical" name="LFXC"> F  </i>
   <i type="logical" name="LHARTREE"> T  </i>
   <i type="int" name="IBSE">     0</i>
   <v type="int" name="KPOINT">    -1     0     0     0</v>
   <i type="logical" name="LTCTC"> F  </i>
   <i type="logical" name="LTCTE"> F  </i>
   <i type="logical" name="LTETE"> F  </i>
   <i type="logical" name="LTRIPLET"> F  </i>
   <i type="logical" name="LFXCEPS"> F  </i>
   <i type="logical" name="LFXHEG"> F  </i>
   <i type="int" name="NATURALO">     2</i>
   <i type="logical" name="LHOLEGF"> F  </i>
   <i type="logical" name="L2ORDER"> F  </i>
   <i type="logical" name="LDMP1"> F  </i>
   <i type="logical" name="LMP2LT"> F  </i>
   <i type="logical" name="LSMP2LT"> F  </i>
   <i type="logical" name="LGWLF"> F  </i>
   <i name="ENCUTGW">     -2.00000000</i>
   <i name="ENCUTGWSOFT">     -2.00000000</i>
   <i name="ENCUTLF">     -1.00000000</i>
   <i type="logical" name="LESF_SPLINES"> F  </i>
   <i type="int" name="LMAXMP2">    -1</i>
   <i name="SCISSOR">      0.00000000</i>
   <i type="int" name="NOMEGA">     0</i>
   <i type="int" name="NOMEGAR">     0</i>
   <i type="int" name="NBANDSGW">    -1</i>
   <i type="int" name="NBANDSO">    -1</i>
   <i type="int" name="NBANDSV">    -1</i>
   <i type="int" name="NELM">     1</i>
   <i type="int" name="NELMHF">     1</i>
   <i type="int" name="DIM">     3</i>
   <i type="int" name="IESPILON">     4</i>
   <i type="int" name="ANTIRES">     0</i>
   <i name="OMEGAMAX">    -30.00000000</i>
   <i name="OMEGAMIN">    -30.00000000</i>
   <i name="OMEGATL">   -200.00000000</i>
   <i type="int" name="OMEGAGRID">     0</i>
   <i name="CSHIFT">     -0.10000000</i>
   <i type="logical" name="LSELFENERGY"> F  </i>
   <i type="logical" name="LSPECTRAL"> F  </i>
   <i type="logical" name="LSPECTRALGW"> F  </i>
   <i type="logical" name="LSINGLES"> F  </i>
   <i type="logical" name="LFERMIGW"> F  </i>
   <i type="logical" name="ODDONLYGW"> F  </i>
   <i type="logical" name="EVENONLYGW"> F  </i>
   <i type="int" name="NKREDLFX">     1</i>
   <i type="int" name="NKREDLFY">     1</i>
   <i type="int" name="NKREDLFZ">     1</i>
   <i type="int" name="MAXMEM">  2800</i>
   <i type="int" name="TELESCOPE">     0</i>
   <i type="int" name="NTAUPAR">    -1</i>
   <i type="int" name="NOMEGAPAR">    -1</i>
   <i name="DAMP_NEWTON">      0.80000001</i>
   <i name="LAMBDA">      1.00000000</i>
  </separator>
  <separator name="External order field" >
   <i name="OFIELD_KAPPA">      0.00000000</i>
   <v name="OFIELD_K">      0.00000000      0.00000000      0.00000000</v>
   <i name="OFIELD_Q6_NEAR">      0.00000000</i>
   <i name="OFIELD_Q6_FAR">      0.00000000</i>
   <i name="OFIELD_A">      0.00000000</i>
  </separator>
 </parameters>
 <atominfo>
  <atoms>       4 </atoms>
  <types>       1 </types>
  <array name="atoms" >
   <dimension dim="1">ion</dimension>
   <field type="string">element</field>
   <field type="int">atomtype</field>
   <set>
    <rc><c>Cu</c><c>   1</c></rc>
    <rc><c>Cu</c><c>   1</c></rc>
    <rc><c>Cu</c><c>   1</c></rc>
    <rc><c>Cu</c><c>   1</c></rc>
   </set>
  </array>
  <array name="atomtypes" >
   <dimension dim="1">type</dimension>
   <field type="int">atomspertype</field>
   <field type="string">element</field>
   <field>mass</field>
   <field>valence</field>
   <field type="string">pseudopotential</field>
   <set>
    <rc><c>   4</c><c>Cu</c><c>     63.54600000</c><c>     11.00000000</c><c>  PAW_PBE Cu 22Jun2005                  </c></rc>
   </set>
  </array>
 </atominfo>
 <structure name="initialpos" >
  <crystal>
   <varray name="basis" >
    <v>       3.63500000       0.00000000       0.00000000 </v>
    <v>       0.00000000       3.63500000       0.00000000 </v>
    <v>       0.00000000       0.00000000       3.63500000 </v>
   </varray>
   <i name="volume">     48.03007287 </i>
   <varray name="rec_basis" >
    <v>       0.27510316       0.00000000       0.00000000 </v>
    <v>       0.00000000       0.27510316       0.00000000 </v>
    <v>       0.00000000       0.00000000       0.27510316 </v>
   </varray>
  </crystal>
  <varray name="positions" >
   <v>       0.00000000       0.00000000       0.00000000 </v>
   <v>       0.50000000       0.50000000       0.00000000 </v>
   <v>       0.50000000       0.00000000       0.50000000 </v>
   <v>       0.00000000       0.50000000       0.50000000 </v>
  </varray>
 </structure>
 <calculation>
  <scstep>
   <time name="dav">    0.16    0.18</time>
   <time name="total">    0.17    0.19</time>
   <energy>
    <i name="alphaZ">    243.62337785 </i>
    <i name="ewald">  -4395.34838493 </i>
    <i name="hartreedc">  -1460.68397545 </i>
    <i name="XCdc">    182.95596869 </i>
    <i name="pawpsdc">   4912.82663951 </i>
    <i name="pawaedc">  -5336.19386850 </i>
    <i name="eentropy">      0.00095426 </i>
    <i name="bandstr">    567.29945996 </i>
    <i name="atom">   5563.72466358 </i>
    <i name="e_fr_energy">    278.20483496 </i>
    <i name="e_wo_entrp">    278.20388070 </i>
    <i name="e_0_energy">    278.20451688 </i>
   </energy>
  </scstep>
  <scstep>
   <time name="dav">    0.11    0.11</time>
   <time name="total">    0.11    0.11</time>
   <energy>
    <i name="e_fr_energy">      2.28426598 </i>
    <i name="e_wo_entrp">      2.29068012 </i>
    <i name="e_0_energy">      2.28640403 </i>
   </energy>
  </scstep>
  <scstep>
   <time name="dav">    0.11    0.11</time>
   <time name="total">    0.11    0.11</time>
   <energy>
    <i name="e_fr_energy">    -18.07190376 </i>
    <i name="e_wo_entrp">    -18.05343677 </i>
    <i name="e_0_energy">    -18.06574810 </i>
   </energy>
  </scstep>
  <scstep>
   <time name="dav">    0.12    0.12</time>
   <time name="total">    0.12    0.12</time>
   <energy>
    <i name="e_fr_energy">    -18.41857897 </i>
    <i name="e_wo_entrp">    -18.39984857 </i>
    <i name="e_0_energy">    -18.41233550 </i>
   </energy>
  </scstep>
  <scstep>
   <time name="dav">    0.13    0.13</time>
   <time name="total">    0.14    0.14</time>
   <energy>
    <i name="e_fr_energy">    -18.42326564 </i>
    <i name="e_wo_entrp">    -18.40453324 </i>
    <i name="e_0_energy">    -18.41702151 </i>
   </energy>
  </scstep>
  <scstep>
   <time name="dav">    0.12    0.12</time>
   <time name="total">    0.14    0.14</time>
   <energy>
    <i name="e_fr_energy">    -16.30939148 </i>
    <i name="e_wo_entrp">    -16.30919578 </i>
    <i name="e_0_energy">    -16.30932625 </i>
   </energy>
  </scstep>
  <scstep>
   <time name="dav">    0.12    0.12</time>
   <time name="total">    0.14    0.14</time>
   <energy>
    <i name="e_fr_energy">    -14.79564083 </i>
    <i name="e_wo_entrp">    -14.76289598 </i>
    <i name="e_0_energy">    -14.78472588 </i>
   </energy>
  </scstep>
  <scstep>
   <time name="dav">    0.12    0.12</time>
   <time name="total">    0.14    0.14</time>
   <energy>
    <i name="e_fr_energy">    -14.76212351 </i>
    <i name="e_wo_entrp">    -14.72961587 </i>
    <i name="e_0_energy">    -14.75128763 </i>
   </energy>
  </scstep>
  <scstep>
   <time name="dav">    0.12    0.12</time>
   <time name="total">    0.14    0.14</time>
   <energy>
    <i name="e_fr_energy">    -14.75452468 </i>
    <i name="e_wo_entrp">    -14.72522296 </i>
    <i name="e_0_energy">    -14.74475744 </i>
   </energy>
  </scstep>
  <scstep>
   <time name="dav">    0.14    0.14</time>
   <time name="total">    0.16    0.16</time>
   <energy>
    <i name="e_fr_energy">    -14.75460406 </i>
    <i name="e_wo_entrp">    -14.72497642 </i>
    <i name="e_0_energy">    -14.74472818 </i>
   </energy>
  </scstep>
  <scstep>
   <time name="dav">    0.12    0.12</time>
   <time name="total">    0.14    0.14</time>
   <energy>
    <i name="e_fr_energy">    -14.75459641 </i>
    <i name="e_wo_entrp">    -14.72509913 </i>
    <i name="e_0_energy">    -14.74476398 </i>
   </energy>
  </scstep>
  <scstep>
   <time name="dav">    0.10    0.10</time>
   <time name="total">    0.12    0.12</time>
   <energy>
    <i name="e_fr_energy">    -14.75459812 </i>
    <i name="e_wo_entrp">    -14.72509857 </i>
    <i name="e_0_energy">    -14.74476493 </i>
   </energy>
  </scstep>
  <scstep>
   <time name="dav">    0.08    0.08</time>
   <time name="total">    0.09    0.09</time>
   <energy>
    <i name="alphaZ">    243.62337785 </i>
    <i name="ewald">  -4395.34838493 </i>
    <i name="hartreedc">  -1368.30221866 </i>
    <i name="XCdc">    178.57030129 </i>
    <i name="pawpsdc">   5249.56486437 </i>
    <i name="pawaedc">  -5680.15976522 </i>
    <i name="eentropy">     -0.02949551 </i>
    <i name="bandstr">    193.60205859 </i>
    <i name="atom">   5563.72466358 </i>
    <i name="e_fr_energy">    -14.75459865 </i>
    <i name="e_wo_entrp">    -14.72510314 </i>
    <i name="e_0_energy">    -14.74476682 </i>
   </energy>
  </scstep>
  <structure>
   <crystal>
    <varray name="basis" >
     <v>       3.63500000       0.00000000       0.00000000 </v>
     <v>       0.00000000       3.63500000       0.00000000 </v>
     <v>       0.00000000       0.00000000       3.63500000 </v>
    </varray>
    <i name="volume">     48.03007287 </i>
    <varray name="rec_basis" >
     <v>       0.27510316       0.00000000       0.00000000 </v>
     <v>       0.00000000       0.27510316       0.00000000 </v>
     <v>       0.00000000       0.00000000       0.27510316 </v>
    </varray>
   </crystal>
   <varray name="positions" >
    <v>       0.00000000       0.00000000       0.00000000 </v>
    <v>       0.50000000       0.50000000       0.00000000 </v>
    <v>       0.50000000       0.00000000       0.50000000 </v>
    <v>       0.00000000       0.50000000       0.50000000 </v>
   </varray>
  </structure>
  <varray name="forces" >
   <v>       0.00000000       0.00000000      -0.00000000 </v>
   <v>      -0.00000000      -0.00000000       0.00000000 </v>
   <v>       0.00000000      -0.00000000      -0.00000000 </v>
   <v>      -0.00000000      -0.00000000       0.00000000 </v>
  </varray>
  <varray name="stress" >
   <v>     -46.66898560       0.00000000       0.00000000 </v>
   <v>      -0.00000000     -46.66898560       0.00000000 </v>
   <v>      -0.00000000      -0.00000000     -46.66898560 </v>
  </varray>
  <energy>
   <i name="e_fr_energy">    -14.75459865 </i>
   <i name="e_wo_entrp">    -14.72510314 </i>
   <i name="e_0_energy">    -14.74476682 </i>
  </energy>
  <time name="totalsc">    1.85    1.87</time>
  <eigenvalues>
   <array>
    <dimension dim="1">band</dimension>
    <dimension dim="2">kpoint</dimension>
    <dimension dim="3">spin</dimension>
    <field>eigene</field>
    <field>occ</field>
    <set>
     <set comment="spin 1">
      <set comment="kpoint 1">
       <r>   -1.8430    1.0000 </r>
       <r>    2.6071    1.0000 </r>
       <r>    2.6071    1.0000 </r>
       <r>    2.6071    1.0000 </r>
       <r>    3.0484    1.0000 </r>
       <r>    3.0484    1.0000 </r>
       <r>    3.0484    1.0000 </r>
       <r>    4.4054    1.0000 </r>
       <r>    4.4054    1.0000 </r>
       <r>    4.4054    1.0000 </r>
       <r>    5.2118    1.0000 </r>
       <r>    5.2118    1.0000 </r>
       <r>    5.7481    1.0000 </r>
       <r>    5.7481    1.0000 </r>
       <r>    5.7481    1.0000 </r>
       <r>    5.8997    1.0000 </r>
       <r>    5.8997    1.0000 </r>
       <r>    5.8997    1.0000 </r>
       <r>    5.8997    1.0000 </r>
       <r>    5.8997    1.0000 </r>
       <r>    5.8997    1.0000 </r>
       <r>    8.8942   -0.0000 </r>
       <r>    8.8942   -0.0000 </r>
       <r>    8.8942   -0.0000 </r>
       <r>   14.3797    0.0000 </r>
       <r>   14.3797    0.0000 </r>
       <r>   14.3797    0.0000 </r>
       <r>   20.3368    0.0000 </r>
       <r>   20.3368    0.0000 </r>
       <r>   20.3368    0.0000 </r>
      </set>
      <set comment="kpoint 2">
       <r>   -1.3662    1.0000 </r>
       <r>    2.5586    1.0000 </r>
       <r>    2.8144    1.0000 </r>
       <r>    2.8144    1.0000 </r>
       <r>    3.1711    1.0000 </r>
       <r>    3.1817    1.0000 </r>
       <r>    3.1817    1.0000 </r>
       <r>    4.2706    1.0000 </r>
       <r>    4.5185    1.0000 </r>
       <r>    4.5185    1.0000 </r>
       <r>    5.0888    1.0000 </r>
       <r>    5.2525    1.0000 </r>
       <r>    5.2525    1.0000 </r>
       <r>    5.2618    1.0000 </r>
       <r>    5.5879    1.0000 </r>
       <r>    5.5879    1.0000 </r>
       <r>    5.6959    1.0000 </r>
       <r>    5.7125    1.0000 </r>
       <r>    5.7125    1.0000 </r>
       <r>    5.8998    1.0000 </r>
       <r>    5.8998    1.0000 </r>
       <r>    6.8312    1.0068 </r>
       <r>    9.9697   -0.0000 </r>
       <r>    9.9697   -0.0000 </r>
       <r>   14.5645    0.0000 </r>
       <r>   14.5645    0.0000 </r>
       <r>   17.4245    0.0000 </r>
       <r>   18.0894    0.0000 </r>
       <r>   18.0894    0.0000 </r>
       <r>   18.7536    0.0000 </r>
      </set>
      <set comment="kpoint 3">
       <r>   -0.0105    1.0000 </r>
       <r>    1.7646    1.0000 </r>
       <r>    3.2351    1.0000 </r>
       <r>    3.2351    1.0000 </r>
       <r>    3.5004    1.0000 </r>
       <r>    3.5954    1.0000 </r>
       <r>    3.5954    1.0000 </r>
       <r>    3.9210    1.0000 </r>
       <r>    4.3071    1.0000 </r>
       <r>    4.3071    1.0000 </r>
       <r>    4.8246    1.0000 </r>
       <r>    4.8331    1.0000 </r>
       <r>    4.8331    1.0000 </r>
       <r>    4.9466    1.0000 </r>
       <r>    5.2460    1.0000 </r>
       <r>    5.2460    1.0000 </r>
       <r>    5.2822    1.0000 </r>
       <r>    5.2822    1.0000 </r>
       <r>    5.3957    1.0000 </r>
       <r>    5.5600    1.0000 </r>
       <r>    5.8971    1.0000 </r>
       <r>    5.8971    1.0000 </r>
       <r>   12.1924   -0.0000 </r>
       <r>   12.1924   -0.0000 </r>
       <r>   14.9670    0.0000 </r>
       <r>   14.9670    0.0000 </r>
       <r>   15.2041    0.0000 </r>
       <r>   15.2041    0.0000 </r>
       <r>   16.6372    0.0000 </r>
       <r>   16.6372    0.0000 </r>
      </set>
      <set comment="kpoint 4">
       <r>   -0.9016    1.0000 </r>
       <r>    2.8010    1.0000 </r>
       <r>    2.8010    1.0000 </r>
       <r>    2.9937    1.0000 </r>
       <r>    3.2867    1.0000 </r>
       <r>    3.2906    1.0000 </r>
       <r>    3.2906    1.0000 </r>
       <r>    4.2124    1.0000 </r>
       <r>    4.5577    1.0000 </r>
       <r>    4.5651    1.0000 </r>
       <r>    4.9298    1.0000 </r>
       <r>    4.9298    1.0000 </r>
       <r>    4.9452    1.0000 </r>
       <r>    5.0700    1.0000 </r>
       <r>    5.2820    1.0000 </r>
       <r>    5.4619    1.0000 </r>
       <r>    5.5820    1.0000 </r>
       <r>    5.5820    1.0000 </r>
       <r>    5.7112    1.0000 </r>
       <r>    5.7112    1.0000 </r>
       <r>    5.7736    1.0000 </r>
       <r>    7.8505   -0.0001 </r>
       <r>    7.8505   -0.0001 </r>
       <r>   10.8355   -0.0000 </r>
       <r>   14.5207    0.0000 </r>
       <r>   14.9906    0.0000 </r>
       <r>   17.7560    0.0000 </r>
       <r>   17.7560    0.0000 </r>
       <r>   18.6769    0.0000 </r>
       <r>   18.6769    0.0000 </r>
      </set>
      <set comment="kpoint 5">
       <r>    0.4103    1.0000 </r>
       <r>    2.0961    1.0000 </r>
       <r>    3.3204    1.0000 </r>
       <r>    3.3996    1.0000 </r>
       <r>    3.5509    1.0000 </r>
       <r>    3.5784    1.0000 </r>
       <r>    3.6542    1.0000 </r>
       <r>    3.9391    1.0000 </r>
       <r>    4.0734    1.0000 </r>
       <r>    4.2560    1.0000 </r>
       <r>    4.4568    1.0000 </r>
       <r>    4.5597    1.0000 </r>
       <r>    4.8427    1.0000 </r>
       <r>    5.0083    1.0000 </r>
       <r>    5.1922    1.0000 </r>
       <r>    5.2493    1.0000 </r>
       <r>    5.2813    1.0000 </r>
       <r>    5.3401    1.0000 </r>
       <r>    5.5257    1.0000 </r>
       <r>    5.7079    1.0000 </r>
       <r>    5.7161    1.0000 </r>
       <r>    6.0603    1.0000 </r>
       <r>    9.5498   -0.0000 </r>
       <r>   11.7505   -0.0000 </r>
       <r>   12.8719    0.0000 </r>
       <r>   15.5580    0.0000 </r>
       <r>   15.5622    0.0000 </r>
       <r>   17.0302    0.0000 </r>
       <r>   18.8431    0.0000 </r>
       <r>   20.2830    0.0000 </r>
      </set>
      <set comment="kpoint 6">
       <r>    1.5495    1.0000 </r>
       <r>    2.8633    1.0000 </r>
       <r>    2.8633    1.0000 </r>
       <r>    3.3765    1.0000 </r>
       <r>    3.7885    1.0000 </r>
       <r>    3.7982    1.0000 </r>
       <r>    3.7982    1.0000 </r>
       <r>    3.9225    1.0000 </r>
       <r>    4.0613    1.0000 </r>
       <r>    4.0613    1.0000 </r>
       <r>    4.0741    1.0000 </r>
       <r>    4.3921    1.0000 </r>
       <r>    4.8794    1.0000 </r>
       <r>    4.9683    1.0000 </r>
       <r>    5.0129    1.0000 </r>
       <r>    5.0612    1.0000 </r>
       <r>    5.0612    1.0000 </r>
       <r>    5.3029    1.0000 </r>
       <r>    5.3029    1.0000 </r>
       <r>    5.4309    1.0000 </r>
       <r>    6.0572    1.0000 </r>
       <r>    7.1445    0.8602 </r>
       <r>    7.1445    0.8602 </r>
       <r>    8.9014   -0.0000 </r>
       <r>   14.6525    0.0000 </r>
       <r>   16.5212    0.0000 </r>
       <r>   17.1872    0.0000 </r>
       <r>   17.1872    0.0000 </r>
       <r>   18.2889    0.0000 </r>
       <r>   18.2889    0.0000 </r>
      </set>
      <set comment="kpoint 7">
       <r>   -0.4553    1.0000 </r>
       <r>    2.9750    1.0000 </r>
       <r>    2.9750    1.0000 </r>
       <r>    2.9750    1.0000 </r>
       <r>    3.3976    1.0000 </r>
       <r>    3.3976    1.0000 </r>
       <r>    3.3976    1.0000 </r>
       <r>    4.1902    1.0000 </r>
       <r>    4.5643    1.0000 </r>
       <r>    4.5643    1.0000 </r>
       <r>    4.6949    1.0000 </r>
       <r>    4.6949    1.0000 </r>
       <r>    4.6949    1.0000 </r>
       <r>    5.2087    1.0000 </r>
       <r>    5.2087    1.0000 </r>
       <r>    5.2508    1.0000 </r>
       <r>    5.2508    1.0000 </r>
       <r>    5.2508    1.0000 </r>
       <r>    5.8139    1.0000 </r>
       <r>    5.8139    1.0000 </r>
       <r>    5.8139    1.0000 </r>
       <r>    8.4825   -0.0000 </r>
       <r>    8.4825   -0.0000 </r>
       <r>    8.4825   -0.0000 </r>
       <r>   15.3000    0.0000 </r>
       <r>   15.3000    0.0000 </r>
       <r>   15.3000    0.0000 </r>
       <r>   18.1220    0.0000 </r>
       <r>   18.1220    0.0000 </r>
       <r>   18.1220    0.0000 </r>
      </set>
      <set comment="kpoint 8">
       <r>    0.7867    1.0000 </r>
       <r>    2.3199    1.0000 </r>
       <r>    3.3008    1.0000 </r>
       <r>    3.3008    1.0000 </r>
       <r>    3.6447    1.0000 </r>
       <r>    3.6447    1.0000 </r>
       <r>    3.7027    1.0000 </r>
       <r>    4.0130    1.0000 </r>
       <r>    4.2482    1.0000 </r>
       <r>    4.2482    1.0000 </r>
       <r>    4.3683    1.0000 </r>
       <r>    4.5172    1.0000 </r>
       <r>    4.6569    1.0000 </r>
       <r>    4.9107    1.0000 </r>
       <r>    5.0390    1.0000 </r>
       <r>    5.0390    1.0000 </r>
       <r>    5.3116    1.0000 </r>
       <r>    5.4847    1.0000 </r>
       <r>    5.7237    1.0000 </r>
       <r>    5.7300    1.0000 </r>
       <r>    5.7300    1.0000 </r>
       <r>    6.2467    1.0000 </r>
       <r>    9.8448   -0.0000 </r>
       <r>    9.8448   -0.0000 </r>
       <r>   12.5005   -0.0000 </r>
       <r>   12.5005   -0.0000 </r>
       <r>   16.8332    0.0000 </r>
       <r>   19.1412    0.0000 </r>
       <r>   19.2215    0.0000 </r>
       <r>   19.2215    0.0000 </r>
      </set>
      <set comment="kpoint 9">
       <r>    1.7448    1.0000 </r>
       <r>    2.7291    1.0000 </r>
       <r>    2.7291    1.0000 </r>
       <r>    3.0450    1.0000 </r>
       <r>    3.9490    1.0000 </r>
       <r>    4.0487    1.0000 </r>
       <r>    4.0487    1.0000 </r>
       <r>    4.2006    1.0000 </r>
       <r>    4.2749    1.0000 </r>
       <r>    4.2749    1.0000 </r>
       <r>    4.4166    1.0000 </r>
       <r>    4.4198    1.0000 </r>
       <r>    4.5782    1.0000 </r>
       <r>    4.7475    1.0000 </r>
       <r>    4.7475    1.0000 </r>
       <r>    4.7650    1.0000 </r>
       <r>    5.3338    1.0000 </r>
       <r>    5.6126    1.0000 </r>
       <r>    5.6126    1.0000 </r>
       <r>    5.6317    1.0000 </r>
       <r>    5.9367    1.0000 </r>
       <r>    7.1773    0.7548 </r>
       <r>    7.1773    0.7548 </r>
       <r>    8.8294   -0.0000 </r>
       <r>   11.9361   -0.0000 </r>
       <r>   13.9053    0.0000 </r>
       <r>   13.9053    0.0000 </r>
       <r>   16.1315    0.0000 </r>
       <r>   20.4260    0.0000 </r>
       <r>   22.4076    0.0000 </r>
      </set>
      <set comment="kpoint 10">
       <r>    2.1418    1.0000 </r>
       <r>    2.5719    1.0000 </r>
       <r>    2.5719    1.0000 </r>
       <r>    2.5719    1.0000 </r>
       <r>    4.2551    1.0000 </r>
       <r>    4.2551    1.0000 </r>
       <r>    4.2551    1.0000 </r>
       <r>    4.4175    1.0000 </r>
       <r>    4.4175    1.0000 </r>
       <r>    4.4948    1.0000 </r>
       <r>    4.4948    1.0000 </r>
       <r>    4.4948    1.0000 </r>
       <r>    4.9618    1.0000 </r>
       <r>    4.9618    1.0000 </r>
       <r>    4.9618    1.0000 </r>
       <r>    5.1823    1.0000 </r>
       <r>    5.6548    1.0000 </r>
       <r>    5.6548    1.0000 </r>
       <r>    5.7675    1.0000 </r>
       <r>    5.7675    1.0000 </r>
       <r>    5.7675    1.0000 </r>
       <r>    7.2803    0.3368 </r>
       <r>    7.2803    0.3368 </r>
       <r>    7.2803    0.3368 </r>
       <r>   11.4838   -0.0000 </r>
       <r>   11.4838   -0.0000 </r>
       <r>   11.4838   -0.0000 </r>
       <r>   13.2465    0.0000 </r>
       <r>   25.6840    0.0000 </r>
       <r>   25.6840    0.0000 </r>
      </set>
     </set>
    </set>
   </array>
  </eigenvalues>
  <separator name="orbital magnetization" >
   <v name="MAGDIPOLOUT">      0.00000000      0.00000000      0.00000000</v>
  </separator>
  <dos>
   <i name="efermi">      7.24093981 </i>
   <total>
    <array>
     <dimension dim="1">gridpoints</dimension>
     <dimension dim="2">spin</dimension>
     <field>energy</field>
     <field>total</field>
     <field>integrated</field>
     <set>
      <set comment="spin 1">
       <r>    -3.8430     0.0000     0.0000 </r>
       <r>    -3.7379     0.0000     0.0000 </r>
       <r>    -3.6328     0.0000     0.0000 </r>
       <r>    -3.5277    -0.0000    -0.0000 </r>
       <r>    -3.4226    -0.0000    -0.0000 </r>
       <r>    -3.3175    -0.0000    -0.0000 </r>
       <r>    -3.2124    -0.0000    -0.0000 </r>
       <r>    -3.1074    -0.0000    -0.0000 </r>
       <r>    -3.0023    -0.0000    -0.0000 </r>
       <r>    -2.8972    -0.0000    -0.0000 </r>
       <r>    -2.7921    -0.0000    -0.0000 </r>
       <r>    -2.6870    -0.0000    -0.0000 </r>
       <r>    -2.5819    -0.0000    -0.0000 </r>
       <r>    -2.4768    -0.0000    -0.0000 </r>
       <r>    -2.3717    -0.0001    -0.0000 </r>
       <r>    -2.2666    -0.0007    -0.0001 </r>
       <r>    -2.1615    -0.0027    -0.0004 </r>
       <r>    -2.0565    -0.0011    -0.0005 </r>
       <r>    -1.9514     0.0210     0.0017 </r>
       <r>    -1.8463     0.0561     0.0076 </r>
       <r>    -1.7412     0.0501     0.0129 </r>
       <r>    -1.6361     0.0035     0.0132 </r>
       <r>    -1.5310     0.0337     0.0168 </r>
       <r>    -1.4259     0.2292     0.0409 </r>
       <r>    -1.3208     0.3801     0.0808 </r>
       <r>    -1.2157     0.2310     0.1051 </r>
       <r>    -1.1106     0.0445     0.1098 </r>
       <r>    -1.0056     0.2520     0.1362 </r>
       <r>    -0.9005     0.6897     0.2087 </r>
       <r>    -0.7954     0.6775     0.2799 </r>
       <r>    -0.6903     0.2414     0.3053 </r>
       <r>    -0.5852     0.1031     0.3161 </r>
       <r>    -0.4801     0.3750     0.3555 </r>
       <r>    -0.3750     0.4865     0.4067 </r>
       <r>    -0.2699     0.2287     0.4307 </r>
       <r>    -0.1648     0.0640     0.4374 </r>
       <r>    -0.0597     0.2235     0.4609 </r>
       <r>     0.0453     0.3406     0.4967 </r>
       <r>     0.1504     0.1631     0.5138 </r>
       <r>     0.2555     0.2257     0.5376 </r>
       <r>     0.3606     0.9862     0.6412 </r>
       <r>     0.4657     1.4896     0.7977 </r>
       <r>     0.5708     0.9382     0.8963 </r>
       <r>     0.6759     0.6450     0.9641 </r>
       <r>     0.7810     1.2883     1.0995 </r>
       <r>     0.8861     1.3960     1.2462 </r>
       <r>     0.9912     0.5736     1.3065 </r>
       <r>     1.0962    -0.0124     1.3052 </r>
       <r>     1.2013    -0.0969     1.2950 </r>
       <r>     1.3064    -0.0701     1.2876 </r>
       <r>     1.4115     0.0718     1.2952 </r>
       <r>     1.5166     0.5123     1.3490 </r>
       <r>     1.6217     1.2198     1.4772 </r>
       <r>     1.7268     1.9280     1.6798 </r>
       <r>     1.8319     1.8141     1.8705 </r>
       <r>     1.9370     0.9937     1.9749 </r>
       <r>     2.0421     1.1325     2.0939 </r>
       <r>     2.1471     2.0205     2.3062 </r>
       <r>     2.2522     2.1916     2.5366 </r>
       <r>     2.3573     1.7559     2.7211 </r>
       <r>     2.4624     1.4526     2.8738 </r>
       <r>     2.5675     2.1720     3.1020 </r>
       <r>     2.6726     4.1651     3.5397 </r>
       <r>     2.7777     6.2558     4.1971 </r>
       <r>     2.8828     6.7121     4.9025 </r>
       <r>     2.9879     5.5751     5.4884 </r>
       <r>     3.0930     4.4815     5.9594 </r>
       <r>     3.1980     5.6989     6.5583 </r>
       <r>     3.3031     9.3767     7.5437 </r>
       <r>     3.4082    10.6544     8.6633 </r>
       <r>     3.5133     9.0925     9.6189 </r>
       <r>     3.6184     9.2178    10.5876 </r>
       <r>     3.7235     9.1711    11.5514 </r>
       <r>     3.8286     7.2354    12.3117 </r>
       <r>     3.9337     7.6931    13.1202 </r>
       <r>     4.0388    10.8672    14.2622 </r>
       <r>     4.1439    13.3306    15.6631 </r>
       <r>     4.2490    15.4484    17.2866 </r>
       <r>     4.3540    16.8265    19.0549 </r>
       <r>     4.4591    16.4731    20.7861 </r>
       <r>     4.5642    15.1336    22.3765 </r>
       <r>     4.6693    12.7551    23.7169 </r>
       <r>     4.7744    11.2560    24.8998 </r>
       <r>     4.8795    12.3485    26.1975 </r>
       <r>     4.9846    14.2258    27.6925 </r>
       <r>     5.0897    14.1450    29.1790 </r>
       <r>     5.1948    14.5098    30.7038 </r>
       <r>     5.2999    16.4984    32.4377 </r>
       <r>     5.4049    14.5337    33.9650 </r>
       <r>     5.5100    11.5137    35.1750 </r>
       <r>     5.6151    14.7993    36.7303 </r>
       <r>     5.7202    19.6435    38.7946 </r>
       <r>     5.8253    17.2332    40.6056 </r>
       <r>     5.9304     9.8728    41.6432 </r>
       <r>     6.0355     4.8925    42.1573 </r>
       <r>     6.1406     3.0305    42.4758 </r>
       <r>     6.2457     2.1574    42.7025 </r>
       <r>     6.3508     1.3032    42.8395 </r>
       <r>     6.4558     0.3803    42.8794 </r>
       <r>     6.5609    -0.0827    42.8707 </r>
       <r>     6.6660    -0.0527    42.8652 </r>
       <r>     6.7711     0.1268    42.8785 </r>
       <r>     6.8762     0.1373    42.8930 </r>
       <r>     6.9813     0.3689    42.9317 </r>
       <r>     7.0864     2.3305    43.1766 </r>
       <r>     7.1915     5.1670    43.7196 </r>
       <r>     7.2966     5.1394    44.2597 </r>
       <r>     7.4017     2.3277    44.5044 </r>
       <r>     7.5067     0.1837    44.5237 </r>
       <r>     7.6118    -0.2768    44.4946 </r>
       <r>     7.7169     0.2224    44.5179 </r>
       <r>     7.8220     1.1840    44.6424 </r>
       <r>     7.9271     1.5264    44.8028 </r>
       <r>     8.0322     0.7697    44.8837 </r>
       <r>     8.1373     0.0128    44.8850 </r>
       <r>     8.2424    -0.1442    44.8699 </r>
       <r>     8.3475     0.2732    44.8986 </r>
       <r>     8.4526     1.1433    45.0187 </r>
       <r>     8.5576     1.4201    45.1680 </r>
       <r>     8.6627     0.8827    45.2607 </r>
       <r>     8.7678     1.1915    45.3859 </r>
       <r>     8.8729     2.2393    45.6213 </r>
       <r>     8.9780     1.9993    45.8314 </r>
       <r>     9.0831     0.6909    45.9040 </r>
       <r>     9.1882    -0.0814    45.8954 </r>
       <r>     9.2933    -0.1716    45.8774 </r>
       <r>     9.3984     0.1578    45.8940 </r>
       <r>     9.5035     0.9370    45.9925 </r>
       <r>     9.6085     1.4166    46.1413 </r>
       <r>     9.7136     1.5729    46.3066 </r>
       <r>     9.8187     2.6884    46.5891 </r>
       <r>     9.9238     3.4924    46.9562 </r>
       <r>    10.0289     2.2620    47.1939 </r>
       <r>    10.1340     0.5739    47.2542 </r>
       <r>    10.2391    -0.0860    47.2451 </r>
       <r>    10.3442    -0.0975    47.2349 </r>
       <r>    10.4493    -0.0418    47.2305 </r>
       <r>    10.5544    -0.0432    47.2260 </r>
       <r>    10.6594     0.0431    47.2305 </r>
       <r>    10.7645     0.4157    47.2742 </r>
       <r>    10.8696     0.7716    47.3553 </r>
       <r>    10.9747     0.5748    47.4157 </r>
       <r>    11.0798     0.1166    47.4279 </r>
       <r>    11.1849    -0.1100    47.4164 </r>
       <r>    11.2900    -0.0106    47.4153 </r>
       <r>    11.3951     0.6202    47.4804 </r>
       <r>    11.5002     1.3981    47.6274 </r>
       <r>    11.6053     1.4775    47.7826 </r>
       <r>    11.7103     1.4580    47.9359 </r>
       <r>    11.8154     1.8984    48.1354 </r>
       <r>    11.9205     2.0868    48.3547 </r>
       <r>    12.0256     1.6315    48.5261 </r>
       <r>    12.1307     0.9639    48.6274 </r>
       <r>    12.2358     0.6086    48.6914 </r>
       <r>    12.3409     0.7828    48.7736 </r>
       <r>    12.4460     2.0298    48.9869 </r>
       <r>    12.5511     3.0227    49.3046 </r>
       <r>    12.6562     1.9761    49.5123 </r>
       <r>    12.7613     0.8503    49.6016 </r>
       <r>    12.8663     1.2013    49.7279 </r>
       <r>    12.9714     1.3252    49.8671 </r>
       <r>    13.0765     0.6023    49.9304 </r>
       <r>    13.1816     0.2872    49.9606 </r>
       <r>    13.2867     0.4478    50.0077 </r>
       <r>    13.3918     0.3423    50.0436 </r>
       <r>    13.4969     0.0339    50.0472 </r>
       <r>    13.6020    -0.1703    50.0293 </r>
       <r>    13.7071     0.0042    50.0297 </r>
       <r>    13.8122     1.2639    50.1626 </r>
       <r>    13.9172     2.9295    50.4704 </r>
       <r>    14.0223     2.6436    50.7482 </r>
       <r>    14.1274     0.8455    50.8371 </r>
       <r>    14.2325    -0.1341    50.8230 </r>
       <r>    14.3376    -0.0164    50.8213 </r>
       <r>    14.4427     0.7380    50.8988 </r>
       <r>    14.5478     1.7704    51.0849 </r>
       <r>    14.6529     2.0049    51.2956 </r>
       <r>    14.7580     1.1471    51.4161 </r>
       <r>    14.8631     0.6521    51.4847 </r>
       <r>    14.9681     1.1637    51.6070 </r>
       <r>    15.0732     1.5090    51.7655 </r>
       <r>    15.1783     1.5619    51.9297 </r>
       <r>    15.2834     1.9032    52.1297 </r>
       <r>    15.3885     2.0043    52.3403 </r>
       <r>    15.4936     2.4224    52.5949 </r>
       <r>    15.5987     3.0844    52.9190 </r>
       <r>    15.7038     2.1326    53.1431 </r>
       <r>    15.8089     0.4167    53.1869 </r>
       <r>    15.9140    -0.1827    53.1677 </r>
       <r>    16.0190     0.3772    53.2074 </r>
       <r>    16.1241     1.3232    53.3464 </r>
       <r>    16.2292     1.3915    53.4927 </r>
       <r>    16.3343     0.5771    53.5533 </r>
       <r>    16.4394     0.3420    53.5892 </r>
       <r>    16.5445     0.9212    53.6860 </r>
       <r>    16.6496     1.3562    53.8286 </r>
       <r>    16.7547     1.5039    53.9866 </r>
       <r>    16.8598     1.7603    54.1716 </r>
       <r>    16.9649     2.0047    54.3823 </r>
       <r>    17.0699     2.2737    54.6212 </r>
       <r>    17.1750     2.3439    54.8676 </r>
       <r>    17.2801     1.7143    55.0477 </r>
       <r>    17.3852     0.7916    55.1309 </r>
       <r>    17.4903     0.2722    55.1595 </r>
       <r>    17.5954     0.2906    55.1901 </r>
       <r>    17.7005     0.9408    55.2889 </r>
       <r>    17.8056     1.4290    55.4391 </r>
       <r>    17.9107     0.9959    55.5437 </r>
       <r>    18.0158     1.0354    55.6526 </r>
       <r>    18.1208     2.2072    55.8845 </r>
       <r>    18.2259     2.8493    56.1839 </r>
       <r>    18.3310     2.1835    56.4134 </r>
       <r>    18.4361     0.9312    56.5113 </r>
       <r>    18.5412     0.3625    56.5494 </r>
       <r>    18.6463     1.2242    56.6780 </r>
       <r>    18.7514     2.4365    56.9341 </r>
       <r>    18.8565     2.4557    57.1921 </r>
       <r>    18.9616     1.4424    57.3437 </r>
       <r>    19.0667     1.5199    57.5034 </r>
       <r>    19.1717     3.4866    57.8699 </r>
       <r>    19.2768     4.2433    58.3158 </r>
       <r>    19.3819     2.2338    58.5505 </r>
       <r>    19.4870     0.2499    58.5768 </r>
       <r>    19.5921    -0.2091    58.5548 </r>
       <r>    19.6972    -0.0881    58.5456 </r>
       <r>    19.8023    -0.0205    58.5434 </r>
       <r>    19.9074    -0.0417    58.5390 </r>
       <r>    20.0125    -0.1079    58.5277 </r>
       <r>    20.1176     0.0584    58.5338 </r>
       <r>    20.2226     0.9806    58.6369 </r>
       <r>    20.3277     2.3188    58.8806 </r>
       <r>    20.4328     2.6879    59.1630 </r>
       <r>    20.5379     1.6527    59.3367 </r>
       <r>    20.6430     0.4027    59.3790 </r>
       <r>    20.7481    -0.0867    59.3699 </r>
       <r>    20.8532    -0.0749    59.3620 </r>
       <r>    20.9583    -0.0175    59.3602 </r>
       <r>    21.0634    -0.0019    59.3600 </r>
       <r>    21.1685    -0.0001    59.3600 </r>
       <r>    21.2735    -0.0000    59.3600 </r>
       <r>    21.3786    -0.0000    59.3600 </r>
       <r>    21.4837    -0.0000    59.3600 </r>
       <r>    21.5888    -0.0000    59.3600 </r>
       <r>    21.6939    -0.0000    59.3600 </r>
       <r>    21.7990    -0.0003    59.3600 </r>
       <r>    21.9041    -0.0036    59.3596 </r>
       <r>    22.0092    -0.0261    59.3568 </r>
       <r>    22.1143    -0.0764    59.3488 </r>
       <r>    22.2194     0.0410    59.3531 </r>
       <r>    22.3245     0.7219    59.4290 </r>
       <r>    22.4295     1.5077    59.5874 </r>
       <r>    22.5346     1.2530    59.7191 </r>
       <r>    22.6397     0.3638    59.7574 </r>
       <r>    22.7448    -0.0571    59.7514 </r>
       <r>    22.8499    -0.0561    59.7455 </r>
       <r>    22.9550    -0.0125    59.7441 </r>
       <r>    23.0601    -0.0013    59.7440 </r>
       <r>    23.1652    -0.0001    59.7440 </r>
       <r>    23.2703    -0.0000    59.7440 </r>
       <r>    23.3754    -0.0000    59.7440 </r>
       <r>    23.4804    -0.0000    59.7440 </r>
       <r>    23.5855    -0.0000    59.7440 </r>
       <r>    23.6906    -0.0000    59.7440 </r>
       <r>    23.7957     0.0000    59.7440 </r>
       <r>    23.9008     0.0000    59.7440 </r>
       <r>    24.0059    -0.0000    59.7440 </r>
       <r>    24.1110    -0.0000    59.7440 </r>
       <r>    24.2161    -0.0000    59.7440 </r>
       <r>    24.3212    -0.0000    59.7440 </r>
       <r>    24.4263    -0.0000    59.7440 </r>
       <r>    24.5313    -0.0000    59.7440 </r>
       <r>    24.6364    -0.0000    59.7440 </r>
       <r>    24.7415    -0.0000    59.7440 </r>
       <r>    24.8466    -0.0000    59.7440 </r>
       <r>    24.9517    -0.0000    59.7440 </r>
       <r>    25.0568    -0.0001    59.7440 </r>
       <r>    25.1619    -0.0016    59.7438 </r>
       <r>    25.2670    -0.0129    59.7425 </r>
       <r>    25.3721    -0.0461    59.7376 </r>
       <r>    25.4772    -0.0083    59.7367 </r>
       <r>    25.5822     0.3735    59.7760 </r>
       <r>    25.6873     0.9474    59.8756 </r>
       <r>    25.7924     0.9216    59.9724 </r>
       <r>    25.8975     0.3375    60.0079 </r>
       <r>    26.0026    -0.0180    60.0060 </r>
       <r>    26.1077    -0.0440    60.0014 </r>
       <r>    26.2128    -0.0116    60.0002 </r>
       <r>    26.3179    -0.0014    60.0000 </r>
       <r>    26.4230    -0.0001    60.0000 </r>
       <r>    26.5281    -0.0000    60.0000 </r>
       <r>    26.6331    -0.0000    60.0000 </r>
       <r>    26.7382    -0.0000    60.0000 </r>
       <r>    26.8433    -0.0000    60.0000 </r>
       <r>    26.9484    -0.0000    60.0000 </r>
       <r>    27.0535     0.0000    60.0000 </r>
       <r>    27.1586     0.0000    60.0000 </r>
       <r>    27.2637     0.0000    60.0000 </r>
       <r>    27.3688     0.0000    60.0000 </r>
       <r>    27.4739     0.0000    60.0000 </r>
       <r>    27.5790     0.0000    60.0000 </r>
       <r>    27.6840     0.0000    60.0000 </r>
      </set>
     </set>
    </array>
   </total>
  </dos>
 </calculation>
 <structure name="finalpos" >
  <crystal>
   <varray name="basis" >
    <v>       3.63500000       0.00000000       0.00000000 </v>
    <v>       0.00000000       3.63500000       0.00000000 </v>
    <v>       0.00000000       0.00000000       3.63500000 </v>
   </varray>
   <i name="volume">     48.03007287 </i>
   <varray name="rec_basis" >
    <v>       0.27510316       0.00000000       0.00000000 </v>
    <v>       0.00000000       0.27510316       0.00000000 </v>
    <v>       0.00000000       0.00000000       0.27510316 </v>
   </varray>
  </crystal>
  <varray name="positions" >
   <v>       0.00000000       0.00000000       0.00000000 </v>
   <v>       0.50000000       0.50000000       0.00000000 </v>
   <v>       0.50000000       0.00000000       0.50000000 </v>
   <v>       0.00000000       0.50000000       0.50000000 </v>
  </varray>
 </structure>
</modeling>
