 vasp.6.2.0 18Jan21 (build Mar 17 2021 09:06:54) complex                        
  
 POSCAR found type information on POSCAR Cu
 POSCAR found :  1 types and       4 ions
 LDA part: xc-table for Pade appr. of Perdew
 POSCAR, INCAR and KPOINTS ok, starting setup
 FFT: planning ...
 WAVECAR not read
 WARNING: chargedensity file is incomplete
 entering main loop
       N       E                     dE             d eps       ncg     rms          rms(c)
DAV:   1     0.278204834963E+03    0.27820E+03   -0.13807E+04   624   0.164E+03
DAV:   2     0.228426598410E+01   -0.27592E+03   -0.26619E+03   600   0.328E+02
DAV:   3    -0.180719037637E+02   -0.20356E+02   -0.19686E+02   654   0.129E+02
DAV:   4    -0.184185789724E+02   -0.34668E+00   -0.34633E+00   678   0.222E+01
DAV:   5    -0.184232656410E+02   -0.46867E-02   -0.46865E-02   744   0.248E+00    0.154E+01
DAV:   6    -0.163093914847E+02    0.21139E+01   -0.29973E+01   660   0.107E+02    0.821E+00
DAV:   7    -0.147956408343E+02    0.15138E+01   -0.57614E+00   672   0.450E+01    0.107E+00
DAV:   8    -0.147621235055E+02    0.33517E-01   -0.60800E-02   684   0.233E+00    0.659E-01
DAV:   9    -0.147545246774E+02    0.75988E-02   -0.14179E-02   678   0.231E+00    0.533E-02
DAV:  10    -0.147546040574E+02   -0.79380E-04   -0.81775E-04   806   0.383E-01    0.250E-02
DAV:  11    -0.147545964092E+02    0.76482E-05   -0.35138E-05   700   0.961E-02    0.153E-03
DAV:  12    -0.147545981165E+02   -0.17073E-05   -0.25403E-06   532   0.150E-02    0.978E-04
DAV:  13    -0.147545986521E+02   -0.53556E-06   -0.15181E-07   354   0.530E-03
   1 F= -.14754599E+02 E0= -.14744767E+02  d E =-.294955E-01
 writing wavefunctions
