unknown system                          
   1.00000000000000     
     3.862764    0.000000    0.000000
     0.000000    3.862764    0.000000
     0.000000    0.000000    3.862764
   Cu
     4
Direct
  0.000000  0.000000  0.000000
  0.500000  0.500000  0.000000
  0.500000  0.000000  0.500000
  0.000000  0.500000  0.500000
 
   36   36   36
  1019.5      966.89      824.11      629.13      426.61      252.99      129.02      58.244      28.993      19.881    
  14.475      10.979      8.9186      7.7567      7.0360      6.5065      6.1612      6.0259      6.0063      6.0259    
  6.1612      6.5065      7.0360      7.7567      8.9186      10.979      14.475      19.881      28.993      58.244    
  129.02      252.99      426.61      629.13      824.11      966.89      966.89      916.80      780.87      595.29    
  402.69      238.03      121.09      54.992      28.105      19.557      14.293      10.901      8.8991      7.7626    
  7.0516      6.5279      6.1849      6.0475      6.0259      6.0475      6.1849      6.5279      7.0516      7.7626    
  8.8991      10.901      14.293      19.557      28.105      54.992      121.09      238.03      402.69      595.29    
  780.87      916.80      824.11      780.87      663.55      503.54      338.11      197.93      100.15      46.655    
  25.888      18.636      13.789      10.696      8.8639      7.8079      7.1367      6.6427      6.3192      6.1849    
  6.1612      6.1849      6.3192      6.6427      7.1367      7.8079      8.8639      10.696      13.789      18.636    
  25.888      46.655      100.15      197.93      338.11      503.54      663.55      780.87      629.13      595.29    
  503.54      378.88      251.15      144.95      73.450      36.655      23.268      17.271      13.075      10.432    
  8.8609      7.9389      7.3465      6.9179      6.6427      6.5279      6.5065      6.5279      6.6427      6.9179    
  7.3465      7.9389      8.8609      10.432      13.075      17.271      23.268      36.655      73.450      144.95    
  251.15      378.88      503.54      595.29      426.61      402.69      338.11      251.15      163.72      93.533    
  49.126      28.392      20.670      15.689      12.299      10.192      8.9304      8.1754      7.6877      7.3465    
  7.1367      7.0516      7.0360      7.0516      7.1367      7.3465      7.6877      8.1754      8.9304      10.192    
  12.299      15.689      20.670      28.392      49.126      93.533      163.72      251.15      338.11      402.69    
  252.99      238.03      197.93      144.95      93.533      54.745      32.569      23.148      17.983      14.135    
  11.604      10.046      9.1073      8.5379      8.1754      7.9389      7.8079      7.7626      7.7567      7.7626    
  7.8079      7.9389      8.1754      8.5379      9.1073      10.046      11.604      14.135      17.983      23.148    
  32.569      54.745      93.533      144.95      197.93      238.03      129.02      121.09      100.15      73.450    
  49.126      32.569      24.112      19.333      15.515      12.816      11.094      10.056      9.4488      9.1073    
  8.9304      8.8609      8.8639      8.8991      8.9186      8.8991      8.8639      8.8609      8.9304      9.1073    
  9.4488      10.056      11.094      12.816      15.515      19.333      24.112      32.569      49.126      73.450    
  100.15      121.09      58.244      54.992      46.655      36.655      28.392      23.148      19.333      16.033    
  13.530      11.850      10.835      10.287      10.056      10.046      10.192      10.432      10.696      10.901    
  10.979      10.901      10.696      10.432      10.192      10.046      10.056      10.287      10.835      11.850    
  13.530      16.033      19.333      23.148      28.392      36.655      46.655      54.992      28.993      28.105    
  25.888      23.268      20.670      17.983      15.515      13.530      12.129      11.277      10.876      10.835    
  11.094      11.604      12.299      13.075      13.789      14.293      14.475      14.293      13.789      13.075    
  12.299      11.604      11.094      10.835      10.876      11.277      12.129      13.530      15.515      17.983    
  20.670      23.268      25.888      28.105      19.881      19.557      18.636      17.271      15.689      14.135    
  12.816      11.850      11.277      11.088      11.277      11.850      12.816      14.135      15.689      17.271    
  18.636      19.557      19.881      19.557      18.636      17.271      15.689      14.135      12.816      11.850    
  11.277      11.088      11.277      11.850      12.816      14.135      15.689      17.271      18.636      19.557    
  14.475      14.293      13.789      13.075      12.299      11.604      11.094      10.835      10.876      11.277    
  12.129      13.530      15.515      17.983      20.670      23.268      25.888      28.105      28.993      28.105    
  25.888      23.268      20.670      17.983      15.515      13.530      12.129      11.277      10.876      10.835    
  11.094      11.604      12.299      13.075      13.789      14.293      10.979      10.901      10.696      10.432    
  10.192      10.046      10.056      10.287      10.835      11.850      13.530      16.033      19.333      23.148    
  28.392      36.655      46.655      54.992      58.244      54.992      46.655      36.655      28.392      23.148    
  19.333      16.033      13.530      11.850      10.835      10.287      10.056      10.046      10.192      10.432    
  10.696      10.901      8.9186      8.8991      8.8639      8.8609      8.9304      9.1073      9.4488      10.056    
  11.094      12.816      15.515      19.333      24.112      32.569      49.126      73.450      100.15      121.09    
  129.02      121.09      100.15      73.450      49.126      32.569      24.112      19.333      15.515      12.816    
  11.094      10.056      9.4488      9.1073      8.9304      8.8609      8.8639      8.8991      7.7567      7.7626    
  7.8079      7.9389      8.1754      8.5379      9.1073      10.046      11.604      14.135      17.983      23.148    
  32.569      54.745      93.533      144.95      197.93      238.03      252.99      238.03      197.93      144.95    
  93.533      54.745      32.569      23.148      17.983      14.135      11.604      10.046      9.1073      8.5379    
  8.1754      7.9389      7.8079      7.7626      7.0360      7.0516      7.1367      7.3465      7.6877      8.1754    
  8.9304      10.192      12.299      15.689      20.670      28.392      49.126      93.533      163.72      251.15    
  338.11      402.69      426.61      402.69      338.11      251.15      163.72      93.533      49.126      28.392    
  20.670      15.689      12.299      10.192      8.9304      8.1754      7.6877      7.3465      7.1367      7.0516    
  6.5065      6.5279      6.6427      6.9179      7.3465      7.9389      8.8609      10.432      13.075      17.271    
  23.268      36.655      73.450      144.95      251.15      378.88      503.54      595.29      629.13      595.29    
  503.54      378.88      251.15      144.95      73.450      36.655      23.268      17.271      13.075      10.432    
  8.8609      7.9389      7.3465      6.9179      6.6427      6.5279      6.1612      6.1849      6.3192      6.6427    
  7.1367      7.8079      8.8639      10.696      13.789      18.636      25.888      46.655      100.15      197.93    
  338.11      503.54      663.55      780.87      824.11      780.87      663.55      503.54      338.11      197.93    
  100.15      46.655      25.888      18.636      13.789      10.696      8.8639      7.8079      7.1367      6.6427    
  6.3192      6.1849      6.0259      6.0475      6.1849      6.5279      7.0516      7.7626      8.8991      10.901    
  14.293      19.557      28.105      54.992      121.09      238.03      402.69      595.29      780.87      916.80    
  966.89      916.80      780.87      595.29      402.69      238.03      121.09      54.992      28.105      19.557    
  14.293      10.901      8.8991      7.7626      7.0516      6.5279      6.1849      6.0475      6.0063      6.0259    
  6.1612      6.5065      7.0360      7.7567      8.9186      10.979      14.475      19.881      28.993      58.244    
  129.02      252.99      426.61      629.13      824.11      966.89      1019.5      966.89      824.11      629.13    
  426.61      252.99      129.02      58.244      28.993      19.881      14.475      10.979      8.9186      7.7567    
  7.0360      6.5065      6.1612      6.0259      6.0259      6.0475      6.1849      6.5279      7.0516      7.7626    
  8.8991      10.901      14.293      19.557      28.105      54.992      121.09      238.03      402.69      595.29    
  780.87      916.80      966.89      916.80      780.87      595.29      402.69      238.03      121.09      54.992    
  28.105      19.557      14.293      10.901      8.8991      7.7626      7.0516      6.5279      6.1849      6.0475    
  6.1612      6.1849      6.3192      6.6427      7.1367      7.8079      8.8639      10.696      13.789      18.636    
  25.888      46.655      100.15      197.93      338.11      503.54      663.55      780.87      824.11      780.87    
  663.55      503.54      338.11      197.93      100.15      46.655      25.888      18.636      13.789      10.696    
  8.8639      7.8079      7.1367      6.6427      6.3192      6.1849      6.5065      6.5279      6.6427      6.9179    
  7.3465      7.9389      8.8609      10.432      13.075      17.271      23.268      36.655      73.450      144.95    
  251.15      378.88      503.54      595.29      629.13      595.29      503.54      378.88      251.15      144.95    
  73.450      36.655      23.268      17.271      13.075      10.432      8.8609      7.9389      7.3465      6.9179    
  6.6427      6.5279      7.0360      7.0516      7.1367      7.3465      7.6877      8.1754      8.9304      10.192    
  12.299      15.689      20.670      28.392      49.126      93.533      163.72      251.15      338.11      402.69    
  426.61      402.69      338.11      251.15      163.72      93.533      49.126      28.392      20.670      15.689    
  12.299      10.192      8.9304      8.1754      7.6877      7.3465      7.1367      7.0516      7.7567      7.7626    
  7.8079      7.9389      8.1754      8.5379      9.1073      10.046      11.604      14.135      17.983      23.148    
  32.569      54.745      93.533      144.95      197.93      238.03      252.99      238.03      197.93      144.95    
  93.533      54.745      32.569      23.148      17.983      14.135      11.604      10.046      9.1073      8.5379    
  8.1754      7.9389      7.8079      7.7626      8.9186      8.8991      8.8639      8.8609      8.9304      9.1073    
  9.4488      10.056      11.094      12.816      15.515      19.333      24.112      32.569      49.126      73.450    
  100.15      121.09      129.02      121.09      100.15      73.450      49.126      32.569      24.112      19.333    
  15.515      12.816      11.094      10.056      9.4488      9.1073      8.9304      8.8609      8.8639      8.8991    
  10.979      10.901      10.696      10.432      10.192      10.046      10.056      10.287      10.835      11.850    
  13.530      16.033      19.333      23.148      28.392      36.655      46.655      54.992      58.244      54.992    
  46.655      36.655      28.392      23.148      19.333      16.033      13.530      11.850      10.835      10.287    
  10.056      10.046      10.192      10.432      10.696      10.901      14.475      14.293      13.789      13.075    
  12.299      11.604      11.094      10.835      10.876      11.277      12.129      13.530      15.515      17.983    
  20.670      23.268      25.888      28.105      28.993      28.105      25.888      23.268      20.670      17.983    
  15.515      13.530      12.129      11.277      10.876      10.835      11.094      11.604      12.299      13.075    
  13.789      14.293      19.881      19.557      18.636      17.271      15.689      14.135      12.816      11.850    
  11.277      11.088      11.277      11.850      12.816      14.135      15.689      17.271      18.636      19.557    
  19.881      19.557      18.636      17.271      15.689      14.135      12.816      11.850      11.277      11.088    
  11.277      11.850      12.816      14.135      15.689      17.271      18.636      19.557      28.993      28.105    
  25.888      23.268      20.670      17.983      15.515      13.530      12.129      11.277      10.876      10.835    
  11.094      11.604      12.299      13.075      13.789      14.293      14.475      14.293      13.789      13.075    
  12.299      11.604      11.094      10.835      10.876      11.277      12.129      13.530      15.515      17.983    
  20.670      23.268      25.888      28.105      58.244      54.992      46.655      36.655      28.392      23.148    
  19.333      16.033      13.530      11.850      10.835      10.287      10.056      10.046      10.192      10.432    
  10.696      10.901      10.979      10.901      10.696      10.432      10.192      10.046      10.056      10.287    
  10.835      11.850      13.530      16.033      19.333      23.148      28.392      36.655      46.655      54.992    
  129.02      121.09      100.15      73.450      49.126      32.569      24.112      19.333      15.515      12.816    
  11.094      10.056      9.4488      9.1073      8.9304      8.8609      8.8639      8.8991      8.9186      8.8991    
  8.8639      8.8609      8.9304      9.1073      9.4488      10.056      11.094      12.816      15.515      19.333    
  24.112      32.569      49.126      73.450      100.15      121.09      252.99      238.03      197.93      144.95    
  93.533      54.745      32.569      23.148      17.983      14.135      11.604      10.046      9.1073      8.5379    
  8.1754      7.9389      7.8079      7.7626      7.7567      7.7626      7.8079      7.9389      8.1754      8.5379    
  9.1073      10.046      11.604      14.135      17.983      23.148      32.569      54.745      93.533      144.95    
  197.93      238.03      426.61      402.69      338.11      251.15      163.72      93.533      49.126      28.392    
  20.670      15.689      12.299      10.192      8.9304      8.1754      7.6877      7.3465      7.1367      7.0516    
  7.0360      7.0516      7.1367      7.3465      7.6877      8.1754      8.9304      10.192      12.299      15.689    
  20.670      28.392      49.126      93.533      163.72      251.15      338.11      402.69      629.13      595.29    
  503.54      378.88      251.15      144.95      73.450      36.655      23.268      17.271      13.075      10.432    
  8.8609      7.9389      7.3465      6.9179      6.6427      6.5279      6.5065      6.5279      6.6427      6.9179    
  7.3465      7.9389      8.8609      10.432      13.075      17.271      23.268      36.655      73.450      144.95    
  251.15      378.88      503.54      595.29      824.11      780.87      663.55      503.54      338.11      197.93    
  100.15      46.655      25.888      18.636      13.789      10.696      8.8639      7.8079      7.1367      6.6427    
  6.3192      6.1849      6.1612      6.1849      6.3192      6.6427      7.1367      7.8079      8.8639      10.696    
  13.789      18.636      25.888      46.655      100.15      197.93      338.11      503.54      663.55      780.87    
  966.89      916.80      780.87      595.29      402.69      238.03      121.09      54.992      28.105      19.557    
  14.293      10.901      8.8991      7.7626      7.0516      6.5279      6.1849      6.0475      6.0259      6.0475    
  6.1849      6.5279      7.0516      7.7626      8.8991      10.901      14.293      19.557      28.105      54.992    
  121.09      238.03      402.69      595.29      780.87      916.80      966.89      916.80      780.87      595.29    
  402.69      238.03      121.09      54.992      28.105      19.557      14.293      10.901      8.8991      7.7626    
  7.0516      6.5279      6.1849      6.0475      6.0259      6.0475      6.1849      6.5279      7.0516      7.7626    
  8.8991      10.901      14.293      19.557      28.105      54.992      121.09      238.03      402.69      595.29    
  780.87      916.80      916.80      869.12      739.72      563.09      379.99      223.88      113.64      51.985    
  27.295      19.239      14.116      10.825      8.8799      7.7683      7.0675      6.5500      6.2099      6.0708    
  6.0475      6.0708      6.2099      6.5500      7.0675      7.7683      8.8799      10.825      14.116      19.239    
  27.295      51.985      113.64      223.88      379.99      563.09      739.72      869.12      780.87      739.72    
  628.06      475.85      318.72      186.01      94.042      44.295      25.268      18.339      13.625      10.625    
  8.8447      7.8122      7.1515      6.6645      6.3448      6.2099      6.1849      6.2099      6.3448      6.6645    
  7.1515      7.8122      8.8447      10.625      13.625      18.339      25.268      44.295      94.042      186.01    
  318.72      475.85      628.06      739.72      595.29      563.09      475.85      357.42      236.34      136.10    
  69.131      35.117      22.838      17.008      12.931      10.368      8.8405      7.9392      7.3569      6.9355    
  6.6645      6.5500      6.5279      6.5500      6.6645      6.9355      7.3569      7.9392      8.8405      10.368    
  12.931      17.008      22.838      35.117      69.131      136.10      236.34      357.42      475.85      563.09    
  402.69      379.99      318.72      236.34      153.77      87.877      46.590      27.575      20.320      15.467    
  12.178      10.134      8.9073      8.1696      7.6913      7.3569      7.1515      7.0675      7.0516      7.0675    
  7.1515      7.3569      7.6913      8.1696      8.9073      10.134      12.178      15.467      20.320      27.575    
  46.590      87.877      153.77      236.34      318.72      379.99      238.03      223.88      186.01      136.10    
  87.877      51.785      31.394      22.728      17.697      13.959      11.504      9.9925      9.0800      8.5240    
  8.1696      7.9392      7.8122      7.7683      7.7626      7.7683      7.8122      7.9392      8.1696      8.5240    
  9.0800      9.9925      11.504      13.959      17.697      22.728      31.394      51.785      87.877      136.10    
  186.01      223.88      121.09      113.64      94.042      69.131      46.590      31.394      23.641      19.012    
  15.298      12.681      11.012      10.004      9.4134      9.0800      8.9073      8.8405      8.8447      8.8799    
  8.8991      8.8799      8.8447      8.8405      8.9073      9.0800      9.4134      10.004      11.012      12.681    
  15.298      19.012      23.641      31.394      46.590      69.131      94.042      113.64      54.992      51.985    
  44.295      35.117      27.575      22.728      19.012      15.801      13.374      11.748      10.764      10.231    
  10.004      9.9925      10.134      10.368      10.625      10.825      10.901      10.825      10.625      10.368    
  10.134      9.9925      10.004      10.231      10.764      11.748      13.374      15.801      19.012      22.728    
  27.575      35.117      44.295      51.985      28.105      27.295      25.268      22.838      20.320      17.697    
  15.298      13.374      12.019      11.194      10.805      10.764      11.012      11.504      12.178      12.931    
  13.625      14.116      14.293      14.116      13.625      12.931      12.178      11.504      11.012      10.764    
  10.805      11.194      12.019      13.374      15.298      17.697      20.320      22.838      25.268      27.295    
  19.557      19.239      18.339      17.008      15.467      13.959      12.681      11.748      11.194      11.013    
  11.194      11.748      12.681      13.959      15.467      17.008      18.339      19.239      19.557      19.239    
  18.339      17.008      15.467      13.959      12.681      11.748      11.194      11.013      11.194      11.748    
  12.681      13.959      15.467      17.008      18.339      19.239      14.293      14.116      13.625      12.931    
  12.178      11.504      11.012      10.764      10.805      11.194      12.019      13.374      15.298      17.697    
  20.320      22.838      25.268      27.295      28.105      27.295      25.268      22.838      20.320      17.697    
  15.298      13.374      12.019      11.194      10.805      10.764      11.012      11.504      12.178      12.931    
  13.625      14.116      10.901      10.825      10.625      10.368      10.134      9.9925      10.004      10.231    
  10.764      11.748      13.374      15.801      19.012      22.728      27.575      35.117      44.295      51.985    
  54.992      51.985      44.295      35.117      27.575      22.728      19.012      15.801      13.374      11.748    
  10.764      10.231      10.004      9.9925      10.134      10.368      10.625      10.825      8.8991      8.8799    
  8.8447      8.8405      8.9073      9.0800      9.4134      10.004      11.012      12.681      15.298      19.012    
  23.641      31.394      46.590      69.131      94.042      113.64      121.09      113.64      94.042      69.131    
  46.590      31.394      23.641      19.012      15.298      12.681      11.012      10.004      9.4134      9.0800    
  8.9073      8.8405      8.8447      8.8799      7.7626      7.7683      7.8122      7.9392      8.1696      8.5240    
  9.0800      9.9925      11.504      13.959      17.697      22.728      31.394      51.785      87.877      136.10    
  186.01      223.88      238.03      223.88      186.01      136.10      87.877      51.785      31.394      22.728    
  17.697      13.959      11.504      9.9925      9.0800      8.5240      8.1696      7.9392      7.8122      7.7683    
  7.0516      7.0675      7.1515      7.3569      7.6913      8.1696      8.9073      10.134      12.178      15.467    
  20.320      27.575      46.590      87.877      153.77      236.34      318.72      379.99      402.69      379.99    
  318.72      236.34      153.77      87.877      46.590      27.575      20.320      15.467      12.178      10.134    
  8.9073      8.1696      7.6913      7.3569      7.1515      7.0675      6.5279      6.5500      6.6645      6.9355    
  7.3569      7.9392      8.8405      10.368      12.931      17.008      22.838      35.117      69.131      136.10    
  236.34      357.42      475.85      563.09      595.29      563.09      475.85      357.42      236.34      136.10    
  69.131      35.117      22.838      17.008      12.931      10.368      8.8405      7.9392      7.3569      6.9355    
  6.6645      6.5500      6.1849      6.2099      6.3448      6.6645      7.1515      7.8122      8.8447      10.625    
  13.625      18.339      25.268      44.295      94.042      186.01      318.72      475.85      628.06      739.72    
  780.87      739.72      628.06      475.85      318.72      186.01      94.042      44.295      25.268      18.339    
  13.625      10.625      8.8447      7.8122      7.1515      6.6645      6.3448      6.2099      6.0475      6.0708    
  6.2099      6.5500      7.0675      7.7683      8.8799      10.825      14.116      19.239      27.295      51.985    
  113.64      223.88      379.99      563.09      739.72      869.12      916.80      869.12      739.72      563.09    
  379.99      223.88      113.64      51.985      27.295      19.239      14.116      10.825      8.8799      7.7683    
  7.0675      6.5500      6.2099      6.0708      6.0259      6.0475      6.1849      6.5279      7.0516      7.7626    
  8.8991      10.901      14.293      19.557      28.105      54.992      121.09      238.03      402.69      595.29    
  780.87      916.80      966.89      916.80      780.87      595.29      402.69      238.03      121.09      54.992    
  28.105      19.557      14.293      10.901      8.8991      7.7626      7.0516      6.5279      6.1849      6.0475    
  6.0475      6.0708      6.2099      6.5500      7.0675      7.7683      8.8799      10.825      14.116      19.239    
  27.295      51.985      113.64      223.88      379.99      563.09      739.72      869.12      916.80      869.12    
  739.72      563.09      379.99      223.88      113.64      51.985      27.295      19.239      14.116      10.825    
  8.8799      7.7683      7.0675      6.5500      6.2099      6.0708      6.1849      6.2099      6.3448      6.6645    
  7.1515      7.8122      8.8447      10.625      13.625      18.339      25.268      44.295      94.042      186.01    
  318.72      475.85      628.06      739.72      780.87      739.72      628.06      475.85      318.72      186.01    
  94.042      44.295      25.268      18.339      13.625      10.625      8.8447      7.8122      7.1515      6.6645    
  6.3448      6.2099      6.5279      6.5500      6.6645      6.9355      7.3569      7.9392      8.8405      10.368    
  12.931      17.008      22.838      35.117      69.131      136.10      236.34      357.42      475.85      563.09    
  595.29      563.09      475.85      357.42      236.34      136.10      69.131      35.117      22.838      17.008    
  12.931      10.368      8.8405      7.9392      7.3569      6.9355      6.6645      6.5500      7.0516      7.0675    
  7.1515      7.3569      7.6913      8.1696      8.9073      10.134      12.178      15.467      20.320      27.575    
  46.590      87.877      153.77      236.34      318.72      379.99      402.69      379.99      318.72      236.34    
  153.77      87.877      46.590      27.575      20.320      15.467      12.178      10.134      8.9073      8.1696    
  7.6913      7.3569      7.1515      7.0675      7.7626      7.7683      7.8122      7.9392      8.1696      8.5240    
  9.0800      9.9925      11.504      13.959      17.697      22.728      31.394      51.785      87.877      136.10    
  186.01      223.88      238.03      223.88      186.01      136.10      87.877      51.785      31.394      22.728    
  17.697      13.959      11.504      9.9925      9.0800      8.5240      8.1696      7.9392      7.8122      7.7683    
  8.8991      8.8799      8.8447      8.8405      8.9073      9.0800      9.4134      10.004      11.012      12.681    
  15.298      19.012      23.641      31.394      46.590      69.131      94.042      113.64      121.09      113.64    
  94.042      69.131      46.590      31.394      23.641      19.012      15.298      12.681      11.012      10.004    
  9.4134      9.0800      8.9073      8.8405      8.8447      8.8799      10.901      10.825      10.625      10.368    
  10.134      9.9925      10.004      10.231      10.764      11.748      13.374      15.801      19.012      22.728    
  27.575      35.117      44.295      51.985      54.992      51.985      44.295      35.117      27.575      22.728    
  19.012      15.801      13.374      11.748      10.764      10.231      10.004      9.9925      10.134      10.368    
  10.625      10.825      14.293      14.116      13.625      12.931      12.178      11.504      11.012      10.764    
  10.805      11.194      12.019      13.374      15.298      17.697      20.320      22.838      25.268      27.295    
  28.105      27.295      25.268      22.838      20.320      17.697      15.298      13.374      12.019      11.194    
  10.805      10.764      11.012      11.504      12.178      12.931      13.625      14.116      19.557      19.239    
  18.339      17.008      15.467      13.959      12.681      11.748      11.194      11.013      11.194      11.748    
  12.681      13.959      15.467      17.008      18.339      19.239      19.557      19.239      18.339      17.008    
  15.467      13.959      12.681      11.748      11.194      11.013      11.194      11.748      12.681      13.959    
  15.467      17.008      18.339      19.239      28.105      27.295      25.268      22.838      20.320      17.697    
  15.298      13.374      12.019      11.194      10.805      10.764      11.012      11.504      12.178      12.931    
  13.625      14.116      14.293      14.116      13.625      12.931      12.178      11.504      11.012      10.764    
  10.805      11.194      12.019      13.374      15.298      17.697      20.320      22.838      25.268      27.295    
  54.992      51.985      44.295      35.117      27.575      22.728      19.012      15.801      13.374      11.748    
  10.764      10.231      10.004      9.9925      10.134      10.368      10.625      10.825      10.901      10.825    
  10.625      10.368      10.134      9.9925      10.004      10.231      10.764      11.748      13.374      15.801    
  19.012      22.728      27.575      35.117      44.295      51.985      121.09      113.64      94.042      69.131    
  46.590      31.394      23.641      19.012      15.298      12.681      11.012      10.004      9.4134      9.0800    
  8.9073      8.8405      8.8447      8.8799      8.8991      8.8799      8.8447      8.8405      8.9073      9.0800    
  9.4134      10.004      11.012      12.681      15.298      19.012      23.641      31.394      46.590      69.131    
  94.042      113.64      238.03      223.88      186.01      136.10      87.877      51.785      31.394      22.728    
  17.697      13.959      11.504      9.9925      9.0800      8.5240      8.1696      7.9392      7.8122      7.7683    
  7.7626      7.7683      7.8122      7.9392      8.1696      8.5240      9.0800      9.9925      11.504      13.959    
  17.697      22.728      31.394      51.785      87.877      136.10      186.01      223.88      402.69      379.99    