unknown system                          
   1.00000000000000     
     3.862764    0.000000    0.000000
     0.000000    3.862764    0.000000
     0.000000    0.000000    3.862764
   Cu
     4
Direct
  0.000000  0.000000  0.000000
  0.500000  0.500000  0.000000
  0.500000  0.000000  0.500000
  0.000000  0.500000  0.500000
 
   36   36   36
 0.10195001335E+04 0.96688791601E+03 0.82410810471E+03 0.62913389319E+03 0.42660564836E+03
 0.25299028015E+03 0.12902106000E+03 0.58243990390E+02 0.28993454459E+02 0.19881444408E+02
 0.14475118777E+02 0.10979152646E+02 0.89185903980E+01 0.77567317665E+01 0.70360103918E+01
 0.65064729079E+01 0.61611516704E+01 0.60258925529E+01 0.60063360271E+01 0.60258925529E+01
 0.61611516704E+01 0.65064729079E+01 0.70360103918E+01 0.77567317665E+01 0.89185903980E+01
 0.10979152646E+02 0.14475118777E+02 0.19881444408E+02 0.28993454459E+02 0.58243990390E+02
 0.12902106000E+03 0.25299028015E+03 0.42660564836E+03 0.62913389319E+03 0.82410810471E+03
 0.96688791601E+03 0.96688791601E+03 0.91680207452E+03 0.78087227641E+03 0.59528540370E+03
 0.40269353769E+03 0.23802572340E+03 0.12108535056E+03 0.54991748718E+02 0.28104703904E+02
 0.19556919098E+02 0.14293139748E+02 0.10901196204E+02 0.88991038568E+01 0.77625882036E+01
 0.70516421888E+01 0.65278616177E+01 0.61849125988E+01 0.60474658389E+01 0.60258925529E+01
 0.60474658389E+01 0.61849125988E+01 0.65278616177E+01 0.70516421888E+01 0.77625882036E+01
 0.88991038568E+01 0.10901196204E+02 0.14293139748E+02 0.19556919098E+02 0.28104703904E+02
 0.54991748718E+02 0.12108535056E+03 0.23802572340E+03 0.40269353769E+03 0.59528540370E+03
 0.78087227641E+03 0.91680207452E+03 0.82410810471E+03 0.78087227641E+03 0.66354899258E+03
 0.50354044718E+03 0.33811096112E+03 0.19793166520E+03 0.10015319048E+03 0.46654582667E+02
 0.25888008204E+02 0.18636164350E+02 0.13789092732E+02 0.10695608439E+02 0.88638837357E+01
 0.78078658917E+01 0.71366996927E+01 0.66427178088E+01 0.63191697297E+01 0.61849125988E+01
 0.61611516704E+01 0.61849125988E+01 0.63191697297E+01 0.66427178088E+01 0.71366996927E+01
 0.78078658917E+01 0.88638837357E+01 0.10695608439E+02 0.13789092732E+02 0.18636164350E+02
 0.25888008204E+02 0.46654582667E+02 0.10015319048E+03 0.19793166520E+03 0.33811096112E+03
 0.50354044718E+03 0.66354899258E+03 0.78087227641E+03 0.62913389319E+03 0.59528540370E+03
 0.50354044718E+03 0.37887587917E+03 0.25115098235E+03 0.14494958590E+03 0.73450003781E+02
 0.36655364026E+02 0.23268035683E+02 0.17271445192E+02 0.13075240529E+02 0.10432142322E+02
 0.88608741309E+01 0.79388601612E+01 0.73465210434E+01 0.69179432033E+01 0.66427178088E+01
 0.65278616177E+01 0.65064729079E+01 0.65278616177E+01 0.66427178088E+01 0.69179432033E+01
 0.73465210434E+01 0.79388601612E+01 0.88608741309E+01 0.10432142322E+02 0.13075240529E+02
 0.17271445192E+02 0.23268035683E+02 0.36655364026E+02 0.73450003781E+02 0.14494958590E+03
 0.25115098235E+03 0.37887587917E+03 0.50354044718E+03 0.59528540370E+03 0.42660564836E+03
 0.40269353769E+03 0.33811096112E+03 0.25115098235E+03 0.16371590480E+03 0.93532618172E+02
 0.49126276733E+02 0.28392466847E+02 0.20670145666E+02 0.15688697525E+02 0.12299420069E+02
 0.10191574503E+02 0.89303610828E+01 0.81753695976E+01 0.76877139272E+01 0.73465210434E+01
 0.71366996927E+01 0.70516421888E+01 0.70360103918E+01 0.70516421888E+01 0.71366996927E+01
 0.73465210434E+01 0.76877139272E+01 0.81753695976E+01 0.89303610828E+01 0.10191574503E+02
 0.12299420069E+02 0.15688697525E+02 0.20670145666E+02 0.28392466847E+02 0.49126276733E+02
 0.93532618172E+02 0.16371590480E+03 0.25115098235E+03 0.33811096112E+03 0.40269353769E+03
 0.25299028015E+03 0.23802572340E+03 0.19793166520E+03 0.14494958590E+03 0.93532618172E+02
 0.54744689635E+02 0.32568781547E+02 0.23147790727E+02 0.17983012754E+02 0.14135168199E+02
 0.11603504191E+02 0.10045534358E+02 0.91072816437E+01 0.85378846364E+01 0.81753695976E+01
 0.79388601612E+01 0.78078658917E+01 0.77625882036E+01 0.77567317665E+01 0.77625882036E+01
 0.78078658917E+01 0.79388601612E+01 0.81753695976E+01 0.85378846364E+01 0.91072816437E+01
 0.10045534358E+02 0.11603504191E+02 0.14135168199E+02 0.17983012754E+02 0.23147790727E+02
 0.32568781547E+02 0.54744689635E+02 0.93532618172E+02 0.14494958590E+03 0.19793166520E+03
 0.23802572340E+03 0.12902106000E+03 0.12108535056E+03 0.10015319048E+03 0.73450003781E+02
 0.49126276733E+02 0.32568781547E+02 0.24112208113E+02 0.19332835568E+02 0.15515189480E+02
 0.12815619905E+02 0.11093572190E+02 0.10055699926E+02 0.94487906032E+01 0.91072816437E+01
 0.89303610828E+01 0.88608741309E+01 0.88638837357E+01 0.88991038568E+01 0.89185903980E+01
 0.88991038568E+01 0.88638837357E+01 0.88608741309E+01 0.89303610828E+01 0.91072816437E+01
 0.94487906032E+01 0.10055699926E+02 0.11093572190E+02 0.12815619905E+02 0.15515189480E+02
 0.19332835568E+02 0.24112208113E+02 0.32568781547E+02 0.49126276733E+02 0.73450003781E+02
 0.10015319048E+03 0.12108535056E+03 0.58243990390E+02 0.54991748718E+02 0.46654582667E+02
 0.36655364026E+02 0.28392466847E+02 0.23147790727E+02 0.19332835568E+02 0.16032656473E+02
 0.13529906213E+02 0.11850249631E+02 0.10835408196E+02 0.10287475510E+02 0.10055699926E+02
 0.10045534358E+02 0.10191574503E+02 0.10432142322E+02 0.10695608439E+02 0.10901196204E+02
 0.10979152646E+02 0.10901196204E+02 0.10695608439E+02 0.10432142322E+02 0.10191574503E+02
 0.10045534358E+02 0.10055699926E+02 0.10287475510E+02 0.10835408196E+02 0.11850249631E+02
 0.13529906213E+02 0.16032656473E+02 0.19332835568E+02 0.23147790727E+02 0.28392466847E+02
 0.36655364026E+02 0.46654582667E+02 0.54991748718E+02 0.28993454459E+02 0.28104703904E+02
 0.25888008204E+02 0.23268035683E+02 0.20670145666E+02 0.17983012754E+02 0.15515189480E+02
 0.13529906213E+02 0.12128908070E+02 0.11276780524E+02 0.10876129274E+02 0.10835408196E+02
 0.11093572190E+02 0.11603504191E+02 0.12299420069E+02 0.13075240529E+02 0.13789092732E+02
 0.14293139748E+02 0.14475118777E+02 0.14293139748E+02 0.13789092732E+02 0.13075240529E+02
 0.12299420069E+02 0.11603504191E+02 0.11093572190E+02 0.10835408196E+02 0.10876129274E+02
 0.11276780524E+02 0.12128908070E+02 0.13529906213E+02 0.15515189480E+02 0.17983012754E+02
 0.20670145666E+02 0.23268035683E+02 0.25888008204E+02 0.28104703904E+02 0.19881444408E+02
 0.19556919098E+02 0.18636164350E+02 0.17271445192E+02 0.15688697525E+02 0.14135168199E+02
 0.12815619905E+02 0.11850249631E+02 0.11276780524E+02 0.11088404775E+02 0.11276780524E+02
 0.11850249631E+02 0.12815619905E+02 0.14135168199E+02 0.15688697525E+02 0.17271445192E+02
 0.18636164350E+02 0.19556919098E+02 0.19881444408E+02 0.19556919098E+02 0.18636164350E+02
 0.17271445192E+02 0.15688697525E+02 0.14135168199E+02 0.12815619905E+02 0.11850249631E+02
 0.11276780524E+02 0.11088404775E+02 0.11276780524E+02 0.11850249631E+02 0.12815619905E+02
 0.14135168199E+02 0.15688697525E+02 0.17271445192E+02 0.18636164350E+02 0.19556919098E+02
 0.14475118777E+02 0.14293139748E+02 0.13789092732E+02 0.13075240529E+02 0.12299420069E+02
 0.11603504191E+02 0.11093572190E+02 0.10835408196E+02 0.10876129274E+02 0.11276780524E+02
 0.12128908070E+02 0.13529906213E+02 0.15515189480E+02 0.17983012754E+02 0.20670145666E+02
 0.23268035683E+02 0.25888008204E+02 0.28104703904E+02 0.28993454459E+02 0.28104703904E+02
 0.25888008204E+02 0.23268035683E+02 0.20670145666E+02 0.17983012754E+02 0.15515189480E+02
 0.13529906213E+02 0.12128908070E+02 0.11276780524E+02 0.10876129274E+02 0.10835408196E+02
 0.11093572190E+02 0.11603504191E+02 0.12299420069E+02 0.13075240529E+02 0.13789092732E+02
 0.14293139748E+02 0.10979152646E+02 0.10901196204E+02 0.10695608439E+02 0.10432142322E+02
 0.10191574503E+02 0.10045534358E+02 0.10055699926E+02 0.10287475510E+02 0.10835408196E+02
 0.11850249631E+02 0.13529906213E+02 0.16032656473E+02 0.19332835568E+02 0.23147790727E+02
 0.28392466847E+02 0.36655364026E+02 0.46654582667E+02 0.54991748718E+02 0.58243990390E+02
 0.54991748718E+02 0.46654582667E+02 0.36655364026E+02 0.28392466847E+02 0.23147790727E+02
 0.19332835568E+02 0.16032656473E+02 0.13529906213E+02 0.11850249631E+02 0.10835408196E+02
 0.10287475510E+02 0.10055699926E+02 0.10045534358E+02 0.10191574503E+02 0.10432142322E+02
 0.10695608439E+02 0.10901196204E+02 0.89185903980E+01 0.88991038568E+01 0.88638837357E+01
 0.88608741309E+01 0.89303610828E+01 0.91072816437E+01 0.94487906032E+01 0.10055699926E+02
 0.11093572190E+02 0.12815619905E+02 0.15515189480E+02 0.19332835568E+02 0.24112208113E+02
 0.32568781547E+02 0.49126276733E+02 0.73450003781E+02 0.10015319048E+03 0.12108535056E+03
 0.12902106000E+03 0.12108535056E+03 0.10015319048E+03 0.73450003781E+02 0.49126276733E+02
 0.32568781547E+02 0.24112208113E+02 0.19332835568E+02 0.15515189480E+02 0.12815619905E+02
 0.11093572190E+02 0.10055699926E+02 0.94487906032E+01 0.91072816437E+01 0.89303610828E+01
 0.88608741309E+01 0.88638837357E+01 0.88991038568E+01 0.77567317665E+01 0.77625882036E+01
 0.78078658917E+01 0.79388601612E+01 0.81753695976E+01 0.85378846364E+01 0.91072816437E+01
 0.10045534358E+02 0.11603504191E+02 0.14135168199E+02 0.17983012754E+02 0.23147790727E+02
 0.32568781547E+02 0.54744689635E+02 0.93532618172E+02 0.14494958590E+03 0.19793166520E+03
 0.23802572340E+03 0.25299028015E+03 0.23802572340E+03 0.19793166520E+03 0.14494958590E+03
 0.93532618172E+02 0.54744689635E+02 0.32568781547E+02 0.23147790727E+02 0.17983012754E+02
 0.14135168199E+02 0.11603504191E+02 0.10045534358E+02 0.91072816437E+01 0.85378846364E+01
 0.81753695976E+01 0.79388601612E+01 0.78078658917E+01 0.77625882036E+01 0.70360103918E+01
 0.70516421888E+01 0.71366996927E+01 0.73465210434E+01 0.76877139272E+01 0.81753695976E+01
 0.89303610828E+01 0.10191574503E+02 0.12299420069E+02 0.15688697525E+02 0.20670145666E+02
 0.28392466847E+02 0.49126276733E+02 0.93532618172E+02 0.16371590480E+03 0.25115098235E+03
 0.33811096112E+03 0.40269353769E+03 0.42660564836E+03 0.40269353769E+03 0.33811096112E+03
 0.25115098235E+03 0.16371590480E+03 0.93532618172E+02 0.49126276733E+02 0.28392466847E+02
 0.20670145666E+02 0.15688697525E+02 0.12299420069E+02 0.10191574503E+02 0.89303610828E+01
 0.81753695976E+01 0.76877139272E+01 0.73465210434E+01 0.71366996927E+01 0.70516421888E+01
 0.65064729079E+01 0.65278616177E+01 0.66427178088E+01 0.69179432033E+01 0.73465210434E+01
 0.79388601612E+01 0.88608741309E+01 0.10432142322E+02 0.13075240529E+02 0.17271445192E+02
 0.23268035683E+02 0.36655364026E+02 0.73450003781E+02 0.14494958590E+03 0.25115098235E+03
 0.37887587917E+03 0.50354044718E+03 0.59528540370E+03 0.62913389319E+03 0.59528540370E+03
 0.50354044718E+03 0.37887587917E+03 0.25115098235E+03 0.14494958590E+03 0.73450003781E+02
 0.36655364026E+02 0.23268035683E+02 0.17271445192E+02 0.13075240529E+02 0.10432142322E+02
 0.88608741309E+01 0.79388601612E+01 0.73465210434E+01 0.69179432033E+01 0.66427178088E+01
 0.65278616177E+01 0.61611516704E+01 0.61849125988E+01 0.63191697297E+01 0.66427178088E+01
 0.71366996927E+01 0.78078658917E+01 0.88638837357E+01 0.10695608439E+02 0.13789092732E+02
 0.18636164350E+02 0.25888008204E+02 0.46654582667E+02 0.10015319048E+03 0.19793166520E+03
 0.33811096112E+03 0.50354044718E+03 0.66354899258E+03 0.78087227641E+03 0.82410810471E+03
 0.78087227641E+03 0.66354899258E+03 0.50354044718E+03 0.33811096112E+03 0.19793166520E+03
 0.10015319048E+03 0.46654582667E+02 0.25888008204E+02 0.18636164350E+02 0.13789092732E+02
 0.10695608439E+02 0.88638837357E+01 0.78078658917E+01 0.71366996927E+01 0.66427178088E+01
 0.63191697297E+01 0.61849125988E+01 0.60258925529E+01 0.60474658389E+01 0.61849125988E+01
 0.65278616177E+01 0.70516421888E+01 0.77625882036E+01 0.88991038568E+01 0.10901196204E+02
 0.14293139748E+02 0.19556919098E+02 0.28104703904E+02 0.54991748718E+02 0.12108535056E+03
 0.23802572340E+03 0.40269353769E+03 0.59528540370E+03 0.78087227641E+03 0.91680207452E+03
 0.96688791601E+03 0.91680207452E+03 0.78087227641E+03 0.59528540370E+03 0.40269353769E+03
 0.23802572340E+03 0.12108535056E+03 0.54991748718E+02 0.28104703904E+02 0.19556919098E+02
 0.14293139748E+02 0.10901196204E+02 0.88991038568E+01 0.77625882036E+01 0.70516421888E+01
 0.65278616177E+01 0.61849125988E+01 0.60474658389E+01 0.60063360271E+01 0.60258925529E+01
 0.61611516704E+01 0.65064729079E+01 0.70360103918E+01 0.77567317665E+01 0.89185903980E+01
 0.10979152646E+02 0.14475118777E+02 0.19881444408E+02 0.28993454459E+02 0.58243990390E+02
 0.12902106000E+03 0.25299028015E+03 0.42660564836E+03 0.62913389319E+03 0.82410810471E+03
 0.96688791601E+03 0.10195001335E+04 0.96688791601E+03 0.82410810471E+03 0.62913389319E+03
 0.42660564836E+03 0.25299028015E+03 0.12902106000E+03 0.58243990390E+02 0.28993454459E+02
 0.19881444408E+02 0.14475118777E+02 0.10979152646E+02 0.89185903980E+01 0.77567317665E+01
 0.70360103918E+01 0.65064729079E+01 0.61611516704E+01 0.60258925529E+01 0.60258925529E+01
 0.60474658389E+01 0.61849125988E+01 0.65278616177E+01 0.70516421888E+01 0.77625882036E+01
 0.88991038568E+01 0.10901196204E+02 0.14293139748E+02 0.19556919098E+02 0.28104703904E+02
 0.54991748718E+02 0.12108535056E+03 0.23802572340E+03 0.40269353769E+03 0.59528540370E+03
 0.78087227641E+03 0.91680207452E+03 0.96688791601E+03 0.91680207452E+03 0.78087227641E+03
 0.59528540370E+03 0.40269353769E+03 0.23802572340E+03 0.12108535056E+03 0.54991748718E+02
 0.28104703904E+02 0.19556919098E+02 0.14293139748E+02 0.10901196204E+02 0.88991038568E+01
 0.77625882036E+01 0.70516421888E+01 0.65278616177E+01 0.61849125988E+01 0.60474658389E+01
 0.61611516704E+01 0.61849125988E+01 0.63191697297E+01 0.66427178088E+01 0.71366996927E+01
 0.78078658917E+01 0.88638837357E+01 0.10695608439E+02 0.13789092732E+02 0.18636164350E+02
 0.25888008204E+02 0.46654582667E+02 0.10015319048E+03 0.19793166520E+03 0.33811096112E+03
 0.50354044718E+03 0.66354899258E+03 0.78087227641E+03 0.82410810471E+03 0.78087227641E+03
 0.66354899258E+03 0.50354044718E+03 0.33811096112E+03 0.19793166520E+03 0.10015319048E+03
 0.46654582667E+02 0.25888008204E+02 0.18636164350E+02 0.13789092732E+02 0.10695608439E+02
 0.88638837357E+01 0.78078658917E+01 0.71366996927E+01 0.66427178088E+01 0.63191697297E+01
 0.61849125988E+01 0.65064729079E+01 0.65278616177E+01 0.66427178088E+01 0.69179432033E+01
 0.73465210434E+01 0.79388601612E+01 0.88608741309E+01 0.10432142322E+02 0.13075240529E+02
 0.17271445192E+02 0.23268035683E+02 0.36655364026E+02 0.73450003781E+02 0.14494958590E+03
 0.25115098235E+03 0.37887587917E+03 0.50354044718E+03 0.59528540370E+03 0.62913389319E+03
 0.59528540370E+03 0.50354044718E+03 0.37887587917E+03 0.25115098235E+03 0.14494958590E+03
 0.73450003781E+02 0.36655364026E+02 0.23268035683E+02 0.17271445192E+02 0.13075240529E+02
 0.10432142322E+02 0.88608741309E+01 0.79388601612E+01 0.73465210434E+01 0.69179432033E+01
 0.66427178088E+01 0.65278616177E+01 0.70360103918E+01 0.70516421888E+01 0.71366996927E+01
 0.73465210434E+01 0.76877139272E+01 0.81753695976E+01 0.89303610828E+01 0.10191574503E+02
 0.12299420069E+02 0.15688697525E+02 0.20670145666E+02 0.28392466847E+02 0.49126276733E+02
 0.93532618172E+02 0.16371590480E+03 0.25115098235E+03 0.33811096112E+03 0.40269353769E+03
 0.42660564836E+03 0.40269353769E+03 0.33811096112E+03 0.25115098235E+03 0.16371590480E+03
 0.93532618172E+02 0.49126276733E+02 0.28392466847E+02 0.20670145666E+02 0.15688697525E+02
 0.12299420069E+02 0.10191574503E+02 0.89303610828E+01 0.81753695976E+01 0.76877139272E+01
 0.73465210434E+01 0.71366996927E+01 0.70516421888E+01 0.77567317665E+01 0.77625882036E+01
 0.78078658917E+01 0.79388601612E+01 0.81753695976E+01 0.85378846364E+01 0.91072816437E+01
 0.10045534358E+02 0.11603504191E+02 0.14135168199E+02 0.17983012754E+02 0.23147790727E+02
 0.32568781547E+02 0.54744689635E+02 0.93532618172E+02 0.14494958590E+03 0.19793166520E+03
 0.23802572340E+03 0.25299028015E+03 0.23802572340E+03 0.19793166520E+03 0.14494958590E+03
 0.93532618172E+02 0.54744689635E+02 0.32568781547E+02 0.23147790727E+02 0.17983012754E+02
 0.14135168199E+02 0.11603504191E+02 0.10045534358E+02 0.91072816437E+01 0.85378846364E+01
 0.81753695976E+01 0.79388601612E+01 0.78078658917E+01 0.77625882036E+01 0.89185903980E+01
 0.88991038568E+01 0.88638837357E+01 0.88608741309E+01 0.89303610828E+01 0.91072816437E+01
 0.94487906032E+01 0.10055699926E+02 0.11093572190E+02 0.12815619905E+02 0.15515189480E+02
 0.19332835568E+02 0.24112208113E+02 0.32568781547E+02 0.49126276733E+02 0.73450003781E+02
 0.10015319048E+03 0.12108535056E+03 0.12902106000E+03 0.12108535056E+03 0.10015319048E+03
 0.73450003781E+02 0.49126276733E+02 0.32568781547E+02 0.24112208113E+02 0.19332835568E+02
 0.15515189480E+02 0.12815619905E+02 0.11093572190E+02 0.10055699926E+02 0.94487906032E+01
 0.91072816437E+01 0.89303610828E+01 0.88608741309E+01 0.88638837357E+01 0.88991038568E+01
 0.10979152646E+02 0.10901196204E+02 0.10695608439E+02 0.10432142322E+02 0.10191574503E+02
 0.10045534358E+02 0.10055699926E+02 0.10287475510E+02 0.10835408196E+02 0.11850249631E+02
 0.13529906213E+02 0.16032656473E+02 0.19332835568E+02 0.23147790727E+02 0.28392466847E+02
 0.36655364026E+02 0.46654582667E+02 0.54991748718E+02 0.58243990390E+02 0.54991748718E+02
 0.46654582667E+02 0.36655364026E+02 0.28392466847E+02 0.23147790727E+02 0.19332835568E+02
 0.16032656473E+02 0.13529906213E+02 0.11850249631E+02 0.10835408196E+02 0.10287475510E+02
 0.10055699926E+02 0.10045534358E+02 0.10191574503E+02 0.10432142322E+02 0.10695608439E+02
 0.10901196204E+02 0.14475118777E+02 0.14293139748E+02 0.13789092732E+02 0.13075240529E+02
 0.12299420069E+02 0.11603504191E+02 0.11093572190E+02 0.10835408196E+02 0.10876129274E+02
 0.11276780524E+02 0.12128908070E+02 0.13529906213E+02 0.15515189480E+02 0.17983012754E+02
 0.20670145666E+02 0.23268035683E+02 0.25888008204E+02 0.28104703904E+02 0.28993454459E+02
 0.28104703904E+02 0.25888008204E+02 0.23268035683E+02 0.20670145666E+02 0.17983012754E+02
 0.15515189480E+02 0.13529906213E+02 0.12128908070E+02 0.11276780524E+02 0.10876129274E+02
 0.10835408196E+02 0.11093572190E+02 0.11603504191E+02 0.12299420069E+02 0.13075240529E+02
 0.13789092732E+02 0.14293139748E+02 0.19881444408E+02 0.19556919098E+02 0.18636164350E+02
 0.17271445192E+02 0.15688697525E+02 0.14135168199E+02 0.12815619905E+02 0.11850249631E+02
 0.11276780524E+02 0.11088404775E+02 0.11276780524E+02 0.11850249631E+02 0.12815619905E+02
 0.14135168199E+02 0.15688697525E+02 0.17271445192E+02 0.18636164350E+02 0.19556919098E+02
 0.19881444408E+02 0.19556919098E+02 0.18636164350E+02 0.17271445192E+02 0.15688697525E+02
 0.14135168199E+02 0.12815619905E+02 0.11850249631E+02 0.11276780524E+02 0.11088404775E+02
 0.11276780524E+02 0.11850249631E+02 0.12815619905E+02 0.14135168199E+02 0.15688697525E+02
 0.17271445192E+02 0.18636164350E+02 0.19556919098E+02 0.28993454459E+02 0.28104703904E+02
 0.25888008204E+02 0.23268035683E+02 0.20670145666E+02 0.17983012754E+02 0.15515189480E+02
 0.13529906213E+02 0.12128908070E+02 0.11276780524E+02 0.10876129274E+02 0.10835408196E+02
 0.11093572190E+02 0.11603504191E+02 0.12299420069E+02 0.13075240529E+02 0.13789092732E+02
 0.14293139748E+02 0.14475118777E+02 0.14293139748E+02 0.13789092732E+02 0.13075240529E+02
 0.12299420069E+02 0.11603504191E+02 0.11093572190E+02 0.10835408196E+02 0.10876129274E+02
 0.11276780524E+02 0.12128908070E+02 0.13529906213E+02 0.15515189480E+02 0.17983012754E+02
 0.20670145666E+02 0.23268035683E+02 0.25888008204E+02 0.28104703904E+02 0.58243990390E+02
 0.54991748718E+02 0.46654582667E+02 0.36655364026E+02 0.28392466847E+02 0.23147790727E+02
 0.19332835568E+02 0.16032656473E+02 0.13529906213E+02 0.11850249631E+02 0.10835408196E+02
 0.10287475510E+02 0.10055699926E+02 0.10045534358E+02 0.10191574503E+02 0.10432142322E+02
 0.10695608439E+02 0.10901196204E+02 0.10979152646E+02 0.10901196204E+02 0.10695608439E+02
 0.10432142322E+02 0.10191574503E+02 0.10045534358E+02 0.10055699926E+02 0.10287475510E+02
 0.10835408196E+02 0.11850249631E+02 0.13529906213E+02 0.16032656473E+02 0.19332835568E+02
 0.23147790727E+02 0.28392466847E+02 0.36655364026E+02 0.46654582667E+02 0.54991748718E+02
 0.12902106000E+03 0.12108535056E+03 0.10015319048E+03 0.73450003781E+02 0.49126276733E+02
 0.32568781547E+02 0.24112208113E+02 0.19332835568E+02 0.15515189480E+02 0.12815619905E+02
 0.11093572190E+02 0.10055699926E+02 0.94487906032E+01 0.91072816437E+01 0.89303610828E+01
 0.88608741309E+01 0.88638837357E+01 0.88991038568E+01 0.89185903980E+01 0.88991038568E+01
 0.88638837357E+01 0.88608741309E+01 0.89303610828E+01 0.91072816437E+01 0.94487906032E+01
 0.10055699926E+02 0.11093572190E+02 0.12815619905E+02 0.15515189480E+02 0.19332835568E+02
 0.24112208113E+02 0.32568781547E+02 0.49126276733E+02 0.73450003781E+02 0.10015319048E+03
 0.12108535056E+03 0.25299028015E+03 0.23802572340E+03 0.19793166520E+03 0.14494958590E+03
 0.93532618172E+02 0.54744689635E+02 0.32568781547E+02 0.23147790727E+02 0.17983012754E+02
 0.14135168199E+02 0.11603504191E+02 0.10045534358E+02 0.91072816437E+01 0.85378846364E+01
 0.81753695976E+01 0.79388601612E+01 0.78078658917E+01 0.77625882036E+01 0.77567317665E+01
 0.77625882036E+01 0.78078658917E+01 0.79388601612E+01 0.81753695976E+01 0.85378846364E+01
 0.91072816437E+01 0.10045534358E+02 0.11603504191E+02 0.14135168199E+02 0.17983012754E+02
 0.23147790727E+02 0.32568781547E+02 0.54744689635E+02 0.93532618172E+02 0.14494958590E+03
 0.19793166520E+03 0.23802572340E+03 0.42660564836E+03 0.40269353769E+03 0.33811096112E+03
 0.25115098235E+03 0.16371590480E+03 0.93532618172E+02 0.49126276733E+02 0.28392466847E+02
 0.20670145666E+02 0.15688697525E+02 0.12299420069E+02 0.10191574503E+02 0.89303610828E+01
 0.81753695976E+01 0.76877139272E+01 0.73465210434E+01 0.71366996927E+01 0.70516421888E+01
 0.70360103918E+01 0.70516421888E+01 0.71366996927E+01 0.73465210434E+01 0.76877139272E+01
 0.81753695976E+01 0.89303610828E+01 0.10191574503E+02 0.12299420069E+02 0.15688697525E+02
 0.20670145666E+02 0.28392466847E+02 0.49126276733E+02 0.93532618172E+02 0.16371590480E+03
 0.25115098235E+03 0.33811096112E+03 0.40269353769E+03 0.62913389319E+03 0.59528540370E+03
 0.50354044718E+03 0.37887587917E+03 0.25115098235E+03 0.14494958590E+03 0.73450003781E+02
 0.36655364026E+02 0.23268035683E+02 0.17271445192E+02 0.13075240529E+02 0.10432142322E+02
 0.88608741309E+01 0.79388601612E+01 0.73465210434E+01 0.69179432033E+01 0.66427178088E+01
 0.65278616177E+01 0.65064729079E+01 0.65278616177E+01 0.66427178088E+01 0.69179432033E+01
 0.73465210434E+01 0.79388601612E+01 0.88608741309E+01 0.10432142322E+02 0.13075240529E+02
 0.17271445192E+02 0.23268035683E+02 0.36655364026E+02 0.73450003781E+02 0.14494958590E+03
 0.25115098235E+03 0.37887587917E+03 0.50354044718E+03 0.59528540370E+03 0.82410810471E+03
 0.78087227641E+03 0.66354899258E+03 0.50354044718E+03 0.33811096112E+03 0.19793166520E+03
 0.10015319048E+03 0.46654582667E+02 0.25888008204E+02 0.18636164350E+02 0.13789092732E+02
 0.10695608439E+02 0.88638837357E+01 0.78078658917E+01 0.71366996927E+01 0.66427178088E+01
 0.63191697297E+01 0.61849125988E+01 0.61611516704E+01 0.61849125988E+01 0.63191697297E+01
 0.66427178088E+01 0.71366996927E+01 0.78078658917E+01 0.88638837357E+01 0.10695608439E+02
 0.13789092732E+02 0.18636164350E+02 0.25888008204E+02 0.46654582667E+02 0.10015319048E+03
 0.19793166520E+03 0.33811096112E+03 0.50354044718E+03 0.66354899258E+03 0.78087227641E+03
 0.96688791601E+03 0.91680207452E+03 0.78087227641E+03 0.59528540370E+03 0.40269353769E+03
 0.23802572340E+03 0.12108535056E+03 0.54991748718E+02 0.28104703904E+02 0.19556919098E+02
 0.14293139748E+02 0.10901196204E+02 0.88991038568E+01 0.77625882036E+01 0.70516421888E+01
 0.65278616177E+01 0.61849125988E+01 0.60474658389E+01 0.60258925529E+01 0.60474658389E+01
 0.61849125988E+01 0.65278616177E+01 0.70516421888E+01 0.77625882036E+01 0.88991038568E+01
 0.10901196204E+02 0.14293139748E+02 0.19556919098E+02 0.28104703904E+02 0.54991748718E+02
 0.12108535056E+03 0.23802572340E+03 0.40269353769E+03 0.59528540370E+03 0.78087227641E+03
 0.91680207452E+03 0.96688791601E+03 0.91680207452E+03 0.78087227641E+03 0.59528540370E+03
 0.40269353769E+03 0.23802572340E+03 0.12108535056E+03 0.54991748718E+02 0.28104703904E+02
 0.19556919098E+02 0.14293139748E+02 0.10901196204E+02 0.88991038568E+01 0.77625882036E+01
 0.70516421888E+01 0.65278616177E+01 0.61849125988E+01 0.60474658389E+01 0.60258925529E+01
 0.60474658389E+01 0.61849125988E+01 0.65278616177E+01 0.70516421888E+01 0.77625882036E+01
 0.88991038568E+01 0.10901196204E+02 0.14293139748E+02 0.19556919098E+02 0.28104703904E+02
 0.54991748718E+02 0.12108535056E+03 0.23802572340E+03 0.40269353769E+03 0.59528540370E+03
 0.78087227641E+03 0.91680207452E+03 0.91680207452E+03 0.86912115433E+03 0.73971777684E+03
 0.56308819379E+03 0.37999172034E+03 0.22387775454E+03 0.11364206869E+03 0.51984569311E+02
 0.27294542480E+02 0.19239373649E+02 0.14115962012E+02 0.10825181795E+02 0.88798924966E+01
 0.77683474338E+01 0.70675000449E+01 0.65499625005E+01 0.62099159848E+01 0.60708117818E+01
 0.60474658389E+01 0.60708117818E+01 0.62099159848E+01 0.65499625005E+01 0.70675000449E+01
 0.77683474338E+01 0.88798924966E+01 0.10825181795E+02 0.14115962012E+02 0.19239373649E+02
 0.27294542480E+02 0.51984569311E+02 0.11364206869E+03 0.22387775454E+03 0.37999172034E+03
 0.56308819379E+03 0.73971777684E+03 0.86912115433E+03 0.78087227641E+03 0.73971777684E+03
 0.62805612511E+03 0.47584842557E+03 0.31871737080E+03 0.18601182892E+03 0.94041710572E+02
 0.44294633193E+02 0.25268461638E+02 0.18339348078E+02 0.13625407758E+02 0.10624648360E+02
 0.88447448307E+01 0.78122264048E+01 0.71515030619E+01 0.66645028102E+01 0.63447633042E+01
 0.62099159848E+01 0.61849125988E+01 0.62099159848E+01 0.63447633042E+01 0.66645028102E+01
 0.71515030619E+01 0.78122264048E+01 0.88447448307E+01 0.10624648360E+02 0.13625407758E+02
 0.18339348078E+02 0.25268461638E+02 0.44294633193E+02 0.94041710572E+02 0.18601182892E+03
 0.31871737080E+03 0.47584842557E+03 0.62805612511E+03 0.73971777684E+03 0.59528540370E+03
 0.56308819379E+03 0.47584842557E+03 0.35741864819E+03 0.23634188877E+03 0.13609673201E+03
 0.69131231137E+02 0.35117439791E+02 0.22837567495E+02 0.17007807516E+02 0.12931279304E+02
 0.10367697001E+02 0.88405014201E+01 0.79391990124E+01 0.73569499425E+01 0.69354836116E+01
 0.66645028102E+01 0.65499625005E+01 0.65278616177E+01 0.65499625005E+01 0.66645028102E+01
 0.69354836116E+01 0.73569499425E+01 0.79391990124E+01 0.88405014201E+01 0.10367697001E+02
 0.12931279304E+02 0.17007807516E+02 0.22837567495E+02 0.35117439791E+02 0.69131231137E+02
 0.13609673201E+03 0.23634188877E+03 0.35741864819E+03 0.47584842557E+03 0.56308819379E+03
 0.40269353769E+03 0.37999172034E+03 0.31871737080E+03 0.23634188877E+03 0.15377488987E+03
 0.87876544903E+02 0.46590096338E+02 0.27575285118E+02 0.20320230241E+02 0.15467141051E+02
 0.12178032537E+02 0.10133573695E+02 0.89073221948E+01 0.81695960434E+01 0.76912691621E+01
 0.73569499425E+01 0.71515030619E+01 0.70675000449E+01 0.70516421888E+01 0.70675000449E+01
 0.71515030619E+01 0.73569499425E+01 0.76912691621E+01 0.81695960434E+01 0.89073221948E+01
 0.10133573695E+02 0.12178032537E+02 0.15467141051E+02 0.20320230241E+02 0.27575285118E+02
 0.46590096338E+02 0.87876544903E+02 0.15377488987E+03 0.23634188877E+03 0.31871737080E+03
 0.37999172034E+03 0.23802572340E+03 0.22387775454E+03 0.18601182892E+03 0.13609673201E+03
 0.87876544903E+02 0.51784769307E+02 0.31394427698E+02 0.22728106327E+02 0.17697463814E+02
 0.13958722817E+02 0.11503894410E+02 0.99924951059E+01 0.90799546537E+01 0.85240480577E+01
 0.81695960434E+01 0.79391990124E+01 0.78122264048E+01 0.77683474338E+01 0.77625882036E+01
 0.77683474338E+01 0.78122264048E+01 0.79391990124E+01 0.81695960434E+01 0.85240480577E+01
 0.90799546537E+01 0.99924951059E+01 0.11503894410E+02 0.13958722817E+02 0.17697463814E+02
 0.22728106327E+02 0.31394427698E+02 0.51784769307E+02 0.87876544903E+02 0.13609673201E+03
 0.18601182892E+03 0.22387775454E+03 0.12108535056E+03 0.11364206869E+03 0.94041710572E+02
 0.69131231137E+02 0.46590096338E+02 0.31394427698E+02 0.23641261724E+02 0.19011699735E+02
 0.15298449092E+02 0.12680633156E+02 0.11011549423E+02 0.10004170313E+02 0.94134165435E+01
 0.90799546537E+01 0.89073221948E+01 0.88405014201E+01 0.88447448307E+01 0.88798924966E+01
 0.88991038568E+01 0.88798924966E+01 0.88447448307E+01 0.88405014201E+01 0.89073221948E+01
 0.90799546537E+01 0.94134165435E+01 0.10004170313E+02 0.11011549423E+02 0.12680633156E+02
 0.15298449092E+02 0.19011699735E+02 0.23641261724E+02 0.31394427698E+02 0.46590096338E+02
 0.69131231137E+02 0.94041710572E+02 0.11364206869E+03 0.54991748718E+02 0.51984569311E+02
 0.44294633193E+02 0.35117439791E+02 0.27575285118E+02 0.22728106327E+02 0.19011699735E+02
 0.15801041170E+02 0.13374328435E+02 0.11747624368E+02 0.10763892336E+02 0.10231128346E+02
 0.10004170313E+02 0.99924951059E+01 0.10133573695E+02 0.10367697001E+02 0.10624648360E+02
 0.10825181795E+02 0.10901196204E+02 0.10825181795E+02 0.10624648360E+02 0.10367697001E+02
 0.10133573695E+02 0.99924951059E+01 0.10004170313E+02 0.10231128346E+02 0.10763892336E+02
 0.11747624368E+02 0.13374328435E+02 0.15801041170E+02 0.19011699735E+02 0.22728106327E+02
 0.27575285118E+02 0.35117439791E+02 0.44294633193E+02 0.51984569311E+02 0.28104703904E+02
 0.27294542480E+02 0.25268461638E+02 0.22837567495E+02 0.20320230241E+02 0.17697463814E+02
 0.15298449092E+02 0.13374328435E+02 0.12018799109E+02 0.11194302597E+02 0.10805432564E+02
 0.10763892336E+02 0.11011549423E+02 0.11503894410E+02 0.12178032537E+02 0.12931279304E+02
 0.13625407758E+02 0.14115962012E+02 0.14293139748E+02 0.14115962012E+02 0.13625407758E+02
 0.12931279304E+02 0.12178032537E+02 0.11503894410E+02 0.11011549423E+02 0.10763892336E+02
 0.10805432564E+02 0.11194302597E+02 0.12018799109E+02 0.13374328435E+02 0.15298449092E+02
 0.17697463814E+02 0.20320230241E+02 0.22837567495E+02 0.25268461638E+02 0.27294542480E+02
 0.19556919098E+02 0.19239373649E+02 0.18339348078E+02 0.17007807516E+02 0.15467141051E+02