<?xml version="1.0" encoding="ISO-8859-1"?>
<modeling>
 <generator>
  <i name="program" type="string">vasp </i>
  <i name="version" type="string">6.2.0  </i>
  <i name="subversion" type="string">18Jan21 (build Mar 17 2021 09:06:54) complex                          serial </i>
  <i name="platform" type="string">LinuxIFC </i>
  <i name="date" type="string">2021 08 03 </i>
  <i name="time" type="string">10:22:12 </i>
 </generator>
 <incar>
  <i type="string" name="PREC">normal</i>
  <i type="int" name="ICHARG">     1</i>
  <i type="int" name="IBRION">     1</i>
  <i name="EDIFF">      0.00000100</i>
  <i type="int" name="NSW">     0</i>
  <i type="int" name="ISIF">     4</i>
  <i name="ENCUT">    320.00000000</i>
  <i type="int" name="NBANDS">    30</i>
  <i type="int" name="ISMEAR">     1</i>
  <i name="SIGMA">      0.20000000</i>
  <i type="logical" name="LCHARG"> T  </i>
  <i type="int" name="KPAR">     1</i>
  <i type="int" name="NCORE">     1</i>
  <i type="string" name="GGA">PE</i>
 </incar>
 <primitive_cell>
  <structure name="primitive_cell" >
   <crystal>
    <varray name="basis" >
     <v>       1.93138195      -1.93138195       0.00000000 </v>
     <v>       1.93138195       0.00000000       1.93138195 </v>
     <v>       0.00000000      -1.93138195       1.93138195 </v>
    </varray>
    <i name="volume">     14.40902186 </i>
    <varray name="rec_basis" >
     <v>       0.25888199      -0.25888199      -0.25888199 </v>
     <v>       0.25888199       0.25888199       0.25888199 </v>
     <v>      -0.25888199      -0.25888199       0.25888199 </v>
    </varray>
   </crystal>
   <varray name="positions" >
    <v>       0.00000000       0.00000000       0.00000000 </v>
   </varray>
  </structure>
  <varray name="primitive_index" >
   <v type="int" >        1 </v>
  </varray>
 </primitive_cell>
 <kpoints>
  <generation param="Monkhorst-Pack">
   <v type="int" name="divisions">       9        9        9 </v>
   <v name="usershift">      0.00000000       0.00000000       0.00000000 </v>
   <v name="genvec1">      0.11111111       0.00000000       0.00000000 </v>
   <v name="genvec2">      0.00000000       0.11111111       0.00000000 </v>
   <v name="genvec3">      0.00000000       0.00000000       0.11111111 </v>
   <v name="shift">      0.00000000       0.00000000       0.00000000 </v>
  </generation>
  <varray name="kpointlist" >
   <v>       0.00000000       0.00000000       0.00000000 </v>
   <v>       0.11111111       0.00000000       0.00000000 </v>
   <v>       0.22222222       0.00000000       0.00000000 </v>
   <v>       0.33333333       0.00000000       0.00000000 </v>
   <v>       0.44444444       0.00000000       0.00000000 </v>
   <v>       0.11111111       0.11111111       0.00000000 </v>
   <v>       0.22222222       0.11111111       0.00000000 </v>
   <v>       0.33333333       0.11111111       0.00000000 </v>
   <v>       0.44444444       0.11111111       0.00000000 </v>
   <v>       0.22222222       0.22222222       0.00000000 </v>
   <v>       0.33333333       0.22222222       0.00000000 </v>
   <v>       0.44444444       0.22222222       0.00000000 </v>
   <v>       0.33333333       0.33333333       0.00000000 </v>
   <v>       0.44444444       0.33333333       0.00000000 </v>
   <v>       0.44444444       0.44444444       0.00000000 </v>
   <v>       0.11111111       0.11111111       0.11111111 </v>
   <v>       0.22222222       0.11111111       0.11111111 </v>
   <v>       0.33333333       0.11111111       0.11111111 </v>
   <v>       0.44444444       0.11111111       0.11111111 </v>
   <v>       0.22222222       0.22222222       0.11111111 </v>
   <v>       0.33333333       0.22222222       0.11111111 </v>
   <v>       0.44444444       0.22222222       0.11111111 </v>
   <v>       0.33333333       0.33333333       0.11111111 </v>
   <v>       0.44444444       0.33333333       0.11111111 </v>
   <v>       0.44444444       0.44444444       0.11111111 </v>
   <v>       0.22222222       0.22222222       0.22222222 </v>
   <v>       0.33333333       0.22222222       0.22222222 </v>
   <v>       0.44444444       0.22222222       0.22222222 </v>
   <v>       0.33333333       0.33333333       0.22222222 </v>
   <v>       0.44444444       0.33333333       0.22222222 </v>
   <v>       0.44444444       0.44444444       0.22222222 </v>
   <v>       0.33333333       0.33333333       0.33333333 </v>
   <v>       0.44444444       0.33333333       0.33333333 </v>
   <v>       0.44444444       0.44444444       0.33333333 </v>
   <v>       0.44444444       0.44444444       0.44444444 </v>
  </varray>
  <varray name="weights" >
   <v>       0.00137174 </v>
   <v>       0.00823045 </v>
   <v>       0.00823045 </v>
   <v>       0.00823045 </v>
   <v>       0.00823045 </v>
   <v>       0.01646091 </v>
   <v>       0.03292181 </v>
   <v>       0.03292181 </v>
   <v>       0.03292181 </v>
   <v>       0.01646091 </v>
   <v>       0.03292181 </v>
   <v>       0.03292181 </v>
   <v>       0.01646091 </v>
   <v>       0.03292181 </v>
   <v>       0.01646091 </v>
   <v>       0.01097394 </v>
   <v>       0.03292181 </v>
   <v>       0.03292181 </v>
   <v>       0.03292181 </v>
   <v>       0.03292181 </v>
   <v>       0.06584362 </v>
   <v>       0.06584362 </v>
   <v>       0.03292181 </v>
   <v>       0.06584362 </v>
   <v>       0.03292181 </v>
   <v>       0.01097394 </v>
   <v>       0.03292181 </v>
   <v>       0.03292181 </v>
   <v>       0.03292181 </v>
   <v>       0.06584362 </v>
   <v>       0.03292181 </v>
   <v>       0.01097394 </v>
   <v>       0.03292181 </v>
   <v>       0.03292181 </v>
   <v>       0.01097394 </v>
  </varray>
 </kpoints>
 <parameters>
  <separator name="general" >
   <i type="string" name="SYSTEM">unknown system</i>
   <i type="logical" name="LCOMPAT"> F  </i>
  </separator>
  <separator name="electronic" >
   <i type="string" name="PREC">normal</i>
   <i name="ENMAX">    320.00000000</i>
   <i name="ENAUG">    586.98000000</i>
   <i name="EDIFF">      0.00000100</i>
   <i type="int" name="IALGO">    38</i>
   <i type="int" name="IWAVPR">     0</i>
   <i type="int" name="NBANDS">    30</i>
   <i type="int" name="NBANDSLOW">    -1</i>
   <i type="int" name="NBANDSHIGH">    -1</i>
   <i name="NELECT">     44.00000000</i>
   <i type="int" name="TURBO">     0</i>
   <i type="int" name="IRESTART">     0</i>
   <i type="int" name="NREBOOT">     0</i>
   <i type="int" name="NMIN">     0</i>
   <i name="EREF">      0.00000000</i>
   <separator name="electronic smearing" >
    <i type="int" name="ISMEAR">     1</i>
    <i name="SIGMA">      0.20000000</i>
    <i name="KSPACING">      0.50000000</i>
    <i type="logical" name="KGAMMA"> T  </i>
    <i type="logical" name="KBLOWUP"> T  </i>
   </separator>
   <separator name="electronic projectors" >
    <i type="logical" name="LREAL"> F  </i>
    <v name="ROPT">      0.00000000</v>
    <i type="int" name="LMAXPAW">  -100</i>
    <i type="int" name="LMAXMIX">     2</i>
    <i type="logical" name="NLSPLINE"> F  </i>
   </separator>
   <separator name="electronic startup" >
    <i type="int" name="ISTART">     0</i>
    <i type="int" name="ICHARG">     1</i>
    <i type="int" name="INIWAV">     1</i>
   </separator>
   <separator name="electronic spin" >
    <i type="int" name="ISPIN">     1</i>
    <i type="logical" name="LNONCOLLINEAR"> F  </i>
    <v name="MAGMOM">      1.00000000      1.00000000      1.00000000      1.00000000</v>
    <i name="NUPDOWN">     -1.00000000</i>
    <i type="logical" name="LSORBIT"> F  </i>
    <v name="SAXIS">      0.00000000      0.00000000      1.00000000</v>
    <i type="logical" name="LSPIRAL"> F  </i>
    <v name="QSPIRAL">      0.00000000      0.00000000      0.00000000</v>
    <i type="logical" name="LZEROZ"> F  </i>
   </separator>
   <separator name="electronic exchange-correlation" >
    <i type="logical" name="LASPH"> F  </i>
    <i type="logical" name="LMETAGGA"> F  </i>
   </separator>
   <separator name="electronic convergence" >
    <i type="int" name="NELM">    60</i>
    <i type="int" name="NELMDL">    -5</i>
    <i type="int" name="NELMIN">     2</i>
    <i name="ENINI">    320.00000000</i>
    <separator name="electronic convergence detail" >
     <i type="logical" name="LDIAG"> T  </i>
     <i type="logical" name="LSUBROT"> F  </i>
     <i name="WEIMIN">      0.00000000</i>
     <i name="EBREAK">      0.00000001</i>
     <i name="DEPER">      0.30000000</i>
     <i type="int" name="NRMM">     4</i>
     <i name="TIME">      0.40000000</i>
    </separator>
   </separator>
   <separator name="electronic mixer" >
    <i name="AMIX">      0.40000000</i>
    <i name="BMIX">      1.00000000</i>
    <i name="AMIN">      0.10000000</i>
    <i name="AMIX_MAG">      1.60000000</i>
    <i name="BMIX_MAG">      1.00000000</i>
    <separator name="electronic mixer details" >
     <i type="int" name="IMIX">     4</i>
     <i type="logical" name="MIXFIRST"> F  </i>
     <i type="int" name="MAXMIX">   -45</i>
     <i name="WC">    100.00000000</i>
     <i type="int" name="INIMIX">     1</i>
     <i type="int" name="MIXPRE">     1</i>
     <i type="int" name="MREMOVE">     5</i>
    </separator>
   </separator>
   <separator name="electronic dipolcorrection" >
    <i type="logical" name="LDIPOL"> F  </i>
    <i type="logical" name="LMONO"> F  </i>
    <i type="int" name="IDIPOL">     0</i>
    <i name="EPSILON">      1.00000000</i>
    <v name="DIPOL">   -100.00000000   -100.00000000   -100.00000000</v>
    <i name="EFIELD">      0.00000000</i>
   </separator>
  </separator>
  <separator name="grids" >
   <i type="int" name="NGX">    18</i>
   <i type="int" name="NGY">    18</i>
   <i type="int" name="NGZ">    18</i>
   <i type="int" name="NGXF">    36</i>
   <i type="int" name="NGYF">    36</i>
   <i type="int" name="NGZF">    36</i>
   <i type="logical" name="ADDGRID"> F  </i>
  </separator>
  <separator name="ionic" >
   <i type="int" name="NSW">     0</i>
   <i type="int" name="IBRION">    -1</i>
   <i type="int" name="MDALGO">     0</i>
   <i type="int" name="ISIF">     4</i>
   <i name="PSTRESS">      0.00000000</i>
   <i name="EDIFFG">      0.00001000</i>
   <i type="int" name="NFREE">     0</i>
   <i name="POTIM">      0.50000000</i>
   <i name="SMASS">     -3.00000000</i>
   <i name="SCALEE">      1.00000000</i>
  </separator>
  <separator name="ionic md" >
   <i name="TEBEG">      0.00010000</i>
   <i name="TEEND">      0.00010000</i>
   <i type="int" name="NBLOCK">     1</i>
   <i type="int" name="KBLOCK">     1</i>
   <i type="int" name="NPACO">   256</i>
   <i name="APACO">     16.00000000</i>
  </separator>
  <separator name="symmetry" >
   <i type="int" name="ISYM">     2</i>
   <i name="SYMPREC">      0.00001000</i>
  </separator>
  <separator name="dos" >
   <i type="int" name="LORBIT">     0</i>
   <v name="RWIGS">     -1.00000000</v>
   <i type="int" name="NEDOS">   301</i>
   <i name="EMIN">     10.00000000</i>
   <i name="EMAX">    -10.00000000</i>
   <i name="EFERMI">      0.00000000</i>
  </separator>
  <separator name="writing" >
   <i type="int" name="NWRITE">     2</i>
   <i type="logical" name="LWAVE"> T  </i>
   <i type="logical" name="LDOWNSAMPLE"> F  </i>
   <i type="logical" name="LCHARG"> T  </i>
   <i type="logical" name="LPARD"> F  </i>
   <i type="logical" name="LVTOT"> F  </i>
   <i type="logical" name="LVHAR"> F  </i>
   <i type="logical" name="LELF"> F  </i>
   <i type="logical" name="LOPTICS"> F  </i>
   <v name="STM">      0.00000000      0.00000000      0.00000000      0.00000000      0.00000000      0.00000000      0.00000000</v>
  </separator>
  <separator name="performance" >
   <i type="int" name="NPAR">     1</i>
   <i type="int" name="NSIM">     4</i>
   <i type="int" name="NBLK">    -1</i>
   <i type="logical" name="LPLANE"> T  </i>
   <i type="logical" name="LSCALAPACK"> F  </i>
   <i type="logical" name="LSCAAWARE"> F  </i>
   <i type="logical" name="LSCALU"> F  </i>
   <i type="logical" name="LASYNC"> F  </i>
   <i type="logical" name="LORBITALREAL"> F  </i>
  </separator>
  <separator name="miscellaneous" >
   <i type="int" name="IDIOT">     3</i>
   <i type="int" name="PHON_NSTRUCT">    -1</i>
   <i type="logical" name="LMUSIC"> F  </i>
   <v name="POMASS">     63.54600000</v>
   <v name="DARWINR">      0.00000000</v>
   <v name="DARWINV">      1.00000000</v>
   <i type="logical" name="LCORR"> T  </i>
  </separator>
  <i type="logical" name="GGA_COMPAT"> T  </i>
  <i type="logical" name="LBERRY"> F  </i>
  <i type="int" name="ICORELEVEL">     0</i>
  <i type="logical" name="LDAU"> F  </i>
  <i type="int" name="I_CONSTRAINED_M">     0</i>
  <separator name="electronic exchange-correlation" >
   <i type="string" name="GGA">PE</i>
   <i type="int" name="VOSKOWN">     0</i>
   <i type="logical" name="LHFCALC"> F  </i>
   <i type="string" name="PRECFOCK"></i>
   <i type="logical" name="LSYMGRAD"> F  </i>
   <i type="logical" name="LHFONE"> F  </i>
   <i type="logical" name="LRHFCALC"> F  </i>
   <i type="logical" name="LTHOMAS"> F  </i>
   <i type="logical" name="LMODELHF"> F  </i>
   <i type="logical" name="LFOCKACE"> F  </i>
   <i name="ENCUT4O">     -1.00000000</i>
   <i type="int" name="EXXOEP">     0</i>
   <i type="int" name="FOURORBIT">     0</i>
   <i name="AEXX">      0.00000000</i>
   <i name="HFALPHA">      0.00000000</i>
   <i name="MCALPHA">      0.00000000</i>
   <i name="ALDAX">      1.00000000</i>
   <i name="AGGAX">      1.00000000</i>
   <i name="ALDAC">      1.00000000</i>
   <i name="AGGAC">      1.00000000</i>
   <i type="int" name="NKREDX">     1</i>
   <i type="int" name="NKREDY">     1</i>
   <i type="int" name="NKREDZ">     1</i>
   <i type="logical" name="SHIFTRED"> F  </i>
   <i type="logical" name="ODDONLY"> F  </i>
   <i type="logical" name="EVENONLY"> F  </i>
   <i type="int" name="LMAXFOCK">     0</i>
   <i type="int" name="NMAXFOCKAE">     0</i>
   <i type="logical" name="LFOCKAEDFT"> F  </i>
   <i name="HFSCREEN">      0.00000000</i>
   <i name="HFSCREENC">      0.00000000</i>
   <i type="int" name="NBANDSGWLOW">     0</i>
  </separator>
  <separator name="vdW DFT" >
   <i type="logical" name="LUSE_VDW"> F  </i>
   <i name="Zab_VDW">     -0.84910000</i>
   <i name="PARAM1">      0.12340000</i>
   <i name="PARAM2">      1.00000000</i>
   <i name="PARAM3">      0.00000000</i>
  </separator>
  <separator name="model GW" >
   <i type="int" name="MODEL_GW">     0</i>
   <i name="MODEL_EPS0">      8.64541312</i>
   <i name="MODEL_ALPHA">      1.00000000</i>
  </separator>
  <separator name="linear response parameters" >
   <i type="logical" name="LEPSILON"> F  </i>
   <i type="logical" name="LRPA"> F  </i>
   <i type="logical" name="LNABLA"> F  </i>
   <i type="logical" name="LVEL"> F  </i>
   <i type="int" name="KINTER">     0</i>
   <i name="CSHIFT">      0.10000000</i>
   <i name="OMEGAMAX">     -1.00000000</i>
   <i name="DEG_THRESHOLD">      0.00200000</i>
   <i name="RTIME">     -0.10000000</i>
   <i name="WPLASMAI">      0.00000000</i>
   <v name="DFIELD">      0.00000000      0.00000000      0.00000000</v>
   <v name="WPLASMA">      0.00000000      0.00000000      0.00000000      0.00000000      0.00000000      0.00000000      0.00000000      0.00000000      0.00000000</v>
  </separator>
  <separator name="orbital magnetization" >
   <i type="logical" name="NUCIND"> F  </i>
   <v name="MAGPOS">      0.00000000      0.00000000      0.00000000</v>
   <i type="logical" name="LNICSALL"> T  </i>
   <i type="logical" name="ORBITALMAG"> F  </i>
   <i type="logical" name="LMAGBLOCH"> F  </i>
   <i type="logical" name="LCHIMAG"> F  </i>
   <i type="logical" name="LGAUGE"> T  </i>
   <i type="int" name="MAGATOM">     0</i>
   <v name="MAGDIPOL">      0.00000000      0.00000000      0.00000000</v>
   <v name="AVECCONST">      0.00000000      0.00000000      0.00000000</v>
  </separator>
  <separator name="response functions" >
   <i type="logical" name="LFINITE_TEMPERATURE"> F  </i>
   <i type="logical" name="LADDER"> F  </i>
   <i type="logical" name="LRPAFORCE"> F  </i>
   <i type="logical" name="LFXC"> F  </i>
   <i type="logical" name="LHARTREE"> T  </i>
   <i type="int" name="IBSE">     0</i>
   <v type="int" name="KPOINT">    -1     0     0     0</v>
   <i type="logical" name="LTCTC"> F  </i>
   <i type="logical" name="LTCTE"> F  </i>
   <i type="logical" name="LTETE"> F  </i>
   <i type="logical" name="LTRIPLET"> F  </i>
   <i type="logical" name="LFXCEPS"> F  </i>
   <i type="logical" name="LFXHEG"> F  </i>
   <i type="int" name="NATURALO">     2</i>
   <i type="logical" name="LHOLEGF"> F  </i>
   <i type="logical" name="L2ORDER"> F  </i>
   <i type="logical" name="LDMP1"> F  </i>
   <i type="logical" name="LMP2LT"> F  </i>
   <i type="logical" name="LSMP2LT"> F  </i>
   <i type="logical" name="LGWLF"> F  </i>
   <i name="ENCUTGW">     -2.00000000</i>
   <i name="ENCUTGWSOFT">     -2.00000000</i>
   <i name="ENCUTLF">     -1.00000000</i>
   <i type="logical" name="LESF_SPLINES"> F  </i>
   <i type="int" name="LMAXMP2">    -1</i>
   <i name="SCISSOR">      0.00000000</i>
   <i type="int" name="NOMEGA">     0</i>
   <i type="int" name="NOMEGAR">     0</i>
   <i type="int" name="NBANDSGW">    -1</i>
   <i type="int" name="NBANDSO">    -1</i>
   <i type="int" name="NBANDSV">    -1</i>
   <i type="int" name="NELM">     1</i>
   <i type="int" name="NELMHF">     1</i>
   <i type="int" name="DIM">     3</i>
   <i type="int" name="IESPILON">     4</i>
   <i type="int" name="ANTIRES">     0</i>
   <i name="OMEGAMAX">    -30.00000000</i>
   <i name="OMEGAMIN">    -30.00000000</i>
   <i name="OMEGATL">   -200.00000000</i>
   <i type="int" name="OMEGAGRID">     0</i>
   <i name="CSHIFT">     -0.10000000</i>
   <i type="logical" name="LSELFENERGY"> F  </i>
   <i type="logical" name="LSPECTRAL"> F  </i>
   <i type="logical" name="LSPECTRALGW"> F  </i>
   <i type="logical" name="LSINGLES"> F  </i>
   <i type="logical" name="LFERMIGW"> F  </i>
   <i type="logical" name="ODDONLYGW"> F  </i>
   <i type="logical" name="EVENONLYGW"> F  </i>
   <i type="int" name="NKREDLFX">     1</i>
   <i type="int" name="NKREDLFY">     1</i>
   <i type="int" name="NKREDLFZ">     1</i>
   <i type="int" name="MAXMEM">  2800</i>
   <i type="int" name="TELESCOPE">     0</i>
   <i type="int" name="NTAUPAR">    -1</i>
   <i type="int" name="NOMEGAPAR">    -1</i>
   <i name="DAMP_NEWTON">      0.80000001</i>
   <i name="LAMBDA">      1.00000000</i>
  </separator>
  <separator name="External order field" >
   <i name="OFIELD_KAPPA">      0.00000000</i>
   <v name="OFIELD_K">      0.00000000      0.00000000      0.00000000</v>
   <i name="OFIELD_Q6_NEAR">      0.00000000</i>
   <i name="OFIELD_Q6_FAR">      0.00000000</i>
   <i name="OFIELD_A">      0.00000000</i>
  </separator>
 </parameters>
 <atominfo>
  <atoms>       4 </atoms>
  <types>       1 </types>
  <array name="atoms" >
   <dimension dim="1">ion</dimension>
   <field type="string">element</field>
   <field type="int">atomtype</field>
   <set>
    <rc><c>Cu</c><c>   1</c></rc>
    <rc><c>Cu</c><c>   1</c></rc>
    <rc><c>Cu</c><c>   1</c></rc>
    <rc><c>Cu</c><c>   1</c></rc>
   </set>
  </array>
  <array name="atomtypes" >
   <dimension dim="1">type</dimension>
   <field type="int">atomspertype</field>
   <field type="string">element</field>
   <field>mass</field>
   <field>valence</field>
   <field type="string">pseudopotential</field>
   <set>
    <rc><c>   4</c><c>Cu</c><c>     63.54600000</c><c>     11.00000000</c><c>  PAW_PBE Cu 22Jun2005                  </c></rc>
   </set>
  </array>
 </atominfo>
 <structure name="initialpos" >
  <crystal>
   <varray name="basis" >
    <v>       3.86276390       0.00000000       0.00000000 </v>
    <v>       0.00000000       3.86276390       0.00000000 </v>
    <v>       0.00000000       0.00000000       3.86276390 </v>
   </varray>
   <i name="volume">     57.63608745 </i>
   <varray name="rec_basis" >
    <v>       0.25888199       0.00000000       0.00000000 </v>
    <v>       0.00000000       0.25888199       0.00000000 </v>
    <v>       0.00000000       0.00000000       0.25888199 </v>
   </varray>
  </crystal>
  <varray name="positions" >
   <v>       0.00000000       0.00000000       0.00000000 </v>
   <v>       0.50000000       0.50000000       0.00000000 </v>
   <v>       0.50000000       0.00000000       0.50000000 </v>
   <v>       0.00000000       0.50000000       0.50000000 </v>
  </varray>
 </structure>
 <calculation>
  <scstep>
   <time name="dav">    0.57    0.59</time>
   <time name="total">    0.59    0.61</time>
   <energy>
    <i name="alphaZ">    203.01948154 </i>
    <i name="ewald">  -4136.18118970 </i>
    <i name="hartreedc">  -1605.27511660 </i>
    <i name="XCdc">    181.13929457 </i>
    <i name="pawpsdc">   4912.82663951 </i>
    <i name="pawaedc">  -5336.19386850 </i>
    <i name="eentropy">     -0.00695429 </i>
    <i name="bandstr">    509.89214299 </i>
    <i name="atom">   5563.77610493 </i>
    <i name="e_fr_energy">    292.99653444 </i>
    <i name="e_wo_entrp">    293.00348873 </i>
    <i name="e_0_energy">    292.99885254 </i>
   </energy>
  </scstep>
  <scstep>
   <time name="dav">    0.54    0.54</time>
   <time name="total">    0.54    0.54</time>
   <energy>
    <i name="e_fr_energy">      5.20632477 </i>
    <i name="e_wo_entrp">      5.20188948 </i>
    <i name="e_0_energy">      5.20484634 </i>
   </energy>
  </scstep>
  <scstep>
   <time name="dav">    0.58    0.58</time>
   <time name="total">    0.58    0.58</time>
   <energy>
    <i name="e_fr_energy">    -17.05303890 </i>
    <i name="e_wo_entrp">    -17.05064200 </i>
    <i name="e_0_energy">    -17.05223993 </i>
   </energy>
  </scstep>
  <scstep>
   <time name="dav">    0.57    0.57</time>
   <time name="total">    0.57    0.57</time>
   <energy>
    <i name="e_fr_energy">    -17.48787986 </i>
    <i name="e_wo_entrp">    -17.48551763 </i>
    <i name="e_0_energy">    -17.48709245 </i>
   </energy>
  </scstep>
  <scstep>
   <time name="dav">    0.64    0.64</time>
   <time name="total">    0.69    0.69</time>
   <energy>
    <i name="e_fr_energy">    -17.49203122 </i>
    <i name="e_wo_entrp">    -17.48967066 </i>
    <i name="e_0_energy">    -17.49124437 </i>
   </energy>
  </scstep>
  <scstep>
   <time name="dav">    0.54    0.54</time>
   <time name="total">    0.60    0.60</time>
   <energy>
    <i name="e_fr_energy">    -16.29258800 </i>
    <i name="e_wo_entrp">    -16.29222761 </i>
    <i name="e_0_energy">    -16.29246787 </i>
   </energy>
  </scstep>
  <scstep>
   <time name="dav">    0.57    0.57</time>
   <time name="total">    0.63    0.63</time>
   <energy>
    <i name="e_fr_energy">    -14.39032538 </i>
    <i name="e_wo_entrp">    -14.39281604 </i>
    <i name="e_0_energy">    -14.39115560 </i>
   </energy>
  </scstep>
  <scstep>
   <time name="dav">    0.65    0.65</time>
   <time name="total">    0.71    0.71</time>
   <energy>
    <i name="e_fr_energy">    -14.38540520 </i>
    <i name="e_wo_entrp">    -14.38852950 </i>
    <i name="e_0_energy">    -14.38644663 </i>
   </energy>
  </scstep>
  <scstep>
   <time name="dav">    0.61    0.61</time>
   <time name="total">    0.67    0.67</time>
   <energy>
    <i name="e_fr_energy">    -14.36895875 </i>
    <i name="e_wo_entrp">    -14.37117303 </i>
    <i name="e_0_energy">    -14.36969684 </i>
   </energy>
  </scstep>
  <scstep>
   <time name="dav">    0.63    0.63</time>
   <time name="total">    0.69    0.69</time>
   <energy>
    <i name="e_fr_energy">    -14.36900629 </i>
    <i name="e_wo_entrp">    -14.37131769 </i>
    <i name="e_0_energy">    -14.36977676 </i>
   </energy>
  </scstep>
  <scstep>
   <time name="dav">    0.59    0.59</time>
   <time name="total">    0.65    0.65</time>
   <energy>
    <i name="e_fr_energy">    -14.36900602 </i>
    <i name="e_wo_entrp">    -14.37130598 </i>
    <i name="e_0_energy">    -14.36977267 </i>
   </energy>
  </scstep>
  <scstep>
   <time name="dav">    0.49    0.49</time>
   <time name="total">    0.55    0.55</time>
   <energy>
    <i name="e_fr_energy">    -14.36900824 </i>
    <i name="e_wo_entrp">    -14.37130642 </i>
    <i name="e_0_energy">    -14.36977430 </i>
   </energy>
  </scstep>
  <scstep>
   <time name="dav">    0.38    0.38</time>
   <time name="total">    0.40    0.40</time>
   <energy>
    <i name="alphaZ">    203.01948154 </i>
    <i name="ewald">  -4136.18118970 </i>
    <i name="hartreedc">  -1520.36726845 </i>
    <i name="XCdc">    177.27966438 </i>
    <i name="pawpsdc">   5046.57797446 </i>
    <i name="pawaedc">  -5474.29391231 </i>
    <i name="eentropy">      0.00229722 </i>
    <i name="bandstr">    125.81783927 </i>
    <i name="atom">   5563.77610493 </i>
    <i name="e_fr_energy">    -14.36900868 </i>
    <i name="e_wo_entrp">    -14.37130590 </i>
    <i name="e_0_energy">    -14.36977442 </i>
   </energy>
  </scstep>
  <structure>
   <crystal>
    <varray name="basis" >
     <v>       3.86276390       0.00000000       0.00000000 </v>
     <v>       0.00000000       3.86276390       0.00000000 </v>
     <v>       0.00000000       0.00000000       3.86276390 </v>
    </varray>
    <i name="volume">     57.63608745 </i>
    <varray name="rec_basis" >
     <v>       0.25888199       0.00000000       0.00000000 </v>
     <v>       0.00000000       0.25888199       0.00000000 </v>
     <v>       0.00000000       0.00000000       0.25888199 </v>
    </varray>
   </crystal>
   <varray name="positions" >
    <v>       0.00000000       0.00000000       0.00000000 </v>
    <v>       0.50000000       0.50000000       0.00000000 </v>
    <v>       0.50000000       0.00000000       0.50000000 </v>
    <v>       0.00000000       0.50000000       0.50000000 </v>
   </varray>
  </structure>
  <varray name="forces" >
   <v>      -0.00000000       0.00000000       0.00000000 </v>
   <v>      -0.00000000      -0.00000000       0.00000000 </v>
   <v>      -0.00000000      -0.00000000      -0.00000000 </v>
   <v>       0.00000000      -0.00000000      -0.00000000 </v>
  </varray>
  <varray name="stress" >
   <v>    -162.59948564      -0.00000000       0.00000000 </v>
   <v>       0.00000000    -162.59948564      -0.00000000 </v>
   <v>      -0.00000000       0.00000000    -162.59948564 </v>
  </varray>
  <energy>
   <i name="e_fr_energy">    -14.36900868 </i>
   <i name="e_wo_entrp">    -14.37130590 </i>
   <i name="e_0_energy">    -14.36977442 </i>
  </energy>
  <time name="totalsc">    8.36    8.38</time>
  <eigenvalues>
   <array>
    <dimension dim="1">band</dimension>
    <dimension dim="2">kpoint</dimension>
    <dimension dim="3">spin</dimension>
    <field>eigene</field>
    <field>occ</field>
    <set>
     <set comment="spin 1">
      <set comment="kpoint 1">
       <r>   -2.5800    1.0000 </r>
       <r>    1.5153    1.0000 </r>
       <r>    1.5153    1.0000 </r>
       <r>    1.5153    1.0000 </r>
       <r>    1.8552    1.0000 </r>
       <r>    1.8552    1.0000 </r>
       <r>    1.8552    1.0000 </r>
       <r>    2.8736    1.0000 </r>
       <r>    2.8736    1.0000 </r>
       <r>    2.8736    1.0000 </r>
       <r>    3.4809    1.0000 </r>
       <r>    3.4809    1.0000 </r>
       <r>    3.8866    1.0000 </r>
       <r>    3.8866    1.0000 </r>
       <r>    3.8866    1.0000 </r>
       <r>    4.0005    1.0000 </r>
       <r>    4.0005    1.0000 </r>
       <r>    4.0005    1.0000 </r>
       <r>    4.0005    1.0000 </r>
       <r>    4.0005    1.0000 </r>
       <r>    4.0005    1.0000 </r>
       <r>    7.0074   -0.0000 </r>
       <r>    7.0074   -0.0000 </r>
       <r>    7.0074   -0.0000 </r>
       <r>   11.1840    0.0000 </r>
       <r>   11.1840    0.0000 </r>
       <r>   11.1840    0.0000 </r>
       <r>   16.9878    0.0000 </r>
       <r>   16.9878    0.0000 </r>
       <r>   16.9878    0.0000 </r>
      </set>
      <set comment="kpoint 2">
       <r>   -2.4499    1.0000 </r>
       <r>    1.5072    1.0000 </r>
       <r>    1.5699    1.0000 </r>
       <r>    1.5699    1.0000 </r>
       <r>    1.8849    1.0000 </r>
       <r>    1.8870    1.0000 </r>
       <r>    1.8870    1.0000 </r>
       <r>    2.8418    1.0000 </r>
       <r>    2.8999    1.0000 </r>
       <r>    2.8999    1.0000 </r>
       <r>    3.4522    1.0000 </r>
       <r>    3.4929    1.0000 </r>
       <r>    3.8334    1.0000 </r>
       <r>    3.8334    1.0000 </r>
       <r>    3.8494    1.0000 </r>
       <r>    3.8494    1.0000 </r>
       <r>    3.8741    1.0000 </r>
       <r>    3.9564    1.0000 </r>
       <r>    3.9564    1.0000 </r>
       <r>    4.0005    1.0000 </r>
       <r>    4.0005    1.0000 </r>
       <r>    6.1497   -0.0000 </r>
       <r>    7.2954   -0.0000 </r>
       <r>    7.2954   -0.0000 </r>
       <r>   11.2418    0.0000 </r>
       <r>   11.2418    0.0000 </r>
       <r>   12.3154    0.0000 </r>
       <r>   16.1616    0.0000 </r>
       <r>   16.1623    0.0000 </r>
       <r>   16.3786    0.0000 </r>
      </set>
      <set comment="kpoint 3">
       <r>   -2.0634    1.0000 </r>
       <r>    1.4312    1.0000 </r>
       <r>    1.7191    1.0000 </r>
       <r>    1.7191    1.0000 </r>
       <r>    1.9705    1.0000 </r>
       <r>    1.9829    1.0000 </r>
       <r>    1.9829    1.0000 </r>
       <r>    2.7506    1.0000 </r>
       <r>    2.9782    1.0000 </r>
       <r>    2.9782    1.0000 </r>
       <r>    3.3721    1.0000 </r>
       <r>    3.4618    1.0000 </r>
       <r>    3.4618    1.0000 </r>
       <r>    3.5276    1.0000 </r>
       <r>    3.7443    1.0000 </r>
       <r>    3.7443    1.0000 </r>
       <r>    3.8342    1.0000 </r>
       <r>    3.8342    1.0000 </r>
       <r>    3.8384    1.0000 </r>
       <r>    4.0007    1.0000 </r>
       <r>    4.0007    1.0000 </r>
       <r>    4.7265    1.0003 </r>
       <r>    8.0289   -0.0000 </r>
       <r>    8.0289   -0.0000 </r>
       <r>   11.4233    0.0000 </r>
       <r>   11.4233    0.0000 </r>
       <r>   14.6043    0.0000 </r>
       <r>   14.6386    0.0000 </r>
       <r>   14.6386    0.0000 </r>
       <r>   15.1834    0.0000 </r>
      </set>
      <set comment="kpoint 4">
       <r>   -1.4354    1.0000 </r>
       <r>    1.0949    1.0000 </r>
       <r>    1.9162    1.0000 </r>
       <r>    1.9162    1.0000 </r>
       <r>    2.1027    1.0000 </r>
       <r>    2.1460    1.0000 </r>
       <r>    2.1460    1.0000 </r>
       <r>    2.6120    1.0000 </r>
       <r>    3.0535    1.0000 </r>
       <r>    3.0535    1.0000 </r>
       <r>    3.1044    1.0000 </r>
       <r>    3.1044    1.0000 </r>
       <r>    3.2615    1.0000 </r>
       <r>    3.5810    1.0000 </r>
       <r>    3.5975    1.0000 </r>
       <r>    3.5975    1.0000 </r>
       <r>    3.6430    1.0000 </r>
       <r>    3.6591    1.0000 </r>
       <r>    3.6591    1.0000 </r>
       <r>    3.7838    1.0000 </r>
       <r>    4.0010    1.0000 </r>
       <r>    4.0010    1.0000 </r>
       <r>    9.0358   -0.0000 </r>
       <r>    9.0358   -0.0000 </r>
       <r>   11.7510    0.0000 </r>
       <r>   11.7510    0.0000 </r>
       <r>   13.0674    0.0000 </r>
       <r>   13.0674    0.0000 </r>
       <r>   14.0084    0.0000 </r>
       <r>   14.0084    0.0000 </r>
      </set>
      <set comment="kpoint 5">
       <r>   -0.6033    1.0000 </r>
       <r>    0.3299    1.0000 </r>
       <r>    2.0699    1.0000 </r>
       <r>    2.0699    1.0000 </r>
       <r>    2.2671    1.0000 </r>
       <r>    2.3792    1.0000 </r>
       <r>    2.3792    1.0000 </r>
       <r>    2.4437    1.0000 </r>
       <r>    2.6838    1.0000 </r>
       <r>    2.6838    1.0000 </r>
       <r>    3.1668    1.0000 </r>
       <r>    3.2026    1.0000 </r>
       <r>    3.2701    1.0000 </r>
       <r>    3.2701    1.0000 </r>
       <r>    3.4621    1.0000 </r>
       <r>    3.4621    1.0000 </r>
       <r>    3.4765    1.0000 </r>
       <r>    3.4765    1.0000 </r>
       <r>    3.6468    1.0000 </r>
       <r>    3.7174    1.0000 </r>
       <r>    4.0010    1.0000 </r>
       <r>    4.0010    1.0000 </r>
       <r>   10.2336   -0.0000 </r>
       <r>   10.2336   -0.0000 </r>
       <r>   11.5856    0.0000 </r>
       <r>   11.5856    0.0000 </r>
       <r>   12.2452    0.0000 </r>
       <r>   12.2452    0.0000 </r>
       <r>   13.0541    0.0000 </r>
       <r>   13.0541    0.0000 </r>
      </set>
      <set comment="kpoint 6">
       <r>   -2.3205    1.0000 </r>
       <r>    1.5643    1.0000 </r>
       <r>    1.5643    1.0000 </r>
       <r>    1.6215    1.0000 </r>
       <r>    1.9156    1.0000 </r>
       <r>    1.9156    1.0000 </r>
       <r>    1.9169    1.0000 </r>
       <r>    2.8252    1.0000 </r>
       <r>    2.9122    1.0000 </r>
       <r>    2.9218    1.0000 </r>
       <r>    3.4450    1.0000 </r>
       <r>    3.4881    1.0000 </r>
       <r>    3.7189    1.0000 </r>
       <r>    3.7496    1.0000 </r>
       <r>    3.7496    1.0000 </r>
       <r>    3.8150    1.0000 </r>
       <r>    3.8634    1.0000 </r>
       <r>    3.8634    1.0000 </r>
       <r>    3.9562    1.0000 </r>
       <r>    3.9562    1.0000 </r>
       <r>    3.9717    1.0000 </r>
       <r>    6.4244   -0.0000 </r>
       <r>    6.4244   -0.0000 </r>
       <r>    7.5602   -0.0000 </r>
       <r>   11.3018    0.0000 </r>
       <r>   12.3989    0.0000 </r>
       <r>   12.3989    0.0000 </r>
       <r>   14.6002    0.0000 </r>
       <r>   16.3293    0.0000 </r>
       <r>   16.3317    0.0000 </r>
      </set>
      <set comment="kpoint 7">
       <r>   -1.9366    1.0000 </r>
       <r>    1.4975    1.0000 </r>
       <r>    1.7216    1.0000 </r>
       <r>    1.7631    1.0000 </r>
       <r>    1.9980    1.0000 </r>
       <r>    2.0072    1.0000 </r>
       <r>    2.0083    1.0000 </r>
       <r>    2.7452    1.0000 </r>
       <r>    2.9825    1.0000 </r>
       <r>    2.9837    1.0000 </r>
       <r>    3.3755    1.0000 </r>
       <r>    3.3797    1.0000 </r>
       <r>    3.4023    1.0000 </r>
       <r>    3.5243    1.0000 </r>
       <r>    3.5651    1.0000 </r>
       <r>    3.7170    1.0000 </r>
       <r>    3.7539    1.0000 </r>
       <r>    3.8309    1.0000 </r>
       <r>    3.8335    1.0000 </r>
       <r>    3.9558    1.0000 </r>
       <r>    3.9566    1.0000 </r>
       <r>    5.0413    1.0353 </r>
       <r>    7.0845   -0.0000 </r>
       <r>    8.2547   -0.0000 </r>
       <r>   11.4899    0.0000 </r>
       <r>   12.6567    0.0000 </r>
       <r>   12.9462    0.0000 </r>
       <r>   14.7025    0.0000 </r>
       <r>   14.7965    0.0000 </r>
       <r>   15.3308    0.0000 </r>
      </set>
      <set comment="kpoint 8">
       <r>   -1.3135    1.0000 </r>
       <r>    1.1772    1.0000 </r>
       <r>    1.9318    1.0000 </r>
       <r>    1.9540    1.0000 </r>
       <r>    2.1255    1.0000 </r>
       <r>    2.1542    1.0000 </r>
       <r>    2.1655    1.0000 </r>
       <r>    2.6141    1.0000 </r>
       <r>    2.9760    1.0000 </r>
       <r>    3.0281    1.0000 </r>
       <r>    3.0619    1.0000 </r>
       <r>    3.1060    1.0000 </r>
       <r>    3.2677    1.0000 </r>
       <r>    3.3040    1.0000 </r>
       <r>    3.5799    1.0000 </r>
       <r>    3.5908    1.0000 </r>
       <r>    3.6076    1.0000 </r>
       <r>    3.6583    1.0000 </r>
       <r>    3.7415    1.0000 </r>
       <r>    3.9536    1.0000 </r>
       <r>    3.9551    1.0000 </r>
       <r>    4.1031    1.0000 </r>
       <r>    7.9503   -0.0000 </r>
       <r>    9.2319   -0.0000 </r>
       <r>   11.4409    0.0000 </r>
       <r>   11.8337    0.0000 </r>
       <r>   13.0980    0.0000 </r>
       <r>   13.2254    0.0000 </r>
       <r>   14.1519    0.0000 </r>
       <r>   15.8300    0.0000 </r>
      </set>
      <set comment="kpoint 9">
       <r>   -0.4898    1.0000 </r>
       <r>    0.4299    1.0000 </r>
       <r>    2.1030    1.0000 </r>
       <r>    2.1126    1.0000 </r>
       <r>    2.2834    1.0000 </r>
       <r>    2.3509    1.0000 </r>
       <r>    2.3897    1.0000 </r>
       <r>    2.4532    1.0000 </r>
       <r>    2.6249    1.0000 </r>
       <r>    2.6804    1.0000 </r>
       <r>    3.0618    1.0000 </r>
       <r>    3.0623    1.0000 </r>
       <r>    3.2704    1.0000 </r>
       <r>    3.3566    1.0000 </r>
       <r>    3.4614    1.0000 </r>
       <r>    3.4705    1.0000 </r>
       <r>    3.4819    1.0000 </r>
       <r>    3.5449    1.0000 </r>
       <r>    3.6770    1.0000 </r>
       <r>    3.7913    1.0000 </r>
       <r>    3.9536    1.0000 </r>
       <r>    3.9542    1.0000 </r>
       <r>    8.9626   -0.0000 </r>
       <r>   10.1199   -0.0000 </r>
       <r>   10.4101   -0.0000 </r>
       <r>   11.7499    0.0000 </r>
       <r>   12.3566    0.0000 </r>
       <r>   13.0794    0.0000 </r>
       <r>   13.8595    0.0000 </r>
       <r>   14.7392    0.0000 </r>
      </set>
      <set comment="kpoint 10">
       <r>   -1.5611    1.0000 </r>
       <r>    1.6815    1.0000 </r>
       <r>    1.6815    1.0000 </r>
       <r>    1.8815    1.0000 </r>
       <r>    2.0816    1.0000 </r>
       <r>    2.0816    1.0000 </r>
       <r>    2.0818    1.0000 </r>
       <r>    2.7052    1.0000 </r>
       <r>    3.0007    1.0000 </r>
       <r>    3.0221    1.0000 </r>
       <r>    3.1661    1.0000 </r>
       <r>    3.1661    1.0000 </r>
       <r>    3.2173    1.0000 </r>
       <r>    3.3580    1.0000 </r>
       <r>    3.5622    1.0000 </r>
       <r>    3.6380    1.0000 </r>
       <r>    3.7376    1.0000 </r>
       <r>    3.7376    1.0000 </r>
       <r>    3.8321    1.0000 </r>
       <r>    3.8321    1.0000 </r>
       <r>    3.8868    1.0000 </r>
       <r>    5.6583   -0.0113 </r>
       <r>    5.6583   -0.0113 </r>
       <r>    8.8746   -0.0000 </r>
       <r>   11.1954    0.0000 </r>
       <r>   11.6994    0.0000 </r>
       <r>   14.9863    0.0000 </r>
       <r>   14.9863    0.0000 </r>
       <r>   15.2580    0.0000 </r>
       <r>   15.2580    0.0000 </r>
      </set>
      <set comment="kpoint 11">
       <r>   -0.9541    1.0000 </r>
       <r>    1.4065    1.0000 </r>
       <r>    1.9337    1.0000 </r>
       <r>    2.0441    1.0000 </r>
       <r>    2.1932    1.0000 </r>
       <r>    2.1938    1.0000 </r>
       <r>    2.2215    1.0000 </r>
       <r>    2.6098    1.0000 </r>
       <r>    2.7990    1.0000 </r>
       <r>    2.9414    1.0000 </r>
       <r>    2.9473    1.0000 </r>
       <r>    3.0084    1.0000 </r>
       <r>    3.1238    1.0000 </r>
       <r>    3.3151    1.0000 </r>
       <r>    3.5250    1.0000 </r>
       <r>    3.6003    1.0000 </r>
       <r>    3.6557    1.0000 </r>
       <r>    3.6568    1.0000 </r>
       <r>    3.6680    1.0000 </r>
       <r>    3.8304    1.0000 </r>
       <r>    3.8484    1.0000 </r>
       <r>    4.6084    1.0000 </r>
       <r>    6.4117   -0.0000 </r>
       <r>    9.6691   -0.0000 </r>
       <r>    9.7868   -0.0000 </r>
       <r>   12.0715    0.0000 </r>
       <r>   13.6867    0.0000 </r>
       <r>   14.4670    0.0000 </r>
       <r>   15.5614    0.0000 </r>
       <r>   15.9920    0.0000 </r>
      </set>
      <set comment="kpoint 12">
       <r>   -0.1585    1.0000 </r>
       <r>    0.7155    1.0000 </r>
       <r>    2.1636    1.0000 </r>
       <r>    2.2285    1.0000 </r>
       <r>    2.2734    1.0000 </r>
       <r>    2.3316    1.0000 </r>
       <r>    2.4182    1.0000 </r>
       <r>    2.4773    1.0000 </r>
       <r>    2.4928    1.0000 </r>
       <r>    2.6663    1.0000 </r>
       <r>    2.8804    1.0000 </r>
       <r>    2.9508    1.0000 </r>
       <r>    3.2769    1.0000 </r>
       <r>    3.3633    1.0000 </r>
       <r>    3.4406    1.0000 </r>
       <r>    3.4621    1.0000 </r>
       <r>    3.4720    1.0000 </r>
       <r>    3.5072    1.0000 </r>
       <r>    3.8235    1.0000 </r>
       <r>    3.8299    1.0000 </r>
       <r>    3.8337    1.0000 </r>
       <r>    4.0732    1.0000 </r>
       <r>    7.3052   -0.0000 </r>
       <r>    8.3781   -0.0000 </r>
       <r>   10.9183    0.0000 </r>
       <r>   12.2276    0.0000 </r>
       <r>   12.6409    0.0000 </r>
       <r>   13.4378    0.0000 </r>
       <r>   16.2798    0.0000 </r>
       <r>   16.9619    0.0000 </r>
      </set>
      <set comment="kpoint 13">
       <r>   -0.3794    1.0000 </r>
       <r>    1.7246    1.0000 </r>
       <r>    1.7246    1.0000 </r>
       <r>    2.1185    1.0000 </r>
       <r>    2.2918    1.0000 </r>
       <r>    2.3057    1.0000 </r>
       <r>    2.3057    1.0000 </r>
       <r>    2.5752    1.0000 </r>
       <r>    2.6827    1.0000 </r>
       <r>    2.6827    1.0000 </r>
       <r>    2.8085    1.0000 </r>
       <r>    2.9648    1.0000 </r>
       <r>    3.1863    1.0000 </r>
       <r>    3.2701    1.0000 </r>
       <r>    3.4382    1.0000 </r>
       <r>    3.5293    1.0000 </r>
       <r>    3.5293    1.0000 </r>
       <r>    3.6574    1.0000 </r>
       <r>    3.6574    1.0000 </r>
       <r>    3.7513    1.0000 </r>
       <r>    3.8345    1.0000 </r>
       <r>    5.2044    0.7975 </r>
       <r>    5.2044    0.7975 </r>
       <r>    8.1484   -0.0000 </r>
       <r>   10.6328   -0.0000 </r>
       <r>   12.4946    0.0000 </r>
       <r>   14.4203    0.0000 </r>
       <r>   14.4203    0.0000 </r>
       <r>   15.1103    0.0000 </r>
       <r>   15.1103    0.0000 </r>
      </set>
      <set comment="kpoint 14">
       <r>    0.3575    1.0000 </r>
       <r>    1.1353    1.0000 </r>
       <r>    2.0178    1.0000 </r>
       <r>    2.1417    1.0000 </r>
       <r>    2.3961    1.0000 </r>
       <r>    2.4051    1.0000 </r>
       <r>    2.4567    1.0000 </r>
       <r>    2.5013    1.0000 </r>
       <r>    2.5021    1.0000 </r>
       <r>    2.6332    1.0000 </r>
       <r>    2.7468    1.0000 </r>
       <r>    2.8765    1.0000 </r>
       <r>    3.2856    1.0000 </r>
       <r>    3.3066    1.0000 </r>
       <r>    3.3707    1.0000 </r>
       <r>    3.3989    1.0000 </r>
       <r>    3.4075    1.0000 </r>
       <r>    3.4721    1.0000 </r>
       <r>    3.6660    1.0000 </r>
       <r>    3.6926    1.0000 </r>
       <r>    4.0764    1.0000 </r>
       <r>    4.4688    1.0000 </r>
       <r>    5.9474   -0.0000 </r>
       <r>    6.9110   -0.0000 </r>
       <r>   11.7110    0.0000 </r>
       <r>   12.9826    0.0000 </r>
       <r>   13.1277    0.0000 </r>
       <r>   13.9965    0.0000 </r>
       <r>   15.3914    0.0000 </r>
       <r>   15.9744    0.0000 </r>
      </set>
      <set comment="kpoint 15">
       <r>    0.9834    1.0000 </r>
       <r>    1.5845    1.0000 </r>
       <r>    1.5845    1.0000 </r>
       <r>    1.9320    1.0000 </r>
       <r>    2.4920    1.0000 </r>
       <r>    2.4920    1.0000 </r>
       <r>    2.5098    1.0000 </r>
       <r>    2.5535    1.0000 </r>
       <r>    2.5737    1.0000 </r>
       <r>    2.6575    1.0000 </r>
       <r>    2.6575    1.0000 </r>
       <r>    2.7984    1.0000 </r>
       <r>    3.2358    1.0000 </r>
       <r>    3.2913    1.0000 </r>
       <r>    3.2981    1.0000 </r>
       <r>    3.2981    1.0000 </r>
       <r>    3.3801    1.0000 </r>
       <r>    3.5049    1.0000 </r>
       <r>    3.5049    1.0000 </r>
       <r>    3.5764    1.0000 </r>
       <r>    4.4341    1.0000 </r>
       <r>    5.0044    1.0325 </r>
       <r>    5.0044    1.0325 </r>
       <r>    5.7875   -0.0010 </r>
       <r>   12.7418    0.0000 </r>
       <r>   13.8365    0.0000 </r>
       <r>   13.9765    0.0000 </r>
       <r>   13.9765    0.0000 </r>
       <r>   14.7839    0.0000 </r>
       <r>   14.7839    0.0000 </r>
      </set>
      <set comment="kpoint 16">
       <r>   -2.1920    1.0000 </r>
       <r>    1.6180    1.0000 </r>
       <r>    1.6180    1.0000 </r>
       <r>    1.6180    1.0000 </r>
       <r>    1.9447    1.0000 </r>
       <r>    1.9447    1.0000 </r>
       <r>    1.9447    1.0000 </r>
       <r>    2.8114    1.0000 </r>
       <r>    2.9309    1.0000 </r>
       <r>    2.9309    1.0000 </r>
       <r>    3.4631    1.0000 </r>
       <r>    3.4631    1.0000 </r>
       <r>    3.6518    1.0000 </r>
       <r>    3.6518    1.0000 </r>
       <r>    3.6518    1.0000 </r>
       <r>    3.7738    1.0000 </r>
       <r>    3.7738    1.0000 </r>
       <r>    3.7738    1.0000 </r>
       <r>    3.9614    1.0000 </r>
       <r>    3.9614    1.0000 </r>
       <r>    3.9614    1.0000 </r>
       <r>    6.6669   -0.0000 </r>
       <r>    6.6669   -0.0000 </r>
       <r>    6.6669   -0.0000 </r>
       <r>   12.4841    0.0000 </r>
       <r>   12.4841    0.0000 </r>
       <r>   12.4841    0.0000 </r>
       <r>   14.7579    0.0000 </r>
       <r>   14.7579    0.0000 </r>
       <r>   14.7579    0.0000 </r>
      </set>
      <set comment="kpoint 17">
       <r>   -1.8111    1.0000 </r>
       <r>    1.5579    1.0000 </r>
       <r>    1.7649    1.0000 </r>
       <r>    1.7649    1.0000 </r>
       <r>    2.0254    1.0000 </r>
       <r>    2.0328    1.0000 </r>
       <r>    2.0328    1.0000 </r>
       <r>    2.7419    1.0000 </r>
       <r>    2.9836    1.0000 </r>
       <r>    2.9870    1.0000 </r>
       <r>    3.3258    1.0000 </r>
       <r>    3.3258    1.0000 </r>
       <r>    3.3992    1.0000 </r>
       <r>    3.4488    1.0000 </r>
       <r>    3.5143    1.0000 </r>
       <r>    3.6659    1.0000 </r>
       <r>    3.6891    1.0000 </r>
       <r>    3.6891    1.0000 </r>
       <r>    3.9250    1.0000 </r>
       <r>    3.9448    1.0000 </r>
       <r>    3.9448    1.0000 </r>
       <r>    5.2738    0.5283 </r>
       <r>    7.2788   -0.0000 </r>
       <r>    7.2788   -0.0000 </r>
       <r>   12.7318    0.0000 </r>
       <r>   12.7318    0.0000 </r>
       <r>   13.1176    0.0000 </r>
       <r>   13.1176    0.0000 </r>
       <r>   14.7863    0.0000 </r>
       <r>   15.2316    0.0000 </r>
      </set>
      <set comment="kpoint 18">
       <r>   -1.1937    1.0000 </r>
       <r>    1.2513    1.0000 </r>
       <r>    1.9641    1.0000 </r>
       <r>    1.9641    1.0000 </r>
       <r>    2.1500    1.0000 </r>
       <r>    2.1736    1.0000 </r>
       <r>    2.1736    1.0000 </r>
       <r>    2.6196    1.0000 </r>
       <r>    2.9634    1.0000 </r>
       <r>    2.9634    1.0000 </r>
       <r>    3.0464    1.0000 </r>
       <r>    3.0801    1.0000 </r>
       <r>    3.1552    1.0000 </r>
       <r>    3.3558    1.0000 </r>
       <r>    3.5185    1.0000 </r>
       <r>    3.5686    1.0000 </r>
       <r>    3.5686    1.0000 </r>
       <r>    3.5910    1.0000 </r>
       <r>    3.8608    1.0000 </r>
       <r>    3.9300    1.0000 </r>
       <r>    3.9300    1.0000 </r>
       <r>    4.2671    1.0000 </r>
       <r>    8.1096   -0.0000 </r>
       <r>    8.1096   -0.0000 </r>
       <r>   11.5886    0.0000 </r>
       <r>   11.5886    0.0000 </r>
       <r>   13.2261    0.0000 </r>
       <r>   13.2261    0.0000 </r>
       <r>   15.9376    0.0000 </r>
       <r>   15.9683    0.0000 </r>
      </set>
      <set comment="kpoint 19">
       <r>   -0.3798    1.0000 </r>
       <r>    0.5239    1.0000 </r>
       <r>    2.1436    1.0000 </r>
       <r>    2.1436    1.0000 </r>
       <r>    2.3033    1.0000 </r>
       <r>    2.3315    1.0000 </r>
       <r>    2.3315    1.0000 </r>
       <r>    2.4664    1.0000 </r>
       <r>    2.6598    1.0000 </r>
       <r>    2.6598    1.0000 </r>
       <r>    2.9982    1.0000 </r>
       <r>    3.0212    1.0000 </r>
       <r>    3.2068    1.0000 </r>
       <r>    3.3582    1.0000 </r>
       <r>    3.4606    1.0000 </r>
       <r>    3.4606    1.0000 </r>
       <r>    3.4665    1.0000 </r>
       <r>    3.6823    1.0000 </r>
       <r>    3.7455    1.0000 </r>
       <r>    3.7763    1.0000 </r>
       <r>    3.9235    1.0000 </r>
       <r>    3.9235    1.0000 </r>
       <r>    9.0869   -0.0000 </r>
       <r>    9.0869   -0.0000 </r>
       <r>   10.2867   -0.0000 </r>
       <r>   10.2867   -0.0000 </r>
       <r>   13.8997    0.0000 </r>
       <r>   13.8997    0.0000 </r>
       <r>   14.8764    0.0000 </r>
       <r>   14.8764    0.0000 </r>
      </set>
      <set comment="kpoint 20">
       <r>   -1.4397    1.0000 </r>
       <r>    1.7219    1.0000 </r>
       <r>    1.7219    1.0000 </r>
       <r>    1.8785    1.0000 </r>
       <r>    2.1085    1.0000 </r>
       <r>    2.1085    1.0000 </r>
       <r>    2.1089    1.0000 </r>
       <r>    2.7097    1.0000 </r>
       <r>    2.9981    1.0000 </r>
       <r>    3.0097    1.0000 </r>
       <r>    3.1295    1.0000 </r>
       <r>    3.1295    1.0000 </r>
       <r>    3.1586    1.0000 </r>
       <r>    3.4017    1.0000 </r>
       <r>    3.5437    1.0000 </r>
       <r>    3.5754    1.0000 </r>
       <r>    3.5935    1.0000 </r>
       <r>    3.5935    1.0000 </r>
       <r>    3.9109    1.0000 </r>
       <r>    3.9109    1.0000 </r>
       <r>    3.9109    1.0000 </r>
       <r>    5.8177   -0.0005 </r>
       <r>    5.8177   -0.0005 </r>
       <r>    7.8006   -0.0000 </r>
       <r>   11.3464    0.0000 </r>
       <r>   13.0439    0.0000 </r>
       <r>   13.5256    0.0000 </r>
       <r>   13.5256    0.0000 </r>
       <r>   15.1229    0.0000 </r>
       <r>   15.1229    0.0000 </r>
      </set>
      <set comment="kpoint 21">
       <r>   -0.8410    1.0000 </r>
       <r>    1.4520    1.0000 </r>
       <r>    1.9390    1.0000 </r>
       <r>    2.0270    1.0000 </r>
       <r>    2.2218    1.0000 </r>
       <r>    2.2257    1.0000 </r>
       <r>    2.2414    1.0000 </r>
       <r>    2.6260    1.0000 </r>
       <r>    2.8166    1.0000 </r>
       <r>    2.9179    1.0000 </r>
       <r>    2.9214    1.0000 </r>
       <r>    3.0033    1.0000 </r>
       <r>    3.0721    1.0000 </r>
       <r>    3.3950    1.0000 </r>
       <r>    3.4487    1.0000 </r>
       <r>    3.4718    1.0000 </r>
       <r>    3.5078    1.0000 </r>
       <r>    3.6505    1.0000 </r>
       <r>    3.8415    1.0000 </r>
       <r>    3.8710    1.0000 </r>
       <r>    3.8715    1.0000 </r>
       <r>    4.6980    1.0002 </r>
       <r>    6.5339   -0.0000 </r>
       <r>    8.5250   -0.0000 </r>
       <r>    9.8644   -0.0000 </r>
       <r>   12.0206    0.0000 </r>
       <r>   13.5362    0.0000 </r>
       <r>   14.2353    0.0000 </r>
       <r>   15.6279    0.0000 </r>
       <r>   16.3850    0.0000 </r>
      </set>
      <set comment="kpoint 22">
       <r>   -0.0605    1.0000 </r>
       <r>    0.7880    1.0000 </r>
       <r>    2.1414    1.0000 </r>
       <r>    2.1816    1.0000 </r>
       <r>    2.2842    1.0000 </r>
       <r>    2.3342    1.0000 </r>
       <r>    2.3645    1.0000 </r>
       <r>    2.5040    1.0000 </r>
       <r>    2.6320    1.0000 </r>
       <r>    2.7104    1.0000 </r>
       <r>    2.8706    1.0000 </r>
       <r>    2.9430    1.0000 </r>
       <r>    3.1668    1.0000 </r>
       <r>    3.2965    1.0000 </r>
       <r>    3.3950    1.0000 </r>
       <r>    3.4136    1.0000 </r>
       <r>    3.5118    1.0000 </r>
       <r>    3.7081    1.0000 </r>
       <r>    3.8007    1.0000 </r>
       <r>    3.8473    1.0000 </r>
       <r>    3.8474    1.0000 </r>
       <r>    4.0711    1.0000 </r>
       <r>    7.4031   -0.0000 </r>
       <r>    8.4201   -0.0000 </r>
       <r>    9.6332   -0.0000 </r>
       <r>   10.7127   -0.0000 </r>
       <r>   14.2577    0.0000 </r>
       <r>   15.1786    0.0000 </r>
       <r>   15.2040    0.0000 </r>
       <r>   16.3368    0.0000 </r>
      </set>
      <set comment="kpoint 23">
       <r>   -0.2803    1.0000 </r>
       <r>    1.7108    1.0000 </r>
       <r>    1.7108    1.0000 </r>
       <r>    2.0548    1.0000 </r>
       <r>    2.3332    1.0000 </r>
       <r>    2.3562    1.0000 </r>
       <r>    2.3562    1.0000 </r>
       <r>    2.6101    1.0000 </r>
       <r>    2.7160    1.0000 </r>
       <r>    2.7160    1.0000 </r>
       <r>    2.8351    1.0000 </r>
       <r>    2.9644    1.0000 </r>
       <r>    3.0862    1.0000 </r>
       <r>    3.3657    1.0000 </r>
       <r>    3.3864    1.0000 </r>
       <r>    3.3864    1.0000 </r>
       <r>    3.3924    1.0000 </r>
       <r>    3.7808    1.0000 </r>
       <r>    3.7808    1.0000 </r>
       <r>    3.8020    1.0000 </r>
       <r>    3.8112    1.0000 </r>
       <r>    5.2698    0.5451 </r>
       <r>    5.2698    0.5451 </r>
       <r>    8.1516   -0.0000 </r>
       <r>    9.4236   -0.0000 </r>
       <r>   12.7118    0.0000 </r>
       <r>   12.7118    0.0000 </r>
       <r>   14.0684    0.0000 </r>
       <r>   16.1361    0.0000 </r>
       <r>   17.0280    0.0000 </r>
      </set>
      <set comment="kpoint 24">
       <r>    0.4298    1.0000 </r>
       <r>    1.1625    1.0000 </r>
       <r>    1.9260    1.0000 </r>
       <r>    2.0339    1.0000 </r>
       <r>    2.4352    1.0000 </r>
       <r>    2.4711    1.0000 </r>
       <r>    2.4771    1.0000 </r>
       <r>    2.5571    1.0000 </r>
       <r>    2.6315    1.0000 </r>
       <r>    2.7348    1.0000 </r>
       <r>    2.7616    1.0000 </r>
       <r>    2.8809    1.0000 </r>
       <r>    3.1377    1.0000 </r>
       <r>    3.2466    1.0000 </r>
       <r>    3.2966    1.0000 </r>
       <r>    3.3151    1.0000 </r>
       <r>    3.4759    1.0000 </r>
       <r>    3.6385    1.0000 </r>
       <r>    3.7411    1.0000 </r>
       <r>    3.7497    1.0000 </r>
       <r>    4.0513    1.0000 </r>
       <r>    4.4686    1.0000 </r>
       <r>    6.0047   -0.0000 </r>
       <r>    6.9632   -0.0000 </r>
       <r>   10.2867   -0.0000 </r>
       <r>   11.3943    0.0000 </r>
       <r>   13.6373    0.0000 </r>
       <r>   14.7811    0.0000 </r>
       <r>   14.8343    0.0000 </r>
       <r>   15.8319    0.0000 </r>
      </set>
      <set comment="kpoint 25">
       <r>    1.0077    1.0000 </r>
       <r>    1.5409    1.0000 </r>
       <r>    1.5409    1.0000 </r>
       <r>    1.8309    1.0000 </r>
       <r>    2.5851    1.0000 </r>
       <r>    2.6036    1.0000 </r>
       <r>    2.6093    1.0000 </r>
       <r>    2.6093    1.0000 </r>
       <r>    2.6834    1.0000 </r>
       <r>    2.6834    1.0000 </r>
       <r>    2.7119    1.0000 </r>
       <r>    2.8118    1.0000 </r>
       <r>    3.1278    1.0000 </r>
       <r>    3.1973    1.0000 </r>
       <r>    3.1973    1.0000 </r>
       <r>    3.2083    1.0000 </r>
       <r>    3.4979    1.0000 </r>
       <r>    3.6088    1.0000 </r>
       <r>    3.6088    1.0000 </r>
       <r>    3.6544    1.0000 </r>
       <r>    4.4131    1.0000 </r>
       <r>    5.0117    1.0336 </r>
       <r>    5.0117    1.0336 </r>
       <r>    5.8163   -0.0005 </r>
       <r>   11.1887    0.0000 </r>
       <r>   12.3063    0.0000 </r>
       <r>   12.3063    0.0000 </r>
       <r>   13.4365    0.0000 </r>
       <r>   15.6460    0.0000 </r>
       <r>   16.6884    0.0000 </r>
      </set>
      <set comment="kpoint 26">
       <r>   -1.0821    1.0000 </r>
       <r>    1.8198    1.0000 </r>
       <r>    1.8198    1.0000 </r>
       <r>    1.8198    1.0000 </r>
       <r>    2.1954    1.0000 </r>
       <r>    2.1954    1.0000 </r>
       <r>    2.1954    1.0000 </r>
       <r>    2.7080    1.0000 </r>
       <r>    2.9969    1.0000 </r>
       <r>    2.9969    1.0000 </r>
       <r>    3.0084    1.0000 </r>
       <r>    3.0084    1.0000 </r>
       <r>    3.0084    1.0000 </r>
       <r>    3.4443    1.0000 </r>
       <r>    3.4443    1.0000 </r>
       <r>    3.4443    1.0000 </r>
       <r>    3.5052    1.0000 </r>
       <r>    3.5052    1.0000 </r>
       <r>    3.9327    1.0000 </r>
       <r>    3.9327    1.0000 </r>
       <r>    3.9327    1.0000 </r>
       <r>    6.2473   -0.0000 </r>
       <r>    6.2473   -0.0000 </r>
       <r>    6.2473   -0.0000 </r>
       <r>   11.7817    0.0000 </r>
       <r>   11.7817    0.0000 </r>
       <r>   11.7817    0.0000 </r>
       <r>   15.4375    0.0000 </r>
       <r>   15.4375    0.0000 </r>
       <r>   15.4375    0.0000 </r>
      </set>
      <set comment="kpoint 27">
       <r>   -0.5112    1.0000 </r>
       <r>    1.5604    1.0000 </r>
       <r>    1.9260    1.0000 </r>
       <r>    1.9260    1.0000 </r>
       <r>    2.3251    1.0000 </r>
       <r>    2.3251    1.0000 </r>
       <r>    2.3301    1.0000 </r>
       <r>    2.6709    1.0000 </r>
       <r>    2.8559    1.0000 </r>
       <r>    2.8559    1.0000 </r>
       <r>    2.8635    1.0000 </r>
       <r>    2.9860    1.0000 </r>
       <r>    3.0136    1.0000 </r>
       <r>    3.2999    1.0000 </r>
       <r>    3.3525    1.0000 </r>
       <r>    3.3525    1.0000 </r>
       <r>    3.5195    1.0000 </r>
       <r>    3.6303    1.0000 </r>
       <r>    3.8991    1.0000 </r>
       <r>    3.8991    1.0000 </r>
       <r>    3.9142    1.0000 </r>
       <r>    4.9886    1.0294 </r>
       <r>    6.8672   -0.0000 </r>
       <r>    6.8672   -0.0000 </r>
       <r>   10.2834   -0.0000 </r>
       <r>   10.2834   -0.0000 </r>
       <r>   12.4769    0.0000 </r>
       <r>   15.9149    0.0000 </r>
       <r>   15.9708    0.0000 </r>
       <r>   15.9708    0.0000 </r>
      </set>
      <set comment="kpoint 28">
       <r>    0.2177    1.0000 </r>
       <r>    0.9806    1.0000 </r>
       <r>    2.0011    1.0000 </r>
       <r>    2.0011    1.0000 </r>
       <r>    2.4010    1.0000 </r>
       <r>    2.4010    1.0000 </r>
       <r>    2.4737    1.0000 </r>
       <r>    2.5906    1.0000 </r>
       <r>    2.7921    1.0000 </r>
       <r>    2.7921    1.0000 </r>
       <r>    2.8422    1.0000 </r>
       <r>    2.9190    1.0000 </r>
       <r>    3.0715    1.0000 </r>
       <r>    3.1699    1.0000 </r>
       <r>    3.2878    1.0000 </r>
       <r>    3.2878    1.0000 </r>
       <r>    3.7097    1.0000 </r>
       <r>    3.7518    1.0000 </r>
       <r>    3.8511    1.0000 </r>
       <r>    3.8618    1.0000 </r>
       <r>    3.8618    1.0000 </r>
       <r>    4.1633    1.0000 </r>
       <r>    7.5674   -0.0000 </r>
       <r>    7.5674   -0.0000 </r>
       <r>    9.1392   -0.0000 </r>
       <r>    9.1392   -0.0000 </r>
       <r>   13.4067    0.0000 </r>
       <r>   14.5550    0.0000 </r>
       <r>   16.7192    0.0000 </r>
       <r>   16.7192    0.0000 </r>
      </set>
      <set comment="kpoint 29">
       <r>    0.0019    1.0000 </r>
       <r>    1.6724    1.0000 </r>
       <r>    1.6724    1.0000 </r>
       <r>    1.8820    1.0000 </r>
       <r>    2.4514    1.0000 </r>
       <r>    2.4883    1.0000 </r>
       <r>    2.4883    1.0000 </r>
       <r>    2.7251    1.0000 </r>
       <r>    2.8123    1.0000 </r>
       <r>    2.8123    1.0000 </r>
       <r>    2.8975    1.0000 </r>
       <r>    2.9592    1.0000 </r>
       <r>    2.9894    1.0000 </r>
       <r>    3.2171    1.0000 </r>
       <r>    3.2171    1.0000 </r>
       <r>    3.2286    1.0000 </r>
       <r>    3.5529    1.0000 </r>
       <r>    3.7499    1.0000 </r>
       <r>    3.8760    1.0000 </r>
       <r>    3.8879    1.0000 </r>
       <r>    3.8879    1.0000 </r>
       <r>    5.4746   -0.0218 </r>
       <r>    5.4746   -0.0218 </r>
       <r>    7.2476   -0.0000 </r>
       <r>    8.9711   -0.0000 </r>
       <r>   10.9573    0.0000 </r>
       <r>   10.9573    0.0000 </r>
       <r>   14.3453    0.0000 </r>
       <r>   16.5253    0.0000 </r>
       <r>   18.6967    0.0000 </r>
      </set>
      <set comment="kpoint 30">
       <r>    0.6238    1.0000 </r>
       <r>    1.2250    1.0000 </r>
       <r>    1.7582    1.0000 </r>
       <r>    1.8247    1.0000 </r>
       <r>    2.5409    1.0000 </r>
       <r>    2.5669    1.0000 </r>
       <r>    2.6615    1.0000 </r>
       <r>    2.7438    1.0000 </r>
       <r>    2.8144    1.0000 </r>
       <r>    2.8692    1.0000 </r>
       <r>    2.8877    1.0000 </r>
       <r>    2.9271    1.0000 </r>
       <r>    3.0165    1.0000 </r>
       <r>    3.0978    1.0000 </r>
       <r>    3.1604    1.0000 </r>
       <r>    3.1659    1.0000 </r>
       <r>    3.6613    1.0000 </r>
       <r>    3.8130    1.0000 </r>
       <r>    3.8356    1.0000 </r>
       <r>    3.8385    1.0000 </r>
       <r>    3.9783    1.0000 </r>
       <r>    4.4940    1.0000 </r>
       <r>    6.1466   -0.0000 </r>
       <r>    6.9455   -0.0000 </r>
       <r>    8.8365   -0.0000 </r>
       <r>    9.7110   -0.0000 </r>
       <r>   11.8648    0.0000 </r>
       <r>   12.9950    0.0000 </r>
       <r>   17.3040    0.0000 </r>
       <r>   18.2878    0.0000 </r>
      </set>
      <set comment="kpoint 31">
       <r>    1.0654    1.0000 </r>
       <r>    1.4519    1.0000 </r>
       <r>    1.4519    1.0000 </r>
       <r>    1.6455    1.0000 </r>
       <r>    2.6651    1.0000 </r>
       <r>    2.7311    1.0000 </r>
       <r>    2.7311    1.0000 </r>
       <r>    2.8374    1.0000 </r>
       <r>    2.9087    1.0000 </r>
       <r>    2.9251    1.0000 </r>
       <r>    2.9251    1.0000 </r>
       <r>    2.9974    1.0000 </r>
       <r>    3.0059    1.0000 </r>
       <r>    3.0619    1.0000 </r>
       <r>    3.0619    1.0000 </r>
       <r>    3.0717    1.0000 </r>
       <r>    3.6559    1.0000 </r>
       <r>    3.7553    1.0000 </r>
       <r>    3.7553    1.0000 </r>
       <r>    3.7752    1.0000 </r>
       <r>    4.3477    1.0000 </r>
       <r>    5.0348    1.0355 </r>
       <r>    5.0348    1.0355 </r>
       <r>    5.8650   -0.0001 </r>
       <r>    9.5353   -0.0000 </r>
       <r>   10.5696   -0.0000 </r>
       <r>   10.5696   -0.0000 </r>
       <r>   11.6659    0.0000 </r>
       <r>   18.1117    0.0000 </r>
       <r>   19.1329    0.0000 </r>
      </set>
      <set comment="kpoint 32">
       <r>    0.4178    1.0000 </r>
       <r>    1.6274    1.0000 </r>
       <r>    1.6274    1.0000 </r>
       <r>    1.6274    1.0000 </r>
       <r>    2.6163    1.0000 </r>
       <r>    2.6163    1.0000 </r>
       <r>    2.6163    1.0000 </r>
       <r>    2.9307    1.0000 </r>
       <r>    2.9383    1.0000 </r>
       <r>    2.9383    1.0000 </r>
       <r>    2.9745    1.0000 </r>
       <r>    2.9745    1.0000 </r>
       <r>    2.9745    1.0000 </r>
       <r>    3.0955    1.0000 </r>
       <r>    3.0955    1.0000 </r>
       <r>    3.0955    1.0000 </r>
       <r>    3.7019    1.0000 </r>
       <r>    3.7019    1.0000 </r>
       <r>    3.9117    1.0000 </r>
       <r>    3.9117    1.0000 </r>
       <r>    3.9117    1.0000 </r>
       <r>    5.8173   -0.0005 </r>
       <r>    5.8173   -0.0005 </r>
       <r>    5.8173   -0.0005 </r>
       <r>    9.5171   -0.0000 </r>
       <r>    9.5171   -0.0000 </r>
       <r>    9.5171   -0.0000 </r>
       <r>   12.7819    0.0000 </r>
       <r>   19.2371    0.0000 </r>
       <r>   19.2371    0.0000 </r>
      </set>
      <set comment="kpoint 33">
       <r>    0.8794    1.0000 </r>
       <r>    1.2949    1.0000 </r>
       <r>    1.5987    1.0000 </r>
       <r>    1.5987    1.0000 </r>
       <r>    2.6744    1.0000 </r>
       <r>    2.6744    1.0000 </r>
       <r>    2.7771    1.0000 </r>
       <r>    2.8847    1.0000 </r>
       <r>    2.9398    1.0000 </r>
       <r>    2.9944    1.0000 </r>
       <r>    3.0328    1.0000 </r>
       <r>    3.0328    1.0000 </r>
       <r>    3.0588    1.0000 </r>
       <r>    3.0955    1.0000 </r>
       <r>    3.1378    1.0000 </r>
       <r>    3.1378    1.0000 </r>
       <r>    3.8202    1.0000 </r>
       <r>    3.8822    1.0000 </r>
       <r>    3.8822    1.0000 </r>
       <r>    3.8932    1.0000 </r>
       <r>    3.9076    1.0000 </r>
       <r>    4.6507    1.0000 </r>
       <r>    6.1878   -0.0000 </r>
       <r>    6.1878   -0.0000 </r>
       <r>    8.5729   -0.0000 </r>
       <r>    8.5729   -0.0000 </r>
       <r>   10.3633   -0.0000 </r>
       <r>   11.4538    0.0000 </r>
       <r>   19.9885    0.0000 </r>
       <r>   19.9885    0.0000 </r>
      </set>
      <set comment="kpoint 34">
       <r>    1.1352    1.0000 </r>
       <r>    1.3713    1.0000 </r>
       <r>    1.3713    1.0000 </r>
       <r>    1.4691    1.0000 </r>
       <r>    2.7575    1.0000 </r>
       <r>    2.7913    1.0000 </r>
       <r>    2.7913    1.0000 </r>
       <r>    2.8660    1.0000 </r>
       <r>    2.9061    1.0000 </r>
       <r>    2.9434    1.0000 </r>
       <r>    2.9434    1.0000 </r>
       <r>    2.9559    1.0000 </r>
       <r>    3.3405    1.0000 </r>
       <r>    3.3405    1.0000 </r>
       <r>    3.3486    1.0000 </r>
       <r>    3.4254    1.0000 </r>
       <r>    3.7877    1.0000 </r>
       <r>    3.8636    1.0000 </r>
       <r>    3.8636    1.0000 </r>
       <r>    3.8644    1.0000 </r>
       <r>    4.2410    1.0000 </r>
       <r>    5.0768    1.0270 </r>
       <r>    5.0768    1.0270 </r>
       <r>    5.7357   -0.0030 </r>
       <r>    8.4616   -0.0000 </r>
       <r>    9.1874   -0.0000 </r>
       <r>    9.1874   -0.0000 </r>
       <r>   10.1770   -0.0000 </r>
       <r>   20.7563    0.0000 </r>
       <r>   21.6995    0.0000 </r>
      </set>
      <set comment="kpoint 35">
       <r>    1.2175    1.0000 </r>
       <r>    1.3259    1.0000 </r>
       <r>    1.3259    1.0000 </r>
       <r>    1.3259    1.0000 </r>
       <r>    2.8304    1.0000 </r>
       <r>    2.8304    1.0000 </r>
       <r>    2.8304    1.0000 </r>
       <r>    2.8668    1.0000 </r>
       <r>    2.8668    1.0000 </r>
       <r>    2.8843    1.0000 </r>
       <r>    2.8843    1.0000 </r>
       <r>    2.8843    1.0000 </r>
       <r>    3.6739    1.0000 </r>
       <r>    3.6739    1.0000 </r>
       <r>    3.6739    1.0000 </r>
       <r>    3.8727    1.0000 </r>
       <r>    3.8727    1.0000 </r>
       <r>    3.8993    1.0000 </r>
       <r>    3.8993    1.0000 </r>
       <r>    3.8993    1.0000 </r>
       <r>    4.3503    1.0000 </r>
       <r>    5.1281    0.9797 </r>
       <r>    5.1281    0.9797 </r>
       <r>    5.1281    0.9797 </r>
       <r>    8.3564   -0.0000 </r>
       <r>    8.3564   -0.0000 </r>
       <r>    8.3564   -0.0000 </r>
       <r>    9.0324   -0.0000 </r>
       <r>   23.3955    0.0000 </r>
       <r>   23.3962    0.0000 </r>
      </set>
     </set>
    </set>
   </array>
  </eigenvalues>
  <separator name="orbital magnetization" >
   <v name="MAGDIPOLOUT">      0.00000000      0.00000000      0.00000000</v>
  </separator>
  <dos>
   <i name="efermi">      5.28051175 </i>
   <total>
    <array>
     <dimension dim="1">gridpoints</dimension>
     <dimension dim="2">spin</dimension>
     <field>energy</field>
     <field>total</field>
     <field>integrated</field>
     <set>
      <set comment="spin 1">
       <r>    -4.5800     0.0000     0.0000 </r>
       <r>    -4.4801     0.0000     0.0000 </r>
       <r>    -4.3802     0.0000     0.0000 </r>
       <r>    -4.2803     0.0000     0.0000 </r>
       <r>    -4.1804    -0.0000    -0.0000 </r>
       <r>    -4.0804    -0.0000    -0.0000 </r>
       <r>    -3.9805    -0.0000    -0.0000 </r>
       <r>    -3.8806    -0.0000    -0.0000 </r>
       <r>    -3.7807    -0.0000    -0.0000 </r>
       <r>    -3.6808    -0.0000    -0.0000 </r>
       <r>    -3.5808    -0.0000    -0.0000 </r>
       <r>    -3.4809    -0.0000    -0.0000 </r>
       <r>    -3.3810    -0.0000    -0.0000 </r>
       <r>    -3.2811    -0.0000    -0.0000 </r>
       <r>    -3.1812    -0.0000    -0.0000 </r>
       <r>    -3.0812    -0.0000    -0.0000 </r>
       <r>    -2.9813    -0.0003    -0.0000 </r>
       <r>    -2.8814    -0.0013    -0.0002 </r>
       <r>    -2.7815    -0.0034    -0.0005 </r>
       <r>    -2.6815    -0.0023    -0.0007 </r>
       <r>    -2.5816     0.0163     0.0009 </r>
       <r>    -2.4817     0.0701     0.0079 </r>
       <r>    -2.3818     0.1489     0.0228 </r>
       <r>    -2.2819     0.1990     0.0427 </r>
       <r>    -2.1819     0.1876     0.0614 </r>
       <r>    -2.0820     0.1853     0.0799 </r>
       <r>    -1.9821     0.2907     0.1090 </r>
       <r>    -1.8822     0.4333     0.1523 </r>
       <r>    -1.7823     0.4182     0.1941 </r>
       <r>    -1.6823     0.2534     0.2194 </r>
       <r>    -1.5824     0.1962     0.2390 </r>
       <r>    -1.4825     0.3549     0.2744 </r>
       <r>    -1.3826     0.5403     0.3284 </r>
       <r>    -1.2827     0.5852     0.3869 </r>
       <r>    -1.1827     0.5003     0.4369 </r>
       <r>    -1.0828     0.3941     0.4763 </r>
       <r>    -0.9829     0.4495     0.5212 </r>
       <r>    -0.8830     0.6491     0.5860 </r>
       <r>    -0.7831     0.6381     0.6498 </r>
       <r>    -0.6831     0.3789     0.6877 </r>
       <r>    -0.5832     0.3519     0.7228 </r>
       <r>    -0.4833     0.6630     0.7891 </r>
       <r>    -0.3834     0.8712     0.8761 </r>
       <r>    -0.2834     0.8025     0.9563 </r>
       <r>    -0.1835     0.7555     1.0318 </r>
       <r>    -0.0836     0.8914     1.1209 </r>
       <r>     0.0163     0.8716     1.2079 </r>
       <r>     0.1162     0.5408     1.2620 </r>
       <r>     0.2162     0.3710     1.2991 </r>
       <r>     0.3161     0.7020     1.3692 </r>
       <r>     0.4160     1.2370     1.4928 </r>
       <r>     0.5159     1.4224     1.6349 </r>
       <r>     0.6158     1.2529     1.7601 </r>
       <r>     0.7158     1.1251     1.8725 </r>
       <r>     0.8157     1.0724     1.9797 </r>
       <r>     0.9156     1.0534     2.0850 </r>
       <r>     1.0155     1.3408     2.2189 </r>
       <r>     1.1154     2.0149     2.4203 </r>
       <r>     1.2154     2.5679     2.6768 </r>
       <r>     1.3153     2.7127     2.9479 </r>
       <r>     1.4152     3.1058     3.2582 </r>
       <r>     1.5151     4.1720     3.6751 </r>
       <r>     1.6150     5.3361     4.2083 </r>
       <r>     1.7150     5.9812     4.8059 </r>
       <r>     1.8149     6.4536     5.4508 </r>
       <r>     1.9148     7.8608     6.2362 </r>
       <r>     2.0147    10.0057     7.2360 </r>
       <r>     2.1147    11.3893     8.3741 </r>
       <r>     2.2146    11.5673     9.5299 </r>
       <r>     2.3145    11.2293    10.6519 </r>
       <r>     2.4144    11.2316    11.7742 </r>
       <r>     2.5143    12.1775    12.9910 </r>
       <r>     2.6143    14.2536    14.4152 </r>
       <r>     2.7142    16.6733    16.0812 </r>
       <r>     2.8141    19.0110    17.9808 </r>
       <r>     2.9140    21.6942    20.1485 </r>
       <r>     3.0139    22.6228    22.4090 </r>
       <r>     3.1139    19.7194    24.3794 </r>
       <r>     3.2138    16.1019    25.9883 </r>
       <r>     3.3137    15.9667    27.5837 </r>
       <r>     3.4136    18.3473    29.4170 </r>
       <r>     3.5135    19.3115    31.3466 </r>
       <r>     3.6135    18.6160    33.2067 </r>
       <r>     3.7134    19.7257    35.1777 </r>
       <r>     3.8133    23.1300    37.4889 </r>
       <r>     3.9132    23.3262    39.8197 </r>
       <r>     4.0131    16.3601    41.4544 </r>
       <r>     4.1131     7.1018    42.1640 </r>
       <r>     4.2130     1.8312    42.3470 </r>
       <r>     4.3129     0.7868    42.4256 </r>
       <r>     4.4128     1.4548    42.5710 </r>
       <r>     4.5128     2.0150    42.7723 </r>
       <r>     4.6127     1.8372    42.9559 </r>
       <r>     4.7126     1.2295    43.0787 </r>
       <r>     4.8125     0.6507    43.1438 </r>
       <r>     4.9124     0.8336    43.2271 </r>
       <r>     5.0124     1.9563    43.4225 </r>
       <r>     5.1123     2.6344    43.6858 </r>
       <r>     5.2122     2.1456    43.9002 </r>
       <r>     5.3121     1.3585    44.0359 </r>
       <r>     5.4120     0.8418    44.1200 </r>
       <r>     5.5120     0.5760    44.1776 </r>
       <r>     5.6119     0.5576    44.2333 </r>
       <r>     5.7118     0.9935    44.3325 </r>
       <r>     5.8117     1.6920    44.5016 </r>
       <r>     5.9116     1.8889    44.6904 </r>
       <r>     6.0116     1.5626    44.8465 </r>
       <r>     6.1115     1.4156    44.9879 </r>
       <r>     6.2114     1.4295    45.1308 </r>
       <r>     6.3113     1.1670    45.2474 </r>
       <r>     6.4112     0.9119    45.3385 </r>
       <r>     6.5112     0.9088    45.4293 </r>
       <r>     6.6111     0.7861    45.5079 </r>
       <r>     6.7110     0.5498    45.5628 </r>
       <r>     6.8109     0.7958    45.6423 </r>
       <r>     6.9109     1.5405    45.7962 </r>
       <r>     7.0108     1.7712    45.9732 </r>
       <r>     7.1107     1.2283    46.0960 </r>
       <r>     7.2106     0.9977    46.1956 </r>
       <r>     7.3105     1.3517    46.3307 </r>
       <r>     7.4105     1.4508    46.4757 </r>
       <r>     7.5104     1.1433    46.5899 </r>
       <r>     7.6103     0.8098    46.6708 </r>
       <r>     7.7102     0.5051    46.7213 </r>
       <r>     7.8101     0.3309    46.7544 </r>
       <r>     7.9101     0.3990    46.7942 </r>
       <r>     8.0100     0.6839    46.8626 </r>
       <r>     8.1099     1.0387    46.9664 </r>
       <r>     8.2098     1.1662    47.0829 </r>
       <r>     8.3097     1.2180    47.2046 </r>
       <r>     8.4097     1.5874    47.3632 </r>
       <r>     8.5096     1.8799    47.5510 </r>
       <r>     8.6095     1.4819    47.6991 </r>
       <r>     8.7094     0.7569    47.7747 </r>
       <r>     8.8093     0.5627    47.8310 </r>
       <r>     8.9093     0.9523    47.9261 </r>
       <r>     9.0092     1.4808    48.0741 </r>
       <r>     9.1091     1.9167    48.2656 </r>
       <r>     9.2090     1.8475    48.4502 </r>
       <r>     9.3090     1.1436    48.5645 </r>
       <r>     9.4089     0.5956    48.6240 </r>
       <r>     9.5088     0.7832    48.7023 </r>
       <r>     9.6087     1.3606    48.8382 </r>
       <r>     9.7086     1.7227    49.0103 </r>
       <r>     9.8086     1.5473    49.1650 </r>
       <r>     9.9085     0.9566    49.2605 </r>
       <r>    10.0084     0.4105    49.3015 </r>
       <r>    10.1083     0.5111    49.3526 </r>
       <r>    10.2082     1.4137    49.4939 </r>
       <r>    10.3082     2.2311    49.7168 </r>
       <r>    10.4081     1.9778    49.9144 </r>
       <r>    10.5080     1.1911    50.0334 </r>
       <r>    10.6079     0.8885    50.1222 </r>
       <r>    10.7078     0.8885    50.2110 </r>
       <r>    10.8078     0.7823    50.2892 </r>
       <r>    10.9077     0.7532    50.3644 </r>
       <r>    11.0076     0.7513    50.4395 </r>
       <r>    11.1075     0.6071    50.5002 </r>
       <r>    11.2074     0.6619    50.5663 </r>
       <r>    11.3074     1.1188    50.6781 </r>
       <r>    11.4073     1.6804    50.8460 </r>
       <r>    11.5072     1.8922    51.0351 </r>
       <r>    11.6071     1.7951    51.2144 </r>
       <r>    11.7071     1.8167    51.3960 </r>
       <r>    11.8070     1.8565    51.5815 </r>
       <r>    11.9069     1.5771    51.7391 </r>
       <r>    12.0068     1.1514    51.8541 </r>
       <r>    12.1067     0.8856    51.9426 </r>
       <r>    12.2067     0.9263    52.0351 </r>
       <r>    12.3066     1.2804    52.1631 </r>
       <r>    12.4065     1.5069    52.3137 </r>
       <r>    12.5064     1.3688    52.4504 </r>
       <r>    12.6063     1.3541    52.5857 </r>
       <r>    12.7063     1.6151    52.7471 </r>
       <r>    12.8062     1.5135    52.8983 </r>
       <r>    12.9061     1.3131    53.0296 </r>
       <r>    13.0060     1.9206    53.2215 </r>
       <r>    13.1059     2.6727    53.4885 </r>
       <r>    13.2059     2.3979    53.7281 </r>
       <r>    13.3058     1.5122    53.8792 </r>
       <r>    13.4057     1.2374    54.0029 </r>
       <r>    13.5056     1.6858    54.1713 </r>
       <r>    13.6055     1.8659    54.3578 </r>
       <r>    13.7055     1.4077    54.4984 </r>
       <r>    13.8054     1.0420    54.6025 </r>
       <r>    13.9053     1.2306    54.7255 </r>
       <r>    14.0052     1.4527    54.8707 </r>
       <r>    14.1052     1.3929    55.0098 </r>
       <r>    14.2051     1.4280    55.1525 </r>
       <r>    14.3050     1.5072    55.3031 </r>
       <r>    14.4049     1.2705    55.4301 </r>
       <r>    14.5048     0.9446    55.5245 </r>
       <r>    14.6048     1.0525    55.6296 </r>
       <r>    14.7047     1.9175    55.8212 </r>
       <r>    14.8046     2.8766    56.1087 </r>
       <r>    14.9045     2.6276    56.3712 </r>
       <r>    15.0044     1.6428    56.5354 </r>
       <r>    15.1044     1.5872    56.6939 </r>
       <r>    15.2043     2.2318    56.9169 </r>
       <r>    15.3042     2.1580    57.1326 </r>
       <r>    15.4041     1.4091    57.2734 </r>
       <r>    15.5040     0.9499    57.3683 </r>
       <r>    15.6040     0.9722    57.4654 </r>
       <r>    15.7039     1.0639    57.5717 </r>
       <r>    15.8038     1.3145    57.7031 </r>
       <r>    15.9037     1.9613    57.8991 </r>
       <r>    16.0036     2.2332    58.1222 </r>
       <r>    16.1036     1.5977    58.2818 </r>
       <r>    16.2035     1.0403    58.3858 </r>
       <r>    16.3034     1.3147    58.5172 </r>
       <r>    16.4033     1.6076    58.6778 </r>
       <r>    16.5033     1.2005    58.7977 </r>
       <r>    16.6032     0.7478    58.8725 </r>
       <r>    16.7031     0.7498    58.9474 </r>
       <r>    16.8030     0.7295    59.0203 </r>
       <r>    16.9029     0.5483    59.0751 </r>
       <r>    17.0029     0.4989    59.1249 </r>
       <r>    17.1028     0.4453    59.1694 </r>
       <r>    17.2027     0.3849    59.2079 </r>
       <r>    17.3026     0.4878    59.2566 </r>
       <r>    17.4025     0.4650    59.3031 </r>
       <r>    17.5025     0.1992    59.3230 </r>
       <r>    17.6024     0.0027    59.3233 </r>
       <r>    17.7023    -0.0303    59.3202 </r>
       <r>    17.8022    -0.0234    59.3179 </r>
       <r>    17.9021    -0.0151    59.3164 </r>
       <r>    18.0021     0.0610    59.3225 </r>
       <r>    18.1020     0.2527    59.3477 </r>
       <r>    18.2019     0.4983    59.3975 </r>
       <r>    18.3018     0.6234    59.4598 </r>
       <r>    18.4017     0.4507    59.5048 </r>
       <r>    18.5017     0.1554    59.5204 </r>
       <r>    18.6016     0.0954    59.5299 </r>
       <r>    18.7015     0.2206    59.5519 </r>
       <r>    18.8014     0.2194    59.5739 </r>
       <r>    18.9014     0.0781    59.5817 </r>
       <r>    19.0013     0.0520    59.5869 </r>
       <r>    19.1012     0.2293    59.6098 </r>
       <r>    19.2011     0.3946    59.6492 </r>
       <r>    19.3010     0.3283    59.6820 </r>
       <r>    19.4010     0.1271    59.6947 </r>
       <r>    19.5009     0.0018    59.6949 </r>
       <r>    19.6008    -0.0268    59.6922 </r>
       <r>    19.7007    -0.0334    59.6889 </r>
       <r>    19.8006     0.0156    59.6904 </r>
       <r>    19.9006     0.2405    59.7145 </r>
       <r>    20.0005     0.5085    59.7653 </r>
       <r>    20.1004     0.4617    59.8114 </r>
       <r>    20.2003     0.1700    59.8284 </r>
       <r>    20.3002    -0.0087    59.8275 </r>
       <r>    20.4002    -0.0323    59.8243 </r>
       <r>    20.5001    -0.0206    59.8222 </r>
       <r>    20.6000     0.0318    59.8254 </r>
       <r>    20.6999     0.1692    59.8423 </r>
       <r>    20.7998     0.2688    59.8692 </r>
       <r>    20.8998     0.1886    59.8880 </r>
       <r>    20.9997     0.0459    59.8926 </r>
       <r>    21.0996    -0.0117    59.8914 </r>
       <r>    21.1995    -0.0100    59.8904 </r>
       <r>    21.2995    -0.0067    59.8898 </r>
       <r>    21.3994    -0.0132    59.8884 </r>
       <r>    21.4993     0.0016    59.8886 </r>
       <r>    21.5992     0.1017    59.8988 </r>
       <r>    21.6991     0.2434    59.9231 </r>
       <r>    21.7991     0.2441    59.9475 </r>
       <r>    21.8990     0.1028    59.9577 </r>
       <r>    21.9989     0.0019    59.9579 </r>
       <r>    22.0988    -0.0130    59.9566 </r>
       <r>    22.1987    -0.0046    59.9562 </r>
       <r>    22.2987    -0.0007    59.9561 </r>
       <r>    22.3986    -0.0001    59.9561 </r>
       <r>    22.4985    -0.0000    59.9561 </r>
       <r>    22.5984    -0.0000    59.9561 </r>
       <r>    22.6983    -0.0000    59.9561 </r>
       <r>    22.7983    -0.0000    59.9561 </r>
       <r>    22.8982    -0.0005    59.9561 </r>
       <r>    22.9981    -0.0031    59.9557 </r>
       <r>    23.0980    -0.0087    59.9549 </r>
       <r>    23.1979     0.0018    59.9551 </r>
       <r>    23.2979     0.0701    59.9621 </r>
       <r>    23.3978     0.1637    59.9784 </r>
       <r>    23.4977     0.1612    59.9945 </r>
       <r>    23.5976     0.0663    60.0011 </r>
       <r>    23.6976     0.0006    60.0012 </r>
       <r>    23.7975    -0.0086    60.0003 </r>
       <r>    23.8974    -0.0029    60.0000 </r>
       <r>    23.9973    -0.0005    60.0000 </r>
       <r>    24.0972    -0.0000    60.0000 </r>
       <r>    24.1972    -0.0000    60.0000 </r>
       <r>    24.2971    -0.0000    60.0000 </r>
       <r>    24.3970    -0.0000    60.0000 </r>
       <r>    24.4969    -0.0000    60.0000 </r>
       <r>    24.5968    -0.0000    60.0000 </r>
       <r>    24.6968    -0.0000    60.0000 </r>
       <r>    24.7967     0.0000    60.0000 </r>
       <r>    24.8966     0.0000    60.0000 </r>
       <r>    24.9965     0.0000    60.0000 </r>
       <r>    25.0964     0.0000    60.0000 </r>
       <r>    25.1964     0.0000    60.0000 </r>
       <r>    25.2963     0.0000    60.0000 </r>
       <r>    25.3962     0.0000    60.0000 </r>
      </set>
     </set>
    </array>
   </total>
  </dos>
 </calculation>
 <structure name="finalpos" >
  <crystal>
   <varray name="basis" >
    <v>       3.86276390       0.00000000       0.00000000 </v>
    <v>       0.00000000       3.86276390       0.00000000 </v>
    <v>       0.00000000       0.00000000       3.86276390 </v>
   </varray>
   <i name="volume">     57.63608745 </i>
   <varray name="rec_basis" >
    <v>       0.25888199       0.00000000       0.00000000 </v>
    <v>       0.00000000       0.25888199       0.00000000 </v>
    <v>       0.00000000       0.00000000       0.25888199 </v>
   </varray>
  </crystal>
  <varray name="positions" >
   <v>       0.00000000       0.00000000       0.00000000 </v>
   <v>       0.50000000       0.50000000       0.00000000 </v>
   <v>       0.50000000       0.00000000       0.50000000 </v>
   <v>       0.00000000       0.50000000       0.50000000 </v>
  </varray>
 </structure>
</modeling>
