unknown system                          
   1.00000000000000     
     2.353300    0.000000    0.000000
    -1.176650    2.038018    0.000000
     0.000000    0.000000    4.265230
   Fe
     2
Direct
  0.000000  0.000000  0.000000
  0.333333  0.666667  0.500000
 
   20   20   36
  171.91      162.72      138.04      105.03      71.621      43.814      24.599      14.108      10.113      8.9904    
  8.6310      8.9907      10.113      14.108      24.599      43.814      71.621      105.03      138.04      162.72    
  162.73      162.72      145.82      117.18      84.417      54.485      31.766      17.740      11.282      9.3202    
  8.6320      8.6314      9.3196      11.282      17.740      31.765      54.483      84.422      117.19      145.84    
  138.06      145.81      138.04      117.18      89.160      60.763      37.214      21.185      12.720      9.6472    
  8.6669      8.3310      8.6656      9.6469      12.721      21.184      37.210      60.759      89.164      117.19    
  105.02      117.12      117.12      105.03      84.417      60.762      39.249      23.283      13.930      9.9955    
  8.7206      8.1207      8.1202      8.7200      9.9962      13.931      23.283      39.244      60.755      84.410    
  71.606      84.326      89.042      84.338      71.621      54.484      37.214      23.283      14.403      10.237    
  8.7691      8.0005      7.7409      8.0007      8.7692      10.238      14.406      23.287      37.214      54.476    
  43.813      54.412      60.636      60.640      54.419      43.814      31.766      21.185      13.930      10.237    
  8.7886      7.9498      7.5291      7.5297      7.9501      8.7872      10.237      13.934      21.194      31.773    
  24.609      31.748      37.150      39.161      37.146      31.740      24.599      17.740      12.720      9.9953    
  8.7692      7.9499      7.4624      7.3068      7.4634      7.9489      8.7650      9.9913      12.721      17.747    
  14.108      17.758      21.196      23.277      23.272      21.186      17.751      14.108      11.282      9.6471    
  8.7206      8.0006      7.5290      7.3068      7.3076      7.5304      8.0001      8.7160      9.6389      11.275    
  10.101      11.304      12.768      13.988      14.462      13.985      12.768      11.311      10.113      9.3202    
  8.6668      8.1208      7.7408      7.5296      7.4636      7.5305      7.7440      8.1249      8.6667      9.3125    
  8.9901      9.3470      9.7039      10.079      10.336      10.338      10.084      9.7119      9.3540      8.9905    
  8.6319      8.3311      8.1203      8.0006      7.9502      7.9490      7.9999      8.1248      8.3402      8.6391    
  8.6416      8.6757      8.7389      8.8190      8.8895      8.9196      8.8936      8.8230      8.7379      8.6682    
  8.6310      8.6314      8.6657      8.7200      8.7692      8.7873      8.7649      8.7159      8.6669      8.6392    
  8.9899      8.6757      8.4154      8.2375      8.1430      8.1092      8.1104      8.1435      8.2328      8.4064    
  8.6688      8.9906      9.3197      9.6470      9.9960      10.238      10.237      9.9913      9.6391      9.3126    
  10.101      9.3469      8.7392      8.2375      7.8942      7.7080      7.6513      7.7074      7.8911      8.2333    
  8.7390      9.3546      10.113      11.282      12.721      13.931      14.406      13.935      12.721      11.275    
  14.108      11.304      9.7040      8.8190      8.1428      7.7080      7.5060      7.5053      7.7068      8.1434    
  8.8236      9.7120      11.311      14.108      17.740      21.184      23.283      23.287      21.194      17.747    
  24.610      17.758      12.768      10.079      8.8893      8.1093      7.6515      7.5052      7.6502      8.1101    
  8.8936      10.083      12.767      17.750      24.599      31.765      37.210      39.244      37.214      31.773    
  43.813      31.748      21.196      13.988      10.336      8.9197      8.1105      7.7073      7.7067      8.1101    
  8.9210      10.337      13.984      21.187      31.741      43.814      54.483      60.759      60.755      54.476    
  71.606      54.412      37.150      23.277      14.462      10.338      8.8935      8.1434      7.8911      8.1435    
  8.8936      10.337      14.459      23.273      37.150      54.420      71.621      84.422      89.165      84.410    
  105.02      84.326      60.637      39.161      23.273      13.985      10.084      8.8230      8.2329      8.2333    
  8.8235      10.083      13.984      23.273      39.165      60.644      84.333      105.03      117.19      117.19    
  138.06      117.12      89.042      60.641      37.146      21.186      12.768      9.7121      8.7381      8.4063    
  8.7389      9.7119      12.767      21.187      37.150      60.644      89.038      117.11      138.04      145.84    
  162.73      145.81      117.12      84.338      54.419      31.740      17.751      11.311      9.3540      8.6681    
  8.6687      9.3547      11.311      17.750      31.741      54.420      84.333      117.11      145.79      162.72    
  162.55      153.87      130.54      99.294      67.662      41.371      23.300      13.546      9.8954      8.8335    
  8.4841      8.8338      9.8956      13.546      23.300      41.371      67.662      99.294      130.54      153.87    
  153.88      153.87      137.90      110.79      79.770      51.439      30.011      16.893      10.947      9.1494    
  8.4794      8.4789      9.1488      10.948      16.893      30.010      51.438      79.774      110.80      137.91    
  130.55      137.89      130.54      110.79      84.258      57.369      35.128      20.088      12.248      9.4488    
  8.5093      8.1842      8.5080      9.4485      12.250      20.088      35.124      57.366      84.262      110.80    
  99.290      110.75      110.75      99.294      79.770      57.369      37.042      22.042      13.351      9.7566    
  8.5589      7.9791      7.9786      8.5584      9.7572      13.352      22.041      37.037      57.362      79.763    
  67.648      79.701      84.171      79.712      67.662      51.439      35.128      22.042      13.784      9.9701    
  8.6047      7.8622      7.6128      7.8624      8.6048      9.9708      13.787      22.045      35.128      51.431    
  41.370      51.392      57.286      57.289      51.399      41.371      30.011      20.089      13.351      9.9700    
  8.6233      7.8130      7.4094      7.4099      7.8133      8.6220      9.9695      13.355      20.097      30.017    
  23.310      30.017      35.108      37.006      35.104      30.009      23.300      16.893      12.248      9.7565    
  8.6048      7.8130      7.3455      7.1967      7.3464      7.8122      8.6010      9.7528      12.250      16.900    
  13.545      16.930      20.138      22.086      22.082      20.129      16.924      13.546      10.947      9.4486    
  8.5590      7.8623      7.4092      7.1967      7.1974      7.4106      7.8618      8.5547      9.4411      10.940    
  9.8848      10.985      12.328      13.453      13.890      13.450      12.328      10.992      9.8955      9.1494    
  8.5092      7.9792      7.6127      7.4099      7.3466      7.4106      7.6155      7.9829      8.5091      9.1422    
  8.8332      9.1896      9.5314      9.8759      10.110      10.112      9.8803      9.5388      9.1961      8.8336    
  8.4793      8.1843      7.9787      7.8623      7.8135      7.8123      7.8616      7.9828      8.1928      8.4860    
  8.4939      8.5340      8.6029      8.6871      8.7599      8.7905      8.7637      8.6908      8.6019      8.5270    
  8.4840      8.4788      8.5081      8.5583      8.6048      8.6221      8.6008      8.5546      8.5093      8.4860    
  8.8330      8.5339      8.2881      8.1214      8.0339      8.0031      8.0042      8.0344      8.1171      8.2798    
  8.5276      8.8336      9.1489      9.4485      9.7570      9.9708      9.9696      9.7528      9.4413      9.1423    
  9.8846      9.1895      8.6031      8.1215      7.7928      7.6150      7.5609      7.6145      7.7901      8.1176    
  8.6030      9.1966      9.8956      10.948      12.249      13.352      13.787      13.355      12.249      10.940    
  13.545      10.985      9.5315      8.6872      8.0337      7.6150      7.4207      7.4201      7.6139      8.0343    
  8.6914      9.5388      10.992      13.546      16.893      20.088      22.041      22.045      20.097      16.900    
  23.310      16.931      12.328      9.8758      8.7598      8.0031      7.5610      7.4200      7.5598      8.0038    
  8.7637      9.8797      12.327      16.923      23.300      30.010      35.124      37.037      35.128      30.017    
  41.370      30.017      20.138      13.453      10.111      8.7906      8.0042      7.6144      7.6138      8.0038    
  8.7917      10.111      13.449      20.130      30.010      41.371      51.437      57.366      57.362      51.431    
  67.648      51.392      35.108      22.086      13.890      10.112      8.7636      8.0343      7.7901      8.0344    
  8.7637      10.111      13.888      22.082      35.108      51.400      67.662      79.774      84.262      79.763    
  99.290      79.701      57.286      37.006      22.082      13.450      9.8802      8.6908      8.1172      8.1177    
  8.6913      9.8796      13.449      22.082      37.010      57.292      79.708      99.294      110.80      110.80    
  130.55      110.75      84.171      57.289      35.104      20.129      12.328      9.5389      8.6021      8.2797    
  8.6029      9.5388      12.327      20.130      35.108      57.292      84.167      110.74      130.54      137.91    
  153.88      137.89      110.75      79.712      51.399      30.009      16.924      10.992      9.1961      8.5269    
  8.5275      9.1967      10.992      16.923      30.010      51.400      79.708      110.74      137.87      153.87    
  137.48      130.14      110.39      83.870      57.023      34.851      19.888      12.104      9.3324      8.4050    
  8.0854      8.4053      9.3327      12.104      19.887      34.851      57.023      83.871      110.39      130.14    
  130.14      130.14      116.62      93.618      67.266      43.279      25.362      14.696      10.092      8.6778    
  8.0625      8.0620      8.6772      10.093      14.697      25.361      43.278      67.270      93.628      116.63    
  110.40      116.62      110.39      93.618      71.067      48.264      29.580      17.222      11.042      8.9208    
  8.0759      7.7823      8.0747      8.9205      11.043      17.222      29.577      48.262      71.070      93.627    
  83.867      93.612      93.613      83.871      67.266      48.264      31.164      18.783      11.864      9.1352    
  8.1118      7.5896      7.5892      8.1112      9.1356      11.865      18.783      31.161      48.259      67.261    
  57.013      67.260      71.064      67.269      57.023      43.279      29.580      18.784      12.190      9.2800    
  8.1481      7.4803      7.2594      7.4806      8.1482      9.2804      12.192      18.786      29.580      43.273    
  34.850      43.303      48.296      48.299      43.308      34.851      25.362      17.222      11.864      9.2800    
  8.1632      7.4342      7.0780      7.0785      7.4347      8.1624      9.2795      11.867      17.229      25.367    
  19.895      25.432      29.679      31.269      29.676      25.426      19.887      14.696      11.042      9.1351    
  8.1481      7.4343      7.0213      6.8912      7.0221      7.4338      8.1453      9.1324      11.043      14.702    
  12.103      14.788      17.378      18.967      18.964      17.371      14.783      12.104      10.093      8.9207    
  8.1118      7.4804      7.0779      6.8911      6.8917      7.0788      7.4800      8.1085      8.9148      10.087    
  9.3240      10.178      11.213      12.090      12.433      12.088      11.213      10.184      9.3326      8.6777    
  8.0759      7.5897      7.2593      7.0785      7.0223      7.0788      7.2613      7.5925      8.0757      8.6721    
  8.4048      8.7592      9.0830      9.3641      9.5465      9.5474      9.3674      9.0886      8.7643      8.4051    
  8.0624      7.7823      7.5892      7.4805      7.4348      7.4338      7.4798      7.5924      7.7890      8.0677    
  8.0931      8.1525      8.2396      8.3379      8.4186      8.4513      8.4214      8.3406      8.2387      8.1470    
  8.0854      8.0620      8.0749      8.1112      8.1481      8.1624      8.1452      8.1084      8.0759      8.0678    
  8.4046      8.1524      7.9516      7.8210      7.7570      7.7369      7.7378      7.7575      7.8177      7.9450    
  8.1474      8.4051      8.6773      8.9205      9.1354      9.2804      9.2796      9.1324      8.9150      8.6722    
  9.3238      8.7591      8.2398      7.8211      7.5398      7.3897      7.3445      7.3895      7.5380      7.8181    
  8.2397      8.7648      9.3326      10.093      11.043      11.865      12.192      11.867      11.043      10.087    
  12.103      10.178      9.0831      8.3379      7.7568      7.3897      7.2208      7.2204      7.3890      7.7573    
  8.3411      9.0887      10.183      12.104      14.697      17.222      18.783      18.786      17.229      14.702    
  19.895      14.788      11.213      9.3640      8.4185      7.7370      7.3447      7.2203      7.3436      7.7373    
  8.4214      9.3670      11.212      14.782      19.887      25.361      29.577      31.161      29.580      25.367    
  34.851      25.432      17.378      12.090      9.5466      8.4513      7.7379      7.3894      7.3889      7.7374    
  8.4521      9.5470      12.087      17.371      25.427      34.851      43.278      48.262      48.259      43.273    
  57.013      43.303      29.679      18.967      12.434      9.5474      8.4213      7.7574      7.5379      7.7574    
  8.4214      9.5470      12.431      18.965      29.679      43.309      57.023      67.270      71.070      67.261    
  83.867      67.260      48.296      31.270      18.964      12.088      9.3672      8.3406      7.8178      7.8182    
  8.3411      9.3669      12.087      18.965      31.273      48.301      67.265      83.871      93.628      93.627    
  110.40      93.612      71.064      48.299      29.676      17.371      11.213      9.0888      8.2389      7.9449    
  8.2396      9.0887      11.212      17.371      29.679      48.301      71.061      93.604      110.39      116.63    
  130.14      116.62      93.613      67.268      43.308      25.426      14.783      10.184      8.7643      8.1468    
  8.1473      8.7649      10.183      14.782      25.427      43.309      67.265      93.604      116.61      130.14    
  104.01      98.431      83.401      63.202      42.847      26.317      15.579      10.371      8.6040      7.8112    
  7.5393      7.8114      8.6042      10.371      15.579      26.317      42.847      63.202      83.401      98.431    
  98.434      98.431      88.132      70.599      50.550      32.498      19.383      11.995      9.0574      8.0120    
  7.4857      7.4853      8.0116      9.0580      11.996      19.383      32.497      50.552      70.605      88.140    
  83.406      88.152      83.401      70.599      53.417      36.188      22.376      13.640      9.5912      8.1955    
  7.4694      7.2238      7.4684      8.1952      9.5920      13.640      22.374      36.186      53.418      70.605    
  63.200      70.644      70.645      63.202      50.550      36.188      23.510      14.679      10.064      8.3318    
  7.4792      7.0442      7.0438      7.4787      8.3319      10.065      14.678      23.508      36.184      50.546    
  42.840      50.626      53.525      50.631      42.847      32.497      22.376      14.679      10.256      8.4087    
  7.4970      6.9410      6.7611      6.9413      7.4971      8.4087      10.256      14.680      22.376      32.494    
  26.317      32.616      36.372      36.374      32.619      26.317      19.383      13.640      10.064      8.4086    
  7.5054      6.8965      6.6072      6.6077      6.8971      7.5050      8.4083      10.066      13.644      19.387    
  15.584      19.540      22.635      23.805      22.634      19.536      15.579      11.995      9.5912      8.3317    
  7.4971      6.8966      6.5593      6.4545      6.5600      6.8964      7.4954      8.3301      9.5920      11.999    
  10.371      12.163      13.943      15.055      15.053      13.939      12.159      10.371      9.0575      8.1954    
  7.4792      6.9410      6.6071      6.4544      6.4547      6.6076      6.9407      7.4772      8.1917      9.0541    
  8.5983      9.2131      9.8953      10.471      10.698      10.469      9.8953      9.2169      8.6041      8.0120    
  7.4693      7.0443      6.7610      6.6076      6.5601      6.6076      6.7620      7.0459      7.4692      8.0082    
  7.8110      8.1584      8.4821      8.7312      8.8713      8.8718      8.7331      8.4856      8.1617      7.8112    
  7.4856      7.2238      7.0439      6.9412      6.8972      6.8965      6.9406      7.0459      7.2282      7.4891    
  7.5443      7.6341      7.7489      7.8681      7.9607      7.9966      7.9623      7.8696      7.7482      7.6305    
  7.5392      7.4853      7.4685      7.4787      7.4971      7.5051      7.4953      7.4771      7.4694      7.4891    
  7.8108      7.6341      7.5042      7.4310      7.4050      7.4029      7.4035      7.4054      7.4288      7.4999    
  7.6308      7.8113      8.0117      8.1952      8.3317      8.4087      8.4083      8.3301      8.1918      8.0083    
  8.5982      8.1583      7.7491      7.4310      7.2257      7.1208      7.0904      7.1210      7.2249      7.4292    
  7.7490      8.1621      8.6041      9.0581      9.5919      10.065      10.256      10.066      9.5920      9.0541    
  10.371      9.2131      8.4822      7.8681      7.4049      7.1208      6.9932      6.9930      7.1205      7.4052    
  7.8701      8.4858      9.2163      10.371      11.996      13.640      14.678      14.680      13.644      11.999    
  15.584      12.163      9.8952      8.7312      7.9606      7.4029      7.0905      6.9929      7.0896      7.4029    
  7.9623      8.7330      9.8944      12.159      15.579      19.383      22.374      23.508      22.376      19.387    
  26.317      19.540      13.943      10.471      8.8714      7.9966      7.4036      7.1210      7.1204      7.4030    
  7.9970      8.8717      10.469      13.939      19.536      26.317      32.497      36.186      36.184      32.494    
  42.840      32.616      22.635      15.055      10.698      8.8718      7.9622      7.4054      7.2248      7.4053    
  7.9624      8.8717      10.697      15.054      22.635      32.619      42.847      50.552      53.419      50.546    
  63.200      50.626      36.372      23.805      15.053      10.469      8.7330      7.8696      7.4289      7.4292    
  7.8701      8.7329      10.469      15.054      23.808      36.376      50.629      63.202      70.605      70.605    
  83.406      70.645      53.525      36.374      22.633      13.939      9.8952      8.4857      7.7483      7.4998    
  7.7489      8.4857      9.8945      13.939      22.635      36.376      53.523      70.639      83.401      88.139    
  98.434      88.152      70.645      50.631      32.619      19.536      12.160      9.2170      8.1617      7.6303    
  7.6308      8.1621      9.2164      12.159      19.536      32.619      50.629      70.639      88.145      98.431    
  70.237      66.424      56.159      42.441      28.839      18.187      11.730      8.9098      7.8199      7.1764    
  6.9636      7.1766      7.8200      8.9097      11.730      18.187      28.839      42.441      56.159      66.424    
  66.425      66.423      59.375      47.417      33.894      22.037      13.870      9.6757      8.1052      7.2871    
  6.8727      6.8724      7.2868      8.1057      9.6766      13.870      22.037      33.895      47.420      59.379    
  56.161      59.413      56.159      47.417      35.790      24.377      15.616      10.491      8.3401      7.3932    
  6.8163      6.6276      6.8155      7.3928      8.3407      10.492      15.616      24.377      35.790      47.420    
  42.440      47.512      47.513      42.441      33.894      24.377      16.290      11.026      8.5298      7.4734    
  6.7886      6.4553      6.4550      6.7882      7.4732      8.5298      11.025      16.288      24.375      33.892    
  28.836      34.050      36.007      34.053      28.839      22.037      15.616      11.026      8.6067      7.5157    
  6.7791      6.3516      6.2168      6.3519      6.7792      7.5155      8.6067      11.026      15.616      22.035    
  18.187      22.246      24.710      24.711      22.248      18.187      13.870      10.491      8.5297      7.5157    
  6.7774      6.3046      6.0869      6.0874      6.3052      6.7773      7.5154      8.5307      10.494      13.872    
  11.733      14.112      16.033      16.771      16.033      14.110      11.730      9.6758      8.3400      7.4733    
  6.7791      6.3046      6.0463      5.9671      6.0468      6.3048      6.7785      7.4727      8.3407      9.6779    
  8.9093      9.9213      10.943      11.595      11.594      10.941      9.9200      8.9097      8.1053      7.3931    
  6.7886      6.3517      6.0869      5.9671      5.9671      6.0869      6.3515      6.7877      7.3913      8.1035    
  7.8168      8.3360      8.7852      9.1260      9.2568      9.1250      8.7852      8.3381      7.8199      7.2871    
  6.8162      6.4553      6.2168      6.0873      6.0469      6.0870      6.2169      6.4560      6.8161      7.2851    
  7.1763      7.5057      7.8174      8.0608      8.1939      8.1939      8.0615      7.8190      7.5073      7.1765    
  6.8726      6.6276      6.4551      6.3519      6.3053      6.3048      6.3513      6.4560      6.6298      6.8744    
  6.9662      7.0880      7.2277      7.3624      7.4622      7.4995      7.4628      7.3630      7.2271      7.0861    
  6.9636      6.8724      6.8156      6.7882      6.7791      6.7773      6.7784      6.7876      6.8163      6.8744    
  7.1762      7.0880      7.0361      7.0224      7.0340      7.0489      7.0493      7.0344      7.0214      7.0339    
  7.0864      7.1765      7.2868      7.3929      7.4731      7.5155      7.5155      7.4727      7.3914      7.2852    
  7.8167      7.5056      7.2278      7.0224      6.8985      6.8406      6.8252      6.8410      6.8985      7.0217    
  7.2277      7.5076      7.8199      8.1057      8.3406      8.5297      8.6068      8.5307      8.3407      8.1035    
  8.9093      8.3361      7.8175      7.3625      7.0339      6.8406      6.7568      6.7568      6.8406      7.0342    
  7.3634      7.8191      8.3377      8.9098      9.6766      10.492      11.025      11.026      10.494      9.6778    
  11.733      9.9214      8.7851      8.0608      7.4621      7.0489      6.8253      6.7567      6.8246      7.0487    
  7.4628      8.0616      8.7846      9.9191      11.730      13.870      15.616      16.288      15.616      13.872    
  18.187      14.112      10.943      9.1259      8.1939      7.4995      7.0494      6.8410      6.8405      7.0487    
  7.4995      8.1942      9.1250      10.941      14.110      18.187      22.037      24.376      24.376      22.035    
  28.836      22.246      16.033      11.595      9.2569      8.1940      7.4628      7.0343      6.8985      7.0342    
  7.4628      8.1941      9.2567      11.594      16.033      22.248      28.839      33.895      35.791      33.892    
  42.440      34.050      24.710      16.771      11.594      9.1250      8.0613      7.3630      7.0215      7.0217    
  7.3634      8.0615      9.1250      11.594      16.772      24.712      34.052      42.441      47.420      47.420    
  56.161      47.512      36.007      24.711      16.032      10.941      8.7851      7.8190      7.2272      7.0339    
  7.2277      7.8191      8.7846      10.941      16.033      24.712      36.006      47.510      56.159      59.379    
  66.425      59.413      47.513      34.053      22.248      14.110      9.9201      8.3382      7.5073      7.0860    
  7.0863      7.5077      8.3377      9.9191      14.110      22.248      34.052      47.510      59.409      66.423    
  42.193      39.888      33.727      25.641      17.912      12.256      9.1817      7.8811      7.0808      6.6036    
  6.4509      6.6037      7.0809      7.8810      9.1816      12.256      17.913      25.641      33.727      39.888    
  39.888      39.888      35.635      28.512      20.675      14.156      10.057      8.1694      7.2450      6.6227    
  6.3238      6.3236      6.6225      7.2453      8.1702      10.057      14.156      20.675      28.513      35.636    
  33.728      35.686      33.727      28.512      21.728      15.350      10.813      8.4368      7.3677      6.6444    
  6.2241      6.0910      6.2236      6.6441      7.3682      8.4374      10.813      15.350      21.728      28.513    
  25.641      28.643      28.643      25.641      20.675      15.350      11.113      8.6151      7.4383      6.6605    
  6.1538      5.9181      5.9180      6.1536      6.6603      7.4381      8.6148      11.113      15.350      20.675    
  17.912      20.889      22.022      20.890      17.912      14.156      10.813      8.6152      7.4605      6.6684    
  6.1125      5.8065      5.7123      5.8068      6.1126      6.6681      7.4600      8.6150      10.813      14.156    
  12.256      14.432      15.790      15.791      14.432      12.256      10.057      8.4369      7.4383      6.6684    
  6.0990      5.7524      5.5971      5.5974      5.7530      6.0991      6.6682      7.4385      8.4378      10.058    
  9.1824      10.363      11.347      11.731      11.347      10.362      9.1817      8.1695      7.3677      6.6604    
  6.1126      5.7524      5.5604      5.5019      5.5607      5.7527      6.1126      6.6604      7.3682      8.1703    
  7.8807      8.4769      9.0049      9.3334      9.3331      9.0045      8.4768      7.8811      7.2450      6.6443    
  6.1539      5.8065      5.5971      5.5018      5.5018      5.5969      5.8064      6.1537      6.6439      7.2445    
  7.0797      7.5392      7.9300      8.1897      8.2801      8.1893      7.9299      7.5400      7.0808      6.6226    
  6.2241      5.9182      5.7123      5.5974      5.5608      5.5970      5.7119      5.9182      6.2240      6.6219    
  6.6035      6.9040      7.1873      7.4091      7.5307      7.5306      7.4089      7.1875      6.9044      6.6036    
  6.3238      6.0910      5.9180      5.8067      5.7530      5.7528      5.8063      5.9181      6.0917      6.3243    
  6.4517      6.5987      6.7518      6.8897      6.9871      7.0224      6.9871      6.8896      6.7515      6.5981    
  6.4508      6.3236      6.2237      6.1535      6.1126      6.0992      6.1125      6.1536      6.2241      6.3244    
  6.6034      6.5987      6.6137      6.6454      6.6820      6.7067      6.7069      6.6823      6.6452      6.6130    
  6.5983      6.6036      6.6225      6.6441      6.6602      6.6681      6.6683      6.6604      6.6439      6.6220    
  7.0796      6.9039      6.7519      6.6455      6.5871      6.5638      6.5589      6.5644      6.5875      6.6454    
  6.7519      6.9046      7.0808      7.2454      7.3681      7.4381      7.4601      7.4385      7.3681      7.2445    
  7.8808      7.5393      7.1874      6.8897      6.6819      6.5638      6.5144      6.5145      6.5641      6.6821    
  6.8899      7.1877      7.5397      7.8811      8.1702      8.4374      8.6149      8.6150      8.4377      8.1703    
  9.1825      8.4769      7.9299      7.4090      6.9870      6.7067      6.5590      6.5144      6.5585      6.7063    
  6.9871      7.4092      7.9295      8.4760      9.1817      10.057      10.813      11.113      10.813      10.058    
  12.257      10.363      9.0048      8.1896      7.5308      7.0224      6.7069      6.5643      6.5640      6.7064    
  7.0222      7.5309      8.1895      9.0040      10.362      12.256      14.156      15.350      15.350      14.156    
  17.912      14.432      11.346      9.3334      8.2802      7.5306      6.9870      6.6823      6.5875      6.6822    
  6.9871      7.5309      8.2805      9.3335      11.347      14.432      17.912      20.675      21.728      20.675    
  25.641      20.889      15.791      11.731      9.3332      8.1893      7.4088      6.8896      6.6453      6.6454    
  6.8899      7.4091      8.1895      9.3335      11.732      15.791      20.889      25.641      28.513      28.512    
  33.728      28.643      22.022      15.791      11.346      9.0044      7.9299      7.1876      6.7515      6.6130    
  6.7518      7.1877      7.9296      9.0040      11.347      15.791      22.022      28.642      33.727      35.636    
  39.888      35.686      28.643      20.889      14.432      10.362      8.4768      7.5401      6.9044      6.5980    
  6.5982      6.9047      7.5398      8.4760      10.362      14.432      20.889      28.642      35.685      39.888    
  22.885      21.719      18.656      14.784      11.326      9.0444      7.8581      7.0575      6.4802      6.1559    
  6.0547      6.1560      6.4803      7.0574      7.8580      9.0444      11.326      14.784      18.656      21.719    
  21.719      21.719      19.580      16.093      12.454      9.6807      8.1015      7.2070      6.5270      6.0945    
  5.8952      5.8951      6.0943      6.5272      7.2075      8.1020      9.6809      12.454      16.093      19.580    
  18.656      19.636      18.656      16.093      12.897      10.102      8.2972      7.3011      6.5579      6.0404    