unknown system                          
   1.00000000000000     
     2.353300    0.000000    0.000000
    -1.176650    2.038018    0.000000
     0.000000    0.000000    4.265230
   Fe
     2
Direct
  0.000000  0.000000  0.000000
  0.333333  0.666667  0.500000
 
   20   20   36
 0.17191030516E+03 0.16271815808E+03 0.13804461447E+03 0.10502611566E+03 0.71620562842E+02
 0.43814364532E+02 0.24599168841E+02 0.14108488840E+02 0.10112611862E+02 0.89904002034E+01
 0.86310482951E+01 0.89906927956E+01 0.10112854736E+02 0.14108420843E+02 0.24598914032E+02
 0.43814245654E+02 0.71620696058E+02 0.10502631301E+03 0.13804467463E+03 0.16271811371E+03
 0.16272523915E+03 0.16271796920E+03 0.14582235695E+03 0.11717656193E+03 0.84417327878E+02
 0.54484721443E+02 0.31766173048E+02 0.17739642423E+02 0.11281753667E+02 0.93201835649E+01
 0.86320215870E+01 0.86314405519E+01 0.93195784446E+01 0.11282383419E+02 0.17740157772E+02
 0.31764611452E+02 0.54483189064E+02 0.84421830576E+02 0.11718994212E+03 0.14583839513E+03
 0.13805525118E+03 0.14580631066E+03 0.13804466342E+03 0.11717674851E+03 0.89160410663E+02
 0.60762649965E+02 0.37214204959E+02 0.21184845573E+02 0.12719706167E+02 0.96472410013E+01
 0.86669249710E+01 0.83310405537E+01 0.86655559693E+01 0.96469444596E+01 0.12720868448E+02
 0.21184297393E+02 0.37210149059E+02 0.60759293210E+02 0.89164411256E+02 0.11718841574E+03
 0.10502167125E+03 0.11711850958E+03 0.11712011636E+03 0.10502647218E+03 0.84417263427E+02
 0.60762492985E+02 0.39248548897E+02 0.23283249760E+02 0.13929867969E+02 0.99954701755E+01
 0.87205862023E+01 0.81207156796E+01 0.81202317703E+01 0.87200424547E+01 0.99961671671E+01
 0.13931178639E+02 0.23282645224E+02 0.39244186586E+02 0.60755283152E+02 0.84410063372E+02
 0.71605927383E+02 0.84326029958E+02 0.89041972989E+02 0.84337750194E+02 0.71620581963E+02
 0.54484410354E+02 0.37214281745E+02 0.23283363117E+02 0.14403364705E+02 0.10237213067E+02
 0.87690551839E+01 0.80004642319E+01 0.77409243180E+01 0.80007287235E+01 0.87692172275E+01
 0.10238027908E+02 0.14406258738E+02 0.23287286986E+02 0.37214341177E+02 0.54476063624E+02
 0.43812869560E+02 0.54411827022E+02 0.60636451047E+02 0.60640422980E+02 0.54418876841E+02
 0.43814199190E+02 0.31766180245E+02 0.21185085312E+02 0.13929780367E+02 0.10237142621E+02
 0.87886303541E+01 0.79498092899E+01 0.75291023927E+01 0.75296678182E+01 0.79500817100E+01
 0.87872381104E+01 0.10236651814E+02 0.13934444309E+02 0.21194325308E+02 0.31773112986E+02
 0.24609490590E+02 0.31748285871E+02 0.37149776489E+02 0.39160542026E+02 0.37145629993E+02
 0.31739887711E+02 0.24599040130E+02 0.17739805697E+02 0.12719672815E+02 0.99953047451E+01
 0.87691585097E+01 0.79498507125E+01 0.74624326317E+01 0.73068411427E+01 0.74634075729E+01
 0.79488900853E+01 0.87650251100E+01 0.99913409353E+01 0.12720868448E+02 0.17747467682E+02
 0.14107810887E+02 0.17758076388E+02 0.21196449669E+02 0.23277139420E+02 0.23272499010E+02
 0.21186422726E+02 0.17750772711E+02 0.14108460272E+02 0.11281853685E+02 0.96470910703E+01
 0.87206477110E+01 0.80005736003E+01 0.75289729065E+01 0.73068074071E+01 0.73076355678E+01
 0.75304339558E+01 0.80001187673E+01 0.87160106480E+01 0.96389025950E+01 0.11274648022E+02
 0.10101138830E+02 0.11303714847E+02 0.12767877177E+02 0.13988466543E+02 0.14461634626E+02
 0.13985217890E+02 0.12767822379E+02 0.11311303398E+02 0.10112738841E+02 0.93201527230E+01
 0.86668481934E+01 0.81208403610E+01 0.77408295313E+01 0.75295828626E+01 0.74635719800E+01
 0.75304784865E+01 0.77439770870E+01 0.81248735331E+01 0.86666953177E+01 0.93124530036E+01
 0.89901467534E+01 0.93470020543E+01 0.97038725540E+01 0.10078888312E+02 0.10336262810E+02
 0.10337686113E+02 0.10083803195E+02 0.97119362993E+01 0.93540225323E+01 0.89905074520E+01
 0.86318876433E+01 0.83310982794E+01 0.81202943187E+01 0.80006375141E+01 0.79502122858E+01
 0.79489792385E+01 0.79999181896E+01 0.81248114002E+01 0.83402384167E+01 0.86391120351E+01
 0.86416248522E+01 0.86757365230E+01 0.87389223115E+01 0.88189595124E+01 0.88894905603E+01
 0.89195762612E+01 0.88936100063E+01 0.88229995112E+01 0.87379389602E+01 0.86682180042E+01
 0.86310105995E+01 0.86313793877E+01 0.86657088450E+01 0.87199999683E+01 0.87691585097E+01
 0.87872920470E+01 0.87648630665E+01 0.87159066529E+01 0.86669249710E+01 0.86391848145E+01
 0.89899035150E+01 0.86756698102E+01 0.84154385933E+01 0.82374580998E+01 0.81430333718E+01
 0.81092496170E+01 0.81103602644E+01 0.81434957999E+01 0.82327849385E+01 0.84064008483E+01
 0.86687524791E+01 0.89905568059E+01 0.93196560347E+01 0.96469778025E+01 0.99959859024E+01
 0.10238022026E+02 0.10236716379E+02 0.99913251010E+01 0.96390858689E+01 0.93125614356E+01
 0.10100949624E+02 0.93469138037E+01 0.87391561442E+01 0.82374989906E+01 0.78941555699E+01
 0.77080437108E+01 0.76513338749E+01 0.77073603278E+01 0.78911200932E+01 0.82332816269E+01
 0.87390246417E+01 0.93545685745E+01 0.10112792508E+02 0.11282463641E+02 0.12720758496E+02
 0.13931156460E+02 0.14406471141E+02 0.13934509732E+02 0.12720791848E+02 0.11274628226E+02
 0.14107900464E+02 0.11303763613E+02 0.97040476560E+01 0.88189990134E+01 0.81428334258E+01
 0.77080428969E+01 0.75060066864E+01 0.75052683194E+01 0.77067719516E+01 0.81434041121E+01
 0.88235501007E+01 0.97119786332E+01 0.11310715022E+02 0.14108481852E+02 0.17740209605E+02
 0.21184297595E+02 0.23282774741E+02 0.23287303147E+02 0.21194085770E+02 0.17747356240E+02
 0.24609745398E+02 0.17758201735E+02 0.12767778391E+02 0.10078819973E+02 0.88893499504E+01
 0.81092781608E+01 0.76514827226E+01 0.75052287383E+01 0.76502481934E+01 0.81100531479E+01
 0.88936100063E+01 0.10083067580E+02 0.12766683031E+02 0.17750352327E+02 0.24599040130E+02
 0.31764614579E+02 0.37210089628E+02 0.39244096706E+02 0.37214204959E+02 0.31773108917E+02
 0.43813000773E+02 0.31748266071E+02 0.21196199786E+02 0.13988366590E+02 0.10336364831E+02
 0.89196535302E+01 0.81104523482E+01 0.77072675138E+01 0.77066799516E+01 0.81101166879E+01
 0.89209778070E+01 0.10336868396E+02 0.13983854131E+02 0.21187176529E+02 0.31741435940E+02
 0.43814211525E+02 0.54483046595E+02 0.60759214981E+02 0.60755361904E+02 0.54476232243E+02
 0.71605826875E+02 0.54411609508E+02 0.37149663316E+02 0.23277196304E+02 0.14461856791E+02
 0.10337728590E+02 0.88935093602E+01 0.81434218019E+01 0.78910818416E+01 0.81435300601E+01
 0.88936499701E+01 0.10336808852E+02 0.14458614564E+02 0.23273108966E+02 0.37149789403E+02
 0.54420252935E+02 0.71620614671E+02 0.84421905190E+02 0.89164570073E+02 0.84410202437E+02
 0.10502150073E+03 0.84325864306E+02 0.60636568480E+02 0.39160770467E+02 0.23272581375E+02
 0.13985115420E+02 0.10083624474E+02 0.88230255660E+01 0.82328840618E+01 0.82333398593E+01
 0.88235366545E+01 0.10082957199E+02 0.13983851614E+02 0.23273134448E+02 0.39164972486E+02
 0.60643661815E+02 0.84333135265E+02 0.10502649902E+03 0.11719001526E+03 0.11718830230E+03
 0.13805519103E+03 0.11711865199E+03 0.89042143498E+02 0.60640572688E+02 0.37145503907E+02
 0.21186216890E+02 0.12767778391E+02 0.97120784169E+01 0.87380704627E+01 0.84063227680E+01
 0.87389223115E+01 0.97119456488E+01 0.12766737829E+02 0.21187220576E+02 0.37149776489E+02
 0.60643694090E+02 0.89037780871E+02 0.11710685546E+03 0.13804466342E+03 0.14583810153E+03
 0.16272527025E+03 0.14580666493E+03 0.11712015896E+03 0.84337591402E+02 0.54418721675E+02
 0.31739790145E+02 0.17750899997E+02 0.11311464155E+02 0.93540259702E+01 0.86680609554E+01
 0.86686621432E+01 0.93546602631E+01 0.11310827013E+02 0.17750354265E+02 0.31741358173E+02
 0.54420315282E+02 0.84333142124E+02 0.11710675565E+03 0.14579054667E+03 0.16271795592E+03
 0.16255282390E+03 0.15386934006E+03 0.13054341354E+03 0.99293988750E+02 0.67661892688E+02
 0.41371251110E+02 0.23299979852E+02 0.13545764452E+02 0.98954139674E+01 0.88334878061E+01
 0.84840793569E+01 0.88337706495E+01 0.98956484503E+01 0.13545697769E+02 0.23299731881E+02
 0.41371134280E+02 0.67662020028E+02 0.99294179073E+02 0.13054347208E+03 0.15386929768E+03
 0.15387588855E+03 0.15386915603E+03 0.13789702610E+03 0.11079177450E+03 0.79769565938E+02
 0.51438918591E+02 0.30010940201E+02 0.16892678658E+02 0.10946923444E+02 0.91493923363E+01
 0.84794144561E+01 0.84788546690E+01 0.91488085850E+01 0.10947551191E+02 0.16893271233E+02
 0.30009604661E+02 0.51437535446E+02 0.79773703806E+02 0.11080412440E+03 0.13791186391E+03
 0.13055325969E+03 0.13788584061E+03 0.13054346077E+03 0.11079195611E+03 0.84257964905E+02
 0.57369211631E+02 0.35128133745E+02 0.20088451797E+02 0.12248439163E+02 0.94487730235E+01
 0.85093129753E+01 0.81842444422E+01 0.85079866066E+01 0.94484641381E+01 0.12249566439E+02
 0.20088043100E+02 0.35124435347E+02 0.57366081153E+02 0.84261611803E+02 0.11080272479E+03
 0.99289906261E+02 0.11074780146E+03 0.11074928054E+03 0.99294335778E+02 0.79769503777E+02
 0.57369058957E+02 0.37041520378E+02 0.22041585029E+02 0.13351178175E+02 0.97566190996E+01
 0.85589219535E+01 0.79790605246E+01 0.79785967077E+01 0.85583789674E+01 0.97572164584E+01
 0.13352344743E+02 0.22040981283E+02 0.37037444344E+02 0.57362363491E+02 0.79762840127E+02
 0.67648401733E+02 0.79701237445E+02 0.84170557349E+02 0.79712058456E+02 0.67661911845E+02
 0.51438616053E+02 0.35128207921E+02 0.22041695233E+02 0.13784113226E+02 0.99700706254E+01
 0.86046642321E+01 0.78621517426E+01 0.76127832748E+01 0.78624312431E+01 0.86048215346E+01
 0.99707594306E+01 0.13786684659E+02 0.22045254094E+02 0.35128266027E+02 0.51430944579E+02
 0.41369904360E+02 0.51392187271E+02 0.57285550306E+02 0.57289231367E+02 0.51398705713E+02
 0.41371090342E+02 0.30010946813E+02 0.20088684949E+02 0.13351093587E+02 0.99700022399E+01
 0.86232623214E+01 0.78129951877E+01 0.74093708241E+01 0.74099364838E+01 0.78133291817E+01
 0.86220151887E+01 0.99695295106E+01 0.13355387635E+02 0.20097263494E+02 0.30017425448E+02
 0.23309519497E+02 0.30016555308E+02 0.35107617162E+02 0.37005513385E+02 0.35103828325E+02
 0.30008832988E+02 0.23299854815E+02 0.16892837632E+02 0.12248407189E+02 0.97564582862E+01
 0.86047639836E+01 0.78130352023E+01 0.73454833423E+01 0.71967351756E+01 0.73464268326E+01
 0.78122030249E+01 0.86009908554E+01 0.97528398833E+01 0.12249566439E+02 0.16899965864E+02
 0.13545088943E+02 0.16930443395E+02 0.20138362826E+02 0.22085940535E+02 0.22081667009E+02
 0.20129139710E+02 0.16923753422E+02 0.13545736944E+02 0.10947020496E+02 0.94486268051E+01
 0.85589810668E+01 0.78622577821E+01 0.74092454634E+01 0.71967026704E+01 0.71974477655E+01
 0.74105575772E+01 0.78618224165E+01 0.85547149821E+01 0.94410824902E+01 0.10940351497E+02
 0.98847577027E+01 0.10985086658E+02 0.12328126833E+02 0.13453069411E+02 0.13890274954E+02
 0.13450042376E+02 0.12328073279E+02 0.10992144359E+02 0.98955368940E+01 0.91493616040E+01
 0.85092382792E+01 0.79791821540E+01 0.76126917591E+01 0.74098542900E+01 0.73465864736E+01
 0.74106007441E+01 0.76155108227E+01 0.79828695196E+01 0.85090897379E+01 0.91422177181E+01
 0.88332463450E+01 0.91895946835E+01 0.95313685440E+01 0.98758749349E+01 0.10110402020E+02
 0.10111679333E+02 0.98803404932E+01 0.95387728579E+01 0.91960835019E+01 0.88335917272E+01
 0.84792847201E+01 0.81843015907E+01 0.79786578494E+01 0.78623423041E+01 0.78134557437E+01
 0.78122895723E+01 0.78616274380E+01 0.79828090319E+01 0.81927592213E+01 0.84859698404E+01
 0.84938669731E+01 0.85340077735E+01 0.86028804630E+01 0.86871256803E+01 0.87598889485E+01
 0.87904776004E+01 0.87636517522E+01 0.86907994590E+01 0.86019276074E+01 0.85270390528E+01
 0.84840431771E+01 0.84787959091E+01 0.85081351478E+01 0.85583367466E+01 0.86047639836E+01
 0.86220678949E+01 0.86008335529E+01 0.85546136480E+01 0.85093129753E+01 0.84860408165E+01
 0.88330099261E+01 0.85339426005E+01 0.82881376351E+01 0.81214209143E+01 0.80339276628E+01
 0.80031044429E+01 0.80041522293E+01 0.80343932647E+01 0.81171162152E+01 0.82797756531E+01
 0.85275524264E+01 0.88336381517E+01 0.91488837239E+01 0.94484958585E+01 0.97570399295E+01
 0.99707542798E+01 0.99695927453E+01 0.97528241678E+01 0.94412604291E+01 0.91423235893E+01
 0.98845739785E+01 0.91895082777E+01 0.86031076434E+01 0.81214610160E+01 0.77928443681E+01
 0.76150162626E+01 0.75608977748E+01 0.76144740982E+01 0.77901322433E+01 0.81175940952E+01
 0.86029799801E+01 0.91966078065E+01 0.98955876527E+01 0.10947629323E+02 0.12249459561E+02
 0.13352323507E+02 0.13786891533E+02 0.13355450987E+02 0.12249491536E+02 0.10940332577E+02
 0.13545176394E+02 0.10985133730E+02 0.95315385424E+01 0.86871647590E+01 0.80337336372E+01
 0.76150152418E+01 0.74207248500E+01 0.74200656270E+01 0.76138860403E+01 0.80342830870E+01
 0.86913520233E+01 0.95388366111E+01 0.10991556301E+02 0.13545757712E+02 0.16893321927E+02
 0.20088043086E+02 0.22041107175E+02 0.22045269783E+02 0.20097030330E+02 0.16899857582E+02
 0.23309767468E+02 0.16930565333E+02 0.12328030563E+02 0.98758088643E+01 0.87597525971E+01
 0.80031317105E+01 0.75610420070E+01 0.74200271629E+01 0.75598454022E+01 0.80037839785E+01
 0.87636517522E+01 0.98797065593E+01 0.12326970148E+02 0.16923254225E+02 0.23299854815E+02
 0.30009607264E+02 0.35124377242E+02 0.37037357195E+02 0.35128133745E+02 0.30017421439E+02
 0.41370031817E+02 0.30016536198E+02 0.20138119744E+02 0.13452972111E+02 0.10110501256E+02
 0.87905523553E+01 0.80042413748E+01 0.76143840061E+01 0.76137969691E+01 0.80038458564E+01
 0.87917323875E+01 0.10110984344E+02 0.13448823082E+02 0.20129750177E+02 0.30010156045E+02
 0.41371100968E+02 0.51437396759E+02 0.57366005439E+02 0.57362440450E+02 0.51431108430E+02
 0.67648303639E+02 0.51391975785E+02 0.35107507155E+02 0.22085995599E+02 0.13890490810E+02
 0.10111720550E+02 0.87635540300E+01 0.80343216950E+01 0.77900953078E+01 0.80344055429E+01
 0.87636903815E+01 0.10110926324E+02 0.13887576652E+02 0.22082275836E+02 0.35107629758E+02
 0.51399935633E+02 0.67661941092E+02 0.79773776589E+02 0.84261766338E+02 0.79762975072E+02
 0.99289740166E+02 0.79701076493E+02 0.57285664716E+02 0.37005735465E+02 0.22081747015E+02
 0.13449942820E+02 0.98801670780E+01 0.86908252856E+01 0.81172124315E+01 0.81176502100E+01
 0.86913387712E+01 0.98795992148E+01 0.13448820826E+02 0.22082300778E+02 0.37009658206E+02
 0.57292250031E+02 0.79707809872E+02 0.99294360006E+02 0.11080419517E+03 0.11080261395E+03
 0.13055320116E+03 0.11074794045E+03 0.84170723580E+02 0.57289376979E+02 0.35103705722E+02
 0.20128939603E+02 0.12328030563E+02 0.95389113316E+01 0.86020552708E+01 0.82796989081E+01
 0.86028804630E+01 0.95388050864E+01 0.12327023701E+02 0.20129793152E+02 0.35107617162E+02
 0.57292281233E+02 0.84166726670E+02 0.11073704688E+03 0.13054346077E+03 0.13791157781E+03
 0.15387591887E+03 0.13788618584E+03 0.11074932248E+03 0.79711903890E+02 0.51398554598E+02
 0.30008738092E+02 0.16923876892E+02 0.10992300600E+02 0.91960870899E+01 0.85268859083E+01
 0.85274644549E+01 0.91966978002E+01 0.10991665470E+02 0.16923255756E+02 0.30010080259E+02
 0.51399996003E+02 0.79707816257E+02 0.11073694983E+03 0.13787127133E+03 0.15386914398E+03
 0.13747647536E+03 0.13013828469E+03 0.11038982979E+03 0.83870408695E+02 0.57023273273E+02
 0.34851411719E+02 0.19887592697E+02 0.12103955424E+02 0.93324449161E+01 0.84050072437E+01
 0.80854031153E+01 0.84052623185E+01 0.93326552210E+01 0.12103892077E+02 0.19887364403E+02
 0.34851302059E+02 0.57023385785E+02 0.83870580223E+02 0.11038988369E+03 0.13013824746E+03
 0.13014342713E+03 0.13013811471E+03 0.11661514199E+03 0.93618094627E+02 0.67266443075E+02
 0.43279172151E+02 0.25362190991E+02 0.14695761690E+02 0.10092467803E+02 0.86777619744E+01
 0.80625478635E+01 0.80620490793E+01 0.86772395814E+01 0.10093079103E+02 0.14696530615E+02
 0.25361426215E+02 0.43278174317E+02 0.67269623947E+02 0.93627731524E+02 0.11662681139E+03
 0.11039758731E+03 0.11661720976E+03 0.11038987218E+03 0.93618261978E+02 0.71067280370E+02
 0.48264450958E+02 0.29579926681E+02 0.17222069559E+02 0.11042441111E+02 0.89207964351E+01
 0.80759273310E+01 0.77822668287E+01 0.80747270782E+01 0.89204628229E+01 0.11043464213E+02
 0.17222006637E+02 0.29577159416E+02 0.48261922754E+02 0.71070004917E+02 0.93626663440E+02
 0.83867276173E+02 0.93612249493E+02 0.93613393445E+02 0.83870728440E+02 0.67266387447E+02
 0.48264310630E+02 0.31164167294E+02 0.18783419792E+02 0.11863805331E+02 0.91352498217E+01
 0.81117755947E+01 0.75895831282E+01 0.75891766759E+01 0.81112451667E+01 0.91355962480E+01
 0.11864602627E+02 0.18782828597E+02 0.31160856530E+02 0.48258979050E+02 0.67261140227E+02
 0.57012793922E+02 0.67260082939E+02 0.71063677285E+02 0.67268534271E+02 0.57023292440E+02
 0.43278894115E+02 0.29579993328E+02 0.18783520921E+02 0.12189791592E+02 0.92800203791E+01
 0.81480586195E+01 0.74802594367E+01 0.72593819062E+01 0.74805709932E+01 0.81482022802E+01
 0.92803917808E+01 0.12191535833E+02 0.18786132647E+02 0.29580047650E+02 0.43272994647E+02
 0.34850447389E+02 0.43303093023E+02 0.48295657446E+02 0.48298568718E+02 0.43308208744E+02
 0.34851264020E+02 0.25362195878E+02 0.17222283731E+02 0.11863729428E+02 0.92799579427E+01
 0.81632334427E+01 0.74342358540E+01 0.70779809420E+01 0.70785365922E+01 0.74347118067E+01
 0.81623588048E+01 0.92795371106E+01 0.11867052007E+02 0.17229109061E+02 0.25367460555E+02
 0.19895068032E+02 0.25431919141E+02 0.29678785990E+02 0.31269401742E+02 0.29675930797E+02
 0.25425971010E+02 0.19887478166E+02 0.14695908287E+02 0.11042413158E+02 0.91351023594E+01
 0.81481481645E+01 0.74342718285E+01 0.70213001010E+01 0.68911557342E+01 0.70221496390E+01
 0.74337643143E+01 0.81453140463E+01 0.91323850198E+01 0.11043464213E+02 0.14701617463E+02
 0.12103297183E+02 0.14787641361E+02 0.17378285227E+02 0.18967326065E+02 0.18964016797E+02
 0.17371172354E+02 0.14782556569E+02 0.12103931015E+02 0.10092556410E+02 0.89206609898E+01
 0.81118278847E+01 0.74803558906E+01 0.70778673923E+01 0.68911267374E+01 0.68916578057E+01
 0.70787963688E+01 0.74799760996E+01 0.81085360101E+01 0.89148099632E+01 0.10087304539E+02
 0.93239561381E+01 0.10177936954E+02 0.11213243316E+02 0.12090134465E+02 0.12433339596E+02
 0.12087697760E+02 0.11213193403E+02 0.10183583421E+02 0.93325562665E+01 0.86777316263E+01
 0.80758586185E+01 0.75896958965E+01 0.72592997262E+01 0.70784622859E+01 0.70222955549E+01
 0.70788356122E+01 0.72612746863E+01 0.75924807261E+01 0.80757225321E+01 0.86720599117E+01
 0.84048001344E+01 0.87592185811E+01 0.90829505841E+01 0.93640675615E+01 0.95465052828E+01
 0.95474065736E+01 0.93673660089E+01 0.90886263600E+01 0.87643040230E+01 0.84051015897E+01
 0.80624301250E+01 0.77823221626E+01 0.75892337124E+01 0.74804886001E+01 0.74348268348E+01
 0.74338433679E+01 0.74797972526E+01 0.75924249943E+01 0.77889767661E+01 0.80676909331E+01
 0.80931067443E+01 0.81524665251E+01 0.82396037951E+01 0.83378625323E+01 0.84185801872E+01
 0.84512508670E+01 0.84214122629E+01 0.83405842054E+01 0.82387420987E+01 0.81469531873E+01
 0.80853711397E+01 0.80619971153E+01 0.80748631646E+01 0.81112038166E+01 0.81481481645E+01
 0.81624079470E+01 0.81451703856E+01 0.81084423700E+01 0.80759273310E+01 0.80677567077E+01
 0.84045833360E+01 0.81524057920E+01 0.79515505711E+01 0.78210201397E+01 0.77570187696E+01
 0.77369434088E+01 0.77378200661E+01 0.77574833007E+01 0.78176841802E+01 0.79449741242E+01
 0.81474062694E+01 0.84051398661E+01 0.86773077186E+01 0.89204900038E+01 0.91354334449E+01
 0.92803887053E+01 0.92795964715E+01 0.91323696790E+01 0.89149725894E+01 0.86721583971E+01
 0.93237881776E+01 0.87591374862E+01 0.82398118115E+01 0.78210579402E+01 0.75398333667E+01
 0.73897187533E+01 0.73445320582E+01 0.73895286817E+01 0.75379527878E+01 0.78181080879E+01
 0.82396952082E+01 0.87647662071E+01 0.93325986109E+01 0.10093151303E+02 0.11043366268E+02
 0.11864584098E+02 0.12191726716E+02 0.11867109381E+02 0.11043394221E+02 0.10087288133E+02
 0.12103378492E+02 0.10177979162E+02 0.90831058735E+01 0.83379003473E+01 0.77568417688E+01
 0.73897171613E+01 0.72208337451E+01 0.72203781293E+01 0.73889517495E+01 0.77573302761E+01
 0.83411319632E+01 0.90887411082E+01 0.10183006488E+02 0.12103948976E+02 0.14696578042E+02
 0.17222005993E+02 0.18782943988E+02 0.18786146910E+02 0.17228894244E+02 0.14701518292E+02
 0.19895296326E+02 0.14787753486E+02 0.11213154280E+02 0.93640079927E+01 0.84184560811E+01
 0.77369670498E+01 0.73446630448E+01 0.72203428973E+01 0.73435789487E+01 0.77373100740E+01
 0.84214122629E+01 0.93669899093E+01 0.11212197949E+02 0.14781875591E+02 0.19887478166E+02
 0.25361427292E+02 0.29577105094E+02 0.31160777159E+02 0.29579926681E+02 0.25367456745E+02
 0.34850564069E+02 0.25431902007E+02 0.17378061732E+02 0.12090044822E+02 0.95465965245E+01
 0.84513184283E+01 0.77379007836E+01 0.73894464443E+01 0.73888711040E+01 0.77373671505E+01
 0.84521276907E+01 0.95470211084E+01 0.12086850111E+02 0.17371425110E+02 0.25426725837E+02
 0.34851271041E+02 0.43278046466E+02 0.48261854229E+02 0.48259050854E+02 0.43273144831E+02
 0.57012702812E+02 0.43302898865E+02 0.29678685089E+02 0.18967375933E+02 0.12433537328E+02
 0.95474441738E+01 0.84213229127E+01 0.77574187011E+01 0.75379196446E+01 0.77574426772E+01
 0.84214470189E+01 0.95469674669E+01 0.12431468218E+02 0.18964611691E+02 0.29678797629E+02
 0.43309063415E+02 0.57023313842E+02 0.67269691498E+02 0.71070147201E+02 0.67261263405E+02
 0.83867122812E+02 0.67259935446E+02 0.48295763106E+02 0.31269605539E+02 0.18964090050E+02
 0.12087606588E+02 0.93672077913E+01 0.83406092981E+01 0.78177720571E+01 0.78181581642E+01
 0.83411192409E+01 0.93668912605E+01 0.12086848582E+02 0.18964635075E+02 0.31272780447E+02
 0.48300999931E+02 0.67265248388E+02 0.83870746607E+02 0.93627795614E+02 0.93626560180E+02
 0.11039753342E+03 0.93612378546E+02 0.71063831078E+02 0.48298702539E+02 0.29675818257E+02
 0.17370988766E+02 0.11213154280E+02 0.90887542577E+01 0.82388587020E+01 0.79449013470E+01
 0.82396037951E+01 0.90887137165E+01 0.11212247863E+02 0.17371465017E+02 0.29678785990E+02
 0.48301028092E+02 0.71060789051E+02 0.93603864078E+02 0.11038987218E+03 0.11662654698E+03
 0.13014345519E+03 0.11661752882E+03 0.93613433362E+02 0.67268391830E+02 0.43308069365E+02
 0.25425883857E+02 0.14782669070E+02 0.10183726595E+02 0.87643079870E+01 0.81468113835E+01
 0.81473251987E+01 0.87648512661E+01 0.10183107455E+02 0.14781875967E+02 0.25426655818E+02
 0.43309118194E+02 0.67265253439E+02 0.93603774942E+02 0.11660579151E+03 0.13013810554E+03
 0.10400735018E+03 0.98430786156E+02 0.83400505167E+02 0.63201584766E+02 0.42846842976E+02
 0.26317146993E+02 0.15579082796E+02 0.10371158549E+02 0.86040141886E+01 0.78111564051E+01
 0.75392701245E+01 0.78113705267E+01 0.86041884873E+01 0.10371099826E+02 0.15578884645E+02
 0.26317051151E+02 0.42846937609E+02 0.63201730891E+02 0.83400551944E+02 0.98430755281E+02
 0.98434126773E+02 0.98430637819E+02 0.88132014618E+02 0.70599089210E+02 0.50549665588E+02
 0.32497538967E+02 0.19383258352E+02 0.11994661695E+02 0.90574396762E+01 0.80120308609E+01
 0.74857158869E+01 0.74853093177E+01 0.80116014981E+01 0.90579988294E+01 0.11995579107E+02
 0.19383151569E+02 0.32497010440E+02 0.50551637482E+02 0.70605269016E+02 0.88139625206E+02
 0.83405581785E+02 0.88152084278E+02 0.83400540416E+02 0.70599234747E+02 0.53416845742E+02
 0.36187733315E+02 0.22375560463E+02 0.13639516819E+02 0.95911764414E+01 0.81955281185E+01
 0.74693971669E+01 0.72237901332E+01 0.74683965679E+01 0.81951845539E+01 0.95920323709E+01
 0.13639833407E+02 0.22373950856E+02 0.36185991226E+02 0.53418421007E+02 0.70604616991E+02
 0.63199653584E+02 0.70644417687E+02 0.70645137756E+02 0.63201862788E+02 0.50549619759E+02
 0.36187611779E+02 0.23509986798E+02 0.14678689970E+02 0.10064211991E+02 0.83317935368E+01
 0.74791991419E+01 0.70441556689E+01 0.70438344643E+01 0.74787135292E+01 0.83318516821E+01
 0.10064567315E+02 0.14678144640E+02 0.23507683874E+02 0.36184045015E+02 0.50546188683E+02
 0.42840194454E+02 0.50625897286E+02 0.53525157587E+02 0.50631324325E+02 0.42846861895E+02
 0.32497298200E+02 0.22375615558E+02 0.14678777200E+02 0.10255514548E+02 0.84086881589E+01
 0.74970270676E+01 0.69409534689E+01 0.67610812973E+01 0.69412845022E+01 0.74971498604E+01
 0.84086961425E+01 0.10256268124E+02 0.14680221947E+02 0.22375664171E+02 0.32493638948E+02
 0.26316647632E+02 0.32615698926E+02 0.36372182651E+02 0.36374102229E+02 0.32619017645E+02
 0.26317019032E+02 0.19383260498E+02 0.13639701921E+02 0.10064149361E+02 0.84086348856E+01
 0.75054416245E+01 0.68965450754E+01 0.66071940450E+01 0.66077073335E+01 0.68971458558E+01
 0.75050152938E+01 0.84082926242E+01 0.10066241104E+02 0.13644260442E+02 0.19386926579E+02
 0.15583914485E+02 0.19539796182E+02 0.22635205783E+02 0.23805203586E+02 0.22633516877E+02
 0.19536092866E+02 0.15578984222E+02 0.11994789311E+02 0.95911547395E+01 0.83316667067E+01
 0.74971012132E+01 0.68965749146E+01 0.65593020276E+01 0.64544542233E+01 0.65600011349E+01
 0.68964435604E+01 0.74954365458E+01 0.83300731523E+01 0.95920323709E+01 0.11998651822E+02
 0.10370553289E+02 0.12162562378E+02 0.13943176805E+02 0.15055122116E+02 0.15053036170E+02
 0.13938734305E+02 0.12159491785E+02 0.10371138937E+02 0.90575156338E+01 0.81954094352E+01
 0.74792412006E+01 0.69410352537E+01 0.66070983924E+01 0.64544304981E+01 0.64547019832E+01
 0.66075643149E+01 0.69407379652E+01 0.74771827594E+01 0.81917075738E+01 0.90540808009E+01
 0.85983346603E+01 0.92130673088E+01 0.98953137996E+01 0.10471143960E+02 0.10697888349E+02
 0.10469478594E+02 0.98952696230E+01 0.92168777765E+01 0.86041080934E+01 0.80120013246E+01
 0.74693375961E+01 0.70442546344E+01 0.67610131704E+01 0.66076449294E+01 0.65601260142E+01
 0.66075975634E+01 0.67619706252E+01 0.70459117711E+01 0.74692205545E+01 0.80082300066E+01
 0.78110009290E+01 0.81584079904E+01 0.84821050755E+01 0.87312330790E+01 0.88713286609E+01
 0.88717747311E+01 0.87330901929E+01 0.84856011314E+01 0.81616959102E+01 0.78112361058E+01
 0.74856161947E+01 0.72238422379E+01 0.70438850368E+01 0.69412121930E+01 0.68972432893E+01
 0.68965111547E+01 0.69405838713E+01 0.70458633781E+01 0.72281832479E+01 0.74890504069E+01
 0.75442999649E+01 0.76341064242E+01 0.77489376764E+01 0.78680663404E+01 0.79606562425E+01
 0.79965521111E+01 0.79623264469E+01 0.78696098523E+01 0.77482230767E+01 0.76304692020E+01
 0.75392441675E+01 0.74852674042E+01 0.74685136095E+01 0.74786738565E+01 0.74971012132E+01
 0.75050589133E+01 0.74953137530E+01 0.74771010280E+01 0.74693971669E+01 0.74891081857E+01
 0.78108141469E+01 0.76340525234E+01 0.75041543562E+01 0.74309546970E+01 0.74050045211E+01
 0.74029071187E+01 0.74035498498E+01 0.74054409476E+01 0.74288487208E+01 0.74998702433E+01
 0.76308322673E+01 0.78112634453E+01 0.80116590665E+01 0.81952051563E+01 0.83317101878E+01
 0.84086961459E+01 0.84083459008E+01 0.83300584881E+01 0.81918468597E+01 0.80083171112E+01
 0.85981907783E+01 0.81583351009E+01 0.77491163213E+01 0.74309888837E+01 0.72257409366E+01
 0.71208433743E+01 0.70904340752E+01 0.71210454525E+01 0.72248628618E+01 0.74291909789E+01
 0.77490166466E+01 0.81620655079E+01 0.86041385102E+01 0.90580621707E+01 0.95919483094E+01
 0.10064552880E+02 0.10256434292E+02 0.10066289298E+02 0.95919700113E+01 0.90540681846E+01
 0.10370625132E+02 0.92131021062E+01 0.84822378117E+01 0.78681020396E+01 0.74048535109E+01
 0.71208409800E+01 0.69931831442E+01 0.69929732911E+01 0.71205120356E+01 0.74052497888E+01
 0.78701224620E+01 0.84857649507E+01 0.92163443596E+01 0.10371152057E+02 0.11995621505E+02
 0.13639831819E+02 0.14678243783E+02 0.14680233860E+02 0.13644073753E+02 0.11998566604E+02
 0.15584112637E+02 0.12162659465E+02 0.98952358536E+01 0.87311833565E+01 0.79605508456E+01
 0.74029253435E+01 0.70905449325E+01 0.69929430316E+01 0.70896405052E+01 0.74029142872E+01
 0.79623264469E+01 0.87330138996E+01 0.98944456363E+01 0.12158651944E+02 0.15578984222E+02
 0.19383150284E+02 0.22373902244E+02 0.23507616187E+02 0.22375560463E+02 0.19386923148E+02
 0.26316747885E+02 0.19539782049E+02 0.13942983338E+02 0.10471066091E+02 0.88714077080E+01
 0.79966087775E+01 0.74036177559E+01 0.71209752888E+01 0.71204442662E+01 0.74029639685E+01
 0.79969720263E+01 0.88717452207E+01 0.10469079486E+02 0.13938586876E+02 0.19536193197E+02
 0.26317023443E+02 0.32496899092E+02 0.36185933580E+02 0.36184108906E+02 0.32493768368E+02
 0.42840114166E+02 0.32615531220E+02 0.22635118820E+02 0.15055164151E+02 0.10698058452E+02
 0.88718068160E+01 0.79622498148E+01 0.74053869278E+01 0.72248355374E+01 0.74053467793E+01
 0.79623552116E+01 0.88716982585E+01 0.10697013367E+02 0.15053582707E+02 0.22635215846E+02
 0.32619421163E+02 0.42846876240E+02 0.50551697066E+02 0.53418544711E+02 0.50546294097E+02
 0.63199519808E+02 0.50625770211E+02 0.36372274761E+02 0.23805379471E+02 0.15053099192E+02
 0.10469400240E+02 0.87329550107E+01 0.78696335812E+01 0.74289239251E+01 0.74292319966E+01
 0.78701104918E+01 0.87329284400E+01 0.10469079001E+02 0.15053603695E+02 0.23807567322E+02
 0.36375763669E+02 0.50629259366E+02 0.63201875136E+02 0.70605323222E+02 0.70604525660E+02
 0.83405535008E+02 0.70644531190E+02 0.53525292001E+02 0.36374217985E+02 0.22633419851E+02
 0.13938576047E+02 0.98952358536E+01 0.84857125774E+01 0.77483227514E+01 0.74998039155E+01
 0.77489376764E+01 0.84857436604E+01 0.98944898130E+01 0.13938622086E+02 0.22635205783E+02
 0.36375787315E+02 0.53523444272E+02 0.70639052267E+02 0.83400540416E+02 0.88139394292E+02
 0.98434151366E+02 0.88152362920E+02 0.70645174163E+02 0.50631200380E+02 0.32618896430E+02
 0.19536017731E+02 0.12159587559E+02 0.92170007331E+01 0.81617003109E+01 0.76303450552E+01
 0.76307620213E+01 0.81621427981E+01 0.92164325188E+01 0.12158650631E+02 0.19536132195E+02
 0.32619467654E+02 0.50629262496E+02 0.70638975170E+02 0.88144695551E+02 0.98430631538E+02
 0.70236722751E+02 0.66423570925E+02 0.56158795184E+02 0.42440986798E+02 0.28839274246E+02
 0.18186879003E+02 0.11730212621E+02 0.89097579197E+01 0.78198518950E+01 0.71764379645E+01
 0.69636029819E+01 0.71766052076E+01 0.78199850587E+01 0.89097053186E+01 0.11730051531E+02
 0.18186803280E+02 0.28839352731E+02 0.42441105931E+02 0.56158833213E+02 0.66423545936E+02
 0.66425245999E+02 0.66423449439E+02 0.59374955591E+02 0.47417145072E+02 0.33894031373E+02
 0.22036740313E+02 0.13869704529E+02 0.96756567637E+01 0.81052108275E+01 0.72871184150E+01