   2   2   0   0
  0.1022816E+02  0.2353300E-09  0.2353300E-09  0.4265230E-09  0.5000000E-15
  1.000000000000000E-004
  CAR 
 unknown system                          
     71.94477113     -5.53555991  301      6.86926627      1.00000000
     -5.536  0.0000E+00  0.0000E+00
     -5.277  0.0000E+00  0.0000E+00
     -5.019  0.0000E+00  0.0000E+00
     -4.761  0.0000E+00  0.0000E+00
     -4.502  0.0000E+00  0.0000E+00
     -4.244  0.0000E+00  0.0000E+00
     -3.986  0.0000E+00  0.0000E+00
     -3.728 -0.1795E-33 -0.4637E-34
     -3.469 -0.1184E-24 -0.3057E-25
     -3.211 -0.2711E-17 -0.7003E-18
     -2.953 -0.2057E-11 -0.5313E-12
     -2.695 -0.5440E-07 -0.1405E-07
     -2.436 -0.4561E-04 -0.1179E-04
     -2.178 -0.4203E-03 -0.1203E-03
     -1.920  0.8852E-02  0.2166E-02
     -1.662  0.5355E-01  0.1600E-01
     -1.403  0.1058E+00  0.4331E-01
     -1.145  0.5729E-01  0.5811E-01
     -0.887  0.1507E+00  0.9703E-01
     -0.628  0.1786E+00  0.1432E+00
     -0.370  0.2008E+00  0.1950E+00
     -0.112  0.8769E-01  0.2177E+00
      0.146  0.2247E+00  0.2757E+00
      0.405  0.3044E+00  0.3543E+00
      0.663  0.3126E+00  0.4350E+00
      0.921  0.3045E+00  0.5137E+00
      1.179  0.2558E+00  0.5798E+00
      1.438  0.3485E+00  0.6698E+00
      1.696  0.7323E+00  0.8589E+00
      1.954  0.1000E+01  0.1117E+01
      2.212  0.1577E+01  0.1524E+01
      2.471  0.2009E+01  0.2043E+01
      2.729  0.2853E+01  0.2780E+01
      2.987  0.2261E+01  0.3364E+01
      3.246  0.2869E+01  0.4105E+01
      3.504  0.2475E+01  0.4745E+01
      3.762  0.3265E+01  0.5588E+01
      4.020  0.3240E+01  0.6425E+01
      4.279  0.3101E+01  0.7226E+01
      4.537  0.2426E+01  0.7852E+01
      4.795  0.2617E+01  0.8528E+01
      5.053  0.4212E+01  0.9616E+01
      5.312  0.3662E+01  0.1056E+02
      5.570  0.3782E+01  0.1154E+02
      5.828  0.3177E+01  0.1236E+02
      6.086  0.3634E+01  0.1330E+02
      6.345  0.3557E+01  0.1422E+02
      6.603  0.3508E+01  0.1512E+02
      6.861  0.3305E+01  0.1598E+02
      7.120  0.3134E+01  0.1679E+02
      7.378  0.4248E+01  0.1788E+02
      7.636  0.4966E+01  0.1916E+02
      7.894  0.4249E+01  0.2026E+02
      8.153  0.3285E+01  0.2111E+02
      8.411  0.5908E+00  0.2126E+02
      8.669  0.4841E+00  0.2139E+02
      8.927  0.4654E+00  0.2151E+02
      9.186  0.7594E+00  0.2170E+02
      9.444  0.9441E+00  0.2195E+02
      9.702  0.5121E+00  0.2208E+02
      9.961  0.3692E+00  0.2218E+02
     10.219  0.4405E+00  0.2229E+02
     10.477  0.4842E+00  0.2241E+02
     10.735  0.3494E+00  0.2251E+02
     10.994  0.5697E+00  0.2265E+02
     11.252  0.6210E+00  0.2281E+02
     11.510  0.4581E+00  0.2293E+02
     11.768  0.4914E+00  0.2306E+02
     12.027  0.4418E+00  0.2317E+02
     12.285  0.1218E+00  0.2320E+02
     12.543  0.4455E+00  0.2332E+02
     12.801  0.3190E+00  0.2340E+02
     13.060  0.4542E+00  0.2352E+02
     13.318  0.1833E+00  0.2357E+02
     13.576  0.3229E+00  0.2365E+02
     13.835  0.4528E+00  0.2377E+02
     14.093  0.6529E+00  0.2393E+02
     14.351  0.3981E+00  0.2404E+02
     14.609  0.1773E+00  0.2408E+02
     14.868  0.2217E+00  0.2414E+02
     15.126  0.1008E+00  0.2417E+02
     15.384  0.1065E+00  0.2419E+02
     15.642  0.3532E+00  0.2429E+02
     15.901  0.2365E+00  0.2435E+02
     16.159  0.2068E+00  0.2440E+02
     16.417  0.5845E+00  0.2455E+02
     16.675  0.7895E+00  0.2475E+02
     16.934  0.9769E+00  0.2501E+02
     17.192  0.8739E+00  0.2523E+02
     17.450  0.6176E+00  0.2539E+02
     17.709  0.3882E+00  0.2549E+02
     17.967  0.6769E+00  0.2567E+02
     18.225  0.7818E+00  0.2587E+02
     18.483  0.5963E+00  0.2602E+02
     18.742  0.9653E+00  0.2627E+02
     19.000  0.7907E+00  0.2648E+02
     19.258  0.6634E+00  0.2665E+02
     19.516  0.2808E+00  0.2672E+02
     19.775  0.7597E+00  0.2692E+02
     20.033  0.7152E+00  0.2710E+02
     20.291  0.7633E+00  0.2730E+02
     20.549  0.4822E+00  0.2742E+02
     20.808  0.5332E+00  0.2756E+02
     21.066  0.6704E+00  0.2773E+02
     21.324  0.4389E+00  0.2785E+02
     21.583  0.6193E+00  0.2801E+02
     21.841  0.8462E+00  0.2823E+02
     22.099  0.5648E+00  0.2837E+02
     22.357  0.6694E+00  0.2854E+02
     22.616  0.7610E+00  0.2874E+02
     22.874  0.4119E+00  0.2885E+02
     23.132  0.7423E+00  0.2904E+02
     23.390  0.1314E+01  0.2938E+02
     23.649  0.8829E+00  0.2961E+02
     23.907  0.7147E+00  0.2979E+02
     24.165  0.8349E+00  0.3001E+02
     24.424  0.1020E+01  0.3027E+02
     24.682  0.6512E+00  0.3044E+02
     24.940  0.8727E+00  0.3066E+02
     25.198  0.1111E+01  0.3095E+02
     25.457  0.8928E+00  0.3118E+02
     25.715  0.8443E+00  0.3140E+02
     25.973  0.8015E+00  0.3161E+02
     26.231  0.1081E+01  0.3189E+02
     26.490  0.1598E+01  0.3230E+02
     26.748  0.9452E+00  0.3254E+02
     27.006  0.4663E+00  0.3266E+02
     27.264  0.7226E+00  0.3285E+02
     27.523  0.9226E+00  0.3309E+02
     27.781  0.7820E+00  0.3329E+02
     28.039  0.8771E+00  0.3352E+02
     28.298  0.8199E+00  0.3373E+02
     28.556  0.6056E+00  0.3388E+02
     28.814  0.1082E+01  0.3416E+02
     29.072  0.1093E+01  0.3445E+02
     29.331  0.2546E+00  0.3451E+02
     29.589  0.5584E+00  0.3466E+02
     29.847  0.7029E+00  0.3484E+02
     30.105  0.3951E+00  0.3494E+02
     30.364  0.8182E+00  0.3515E+02
     30.622  0.9307E+00  0.3539E+02
     30.880  0.7660E+00  0.3559E+02
     31.138  0.6792E+00  0.3576E+02
     31.397  0.8023E+00  0.3597E+02
     31.655  0.6718E+00  0.3615E+02
     31.913  0.1057E+01  0.3642E+02
     32.172  0.9217E+00  0.3666E+02
     32.430  0.7291E+00  0.3684E+02
     32.688  0.7073E+00  0.3703E+02
     32.946  0.6702E+00  0.3720E+02
     33.205  0.7137E+00  0.3738E+02
     33.463  0.6553E+00  0.3755E+02
     33.721  0.1210E+01  0.3787E+02
     33.979  0.1027E+01  0.3813E+02
     34.238  0.6271E+00  0.3829E+02
     34.496  0.8460E+00  0.3851E+02
     34.754  0.1221E+01  0.3883E+02
     35.012  0.9213E+00  0.3907E+02
     35.271  0.8125E+00  0.3928E+02
     35.529  0.1440E+01  0.3965E+02
     35.787  0.1032E+01  0.3991E+02
     36.046  0.1098E+01  0.4020E+02
     36.304  0.1306E+01  0.4053E+02
     36.562  0.9313E+00  0.4077E+02
     36.820  0.6158E+00  0.4093E+02
     37.079  0.1040E+01  0.4120E+02
     37.337  0.8945E+00  0.4143E+02
     37.595  0.2739E+00  0.4150E+02
     37.853  0.9031E+00  0.4174E+02
     38.112  0.7005E+00  0.4192E+02
     38.370  0.4521E+00  0.4204E+02
     38.628  0.5498E+00  0.4218E+02
     38.886  0.1092E+01  0.4246E+02
     39.145  0.1154E+01  0.4276E+02
     39.403  0.9519E+00  0.4300E+02
     39.661  0.6928E+00  0.4318E+02
     39.920  0.8590E+00  0.4340E+02
     40.178  0.6445E+00  0.4357E+02
     40.436  0.8518E+00  0.4379E+02
     40.694  0.8244E+00  0.4400E+02
     40.953  0.8075E+00  0.4421E+02
     41.211  0.1093E+01  0.4449E+02
     41.469  0.1139E+01  0.4479E+02
     41.727  0.1307E+01  0.4513E+02
     41.986  0.8378E+00  0.4534E+02
     42.244  0.1062E+01  0.4562E+02
     42.502  0.1239E+01  0.4594E+02
     42.761  0.8405E+00  0.4615E+02
     43.019  0.1048E+01  0.4642E+02
     43.277  0.1290E+01  0.4676E+02
     43.535  0.1107E+01  0.4704E+02
     43.794  0.8278E+00  0.4726E+02
     44.052  0.1150E+01  0.4755E+02
     44.310  0.1265E+01  0.4788E+02
     44.568  0.1110E+01  0.4817E+02
     44.827  0.6595E+00  0.4834E+02
     45.085  0.7961E+00  0.4854E+02
     45.343  0.9081E+00  0.4878E+02
     45.601  0.1123E+01  0.4907E+02
     45.860  0.1090E+01  0.4935E+02
     46.118  0.8344E+00  0.4956E+02
     46.376  0.7727E+00  0.4976E+02
     46.635  0.1070E+01  0.5004E+02
     46.893  0.1419E+01  0.5041E+02
     47.151  0.1119E+01  0.5070E+02
     47.409  0.4474E+00  0.5081E+02
     47.668  0.6932E+00  0.5099E+02
     47.926  0.1322E+01  0.5133E+02
     48.184  0.1073E+01  0.5161E+02
     48.442  0.1017E+01  0.5187E+02
     48.701  0.8769E+00  0.5210E+02
     48.959  0.8626E+00  0.5232E+02
     49.217  0.8969E+00  0.5255E+02
     49.475  0.1070E+01  0.5283E+02
     49.734  0.1253E+01  0.5315E+02
     49.992  0.1455E+01  0.5353E+02
     50.250  0.1559E+01  0.5393E+02
     50.509  0.1096E+01  0.5421E+02
     50.767  0.1123E+01  0.5450E+02
     51.025  0.1074E+01  0.5478E+02
     51.283  0.1191E+01  0.5509E+02
     51.542  0.1051E+01  0.5536E+02
     51.800  0.1232E+01  0.5568E+02
     52.058  0.9198E+00  0.5592E+02
     52.316  0.7622E+00  0.5611E+02
     52.575  0.9484E+00  0.5636E+02
     52.833  0.1026E+01  0.5662E+02
     53.091  0.1211E+01  0.5694E+02
     53.349  0.1283E+01  0.5727E+02
     53.608  0.1195E+01  0.5758E+02
     53.866  0.1446E+01  0.5795E+02
     54.124  0.1240E+01  0.5827E+02
     54.383  0.1467E+01  0.5865E+02
     54.641  0.1441E+01  0.5902E+02
     54.899  0.1355E+01  0.5937E+02
     55.157  0.1333E+01  0.5971E+02
     55.416  0.6337E+00  0.5988E+02
     55.674  0.1306E+01  0.6022E+02
     55.932  0.1224E+01  0.6053E+02
     56.190  0.1251E+01  0.6085E+02
     56.449  0.1818E+01  0.6132E+02
     56.707  0.1583E+01  0.6173E+02
     56.965  0.1534E+01  0.6213E+02
     57.224  0.1303E+01  0.6247E+02
     57.482  0.1355E+01  0.6282E+02
     57.740  0.1161E+01  0.6312E+02
     57.998  0.1965E+01  0.6362E+02
     58.257  0.1757E+01  0.6408E+02
     58.515  0.1068E+01  0.6435E+02
     58.773  0.2028E+01  0.6488E+02
     59.031  0.1533E+01  0.6527E+02
     59.290  0.1654E+01  0.6570E+02
     59.548  0.1782E+01  0.6616E+02
     59.806  0.1599E+01  0.6657E+02
     60.064  0.2188E+01  0.6714E+02
     60.323  0.1449E+01  0.6751E+02
     60.581  0.1658E+01  0.6794E+02
     60.839  0.1985E+01  0.6845E+02
     61.098  0.1236E+01  0.6877E+02
     61.356  0.1412E+01  0.6914E+02
     61.614  0.1631E+01  0.6956E+02
     61.872  0.1822E+01  0.7003E+02
     62.131  0.1830E+01  0.7050E+02
     62.389  0.1271E+01  0.7083E+02
     62.647  0.2038E+01  0.7136E+02
     62.905  0.1515E+01  0.7175E+02
     63.164  0.1315E+01  0.7209E+02
     63.422  0.1939E+01  0.7259E+02
     63.680  0.1596E+01  0.7300E+02
     63.938  0.1599E+01  0.7341E+02
     64.197  0.1782E+01  0.7387E+02
     64.455  0.1946E+01  0.7437E+02
     64.713  0.1596E+01  0.7479E+02
     64.972  0.2003E+01  0.7530E+02
     65.230  0.2017E+01  0.7583E+02
     65.488  0.2367E+01  0.7644E+02
     65.746  0.1177E+01  0.7674E+02
     66.005  0.1682E+01  0.7718E+02
     66.263  0.2302E+01  0.7777E+02
     66.521  0.1499E+01  0.7816E+02
     66.779  0.1318E+01  0.7850E+02
     67.038  0.1721E+01  0.7894E+02
     67.296  0.1628E+01  0.7936E+02
     67.554  0.1289E+01  0.7969E+02
     67.812  0.7083E+00  0.7988E+02
     68.071  0.2273E+00  0.7994E+02
     68.329  0.1512E+00  0.7998E+02
     68.587  0.9696E-01  0.8000E+02
     68.846 -0.1908E-02  0.8000E+02
     69.104 -0.4679E-03  0.8000E+02
     69.362 -0.6324E-06  0.8000E+02
     69.620 -0.2485E-10  0.8000E+02
     69.879 -0.3101E-16  0.8000E+02
     70.137  0.0000E+00  0.8000E+02
     70.395  0.0000E+00  0.8000E+02
     70.653  0.0000E+00  0.8000E+02
     70.912  0.0000E+00  0.8000E+02
     71.170  0.0000E+00  0.8000E+02
     71.428  0.0000E+00  0.8000E+02
     71.687  0.0000E+00  0.8000E+02
     71.945  0.0000E+00  0.8000E+02
