    2    2    1    1
  0.1022816E+02  0.2353300E-09  0.2353300E-09  0.4265230E-09  0.5000000E-15
  1.000000000000000E-004
  CAR 
 unknown system                          
     16     96     40
 
  0.0000000E+00  0.0000000E+00  0.0000000E+00  0.7513148E-03
    1       -2.013727   1.000000
    2        1.822209   1.000000
    3        4.497235   1.000000
    4        5.306557   1.000000
    5        5.306652   1.000000
    6        5.573895   1.000000
    7        5.574009   1.000000
    8        5.866202   1.000000
    9        6.673863   1.022575
   10        6.673888   1.022560
   11        7.611111  -0.000001
   12        7.611138  -0.000001
   13       13.707913   0.000000
   14       29.376295   0.000000
   15       30.656699   0.000000
   16       33.443691   0.000000
   17       36.005405   0.000000
   18       36.030921   0.000000
   19       36.030980   0.000000
   20       36.826262   0.000000
   21       36.826420   0.000000
   22       39.433113   0.000000
   23       39.433136   0.000000
   24       40.398454   0.000000
   25       42.855602   0.000000
   26       42.855611   0.000000
   27       43.156610   0.000000
   28       46.692933   0.000000
   29       46.693309   0.000000
   30       48.525196   0.000000
   31       48.525312   0.000000
   32       50.558705   0.000000
   33       58.000649   0.000000
   34       61.268783   0.000000
   35       61.269588   0.000000
   36       61.578592   0.000000
   37       62.211217   0.000000
   38       63.246378   0.000000
   39       63.322569   0.000000
   40       63.545945   0.000000
 
  0.9090909E-01  0.5486090E-18  0.0000000E+00  0.4507889E-02
    1       -1.677627   1.000000
    2        2.081784   1.000000
    3        4.556618   1.000000
    4        5.141188   1.000000
    5        5.202598   1.000000
    6        5.452318   1.000000
    7        5.500864   1.000000
    8        5.758101   1.000000
    9        6.501510   1.012986
   10        6.565535   1.026812
   11        7.638733  -0.000000
   12        8.612388  -0.000000
   13       13.734065   0.000000
   14       29.351658   0.000000
   15       29.787289   0.000000
   16       31.870504   0.000000
   17       33.201578   0.000000
   18       35.270969   0.000000
   19       35.422260   0.000000
   20       35.904206   0.000000
   21       38.741118   0.000000
   22       39.212157   0.000000
   23       39.784729   0.000000
   24       40.417877   0.000000
   25       44.010635   0.000000
   26       44.143470   0.000000
   27       44.306918   0.000000
   28       44.574055   0.000000
   29       47.885264   0.000000
   30       49.745463   0.000000
   31       50.937271   0.000000
   32       52.677715   0.000000
   33       57.440267   0.000000
   34       59.384685   0.000000
   35       59.923117   0.000000
   36       60.532492   0.000000
   37       60.996844   0.000000
   38       63.558331   0.000000
   39       63.792738   0.000000
   40       64.341333   0.000000
 
  0.1818182E+00 -0.8158573E-17  0.0000000E+00  0.4507889E-02
    1       -0.726626   1.000000
    2        2.697152   1.000000
    3        4.161943   1.000000
    4        4.490518   1.000000
    5        4.967044   1.000000
    6        5.517800   1.000000
    7        6.051079   1.000000
    8        6.096048   1.000000
    9        6.272847   1.000103
   10        6.308989   1.000271
   11        7.675234  -0.000000
   12       10.364672  -0.000000
   13       13.850329   0.000000
   14       25.531773   0.000000
   15       30.369098   0.000000
   16       30.540929   0.000000
   17       30.580468   0.000000
   18       31.207332   0.000000
   19       35.208421   0.000000
   20       36.344031   0.000000
   21       36.617029   0.000000
   22       37.744418   0.000000
   23       40.497322   0.000000
   24       41.053496   0.000000
   25       44.332315   0.000000
   26       45.512509   0.000000
   27       46.894690   0.000000
   28       49.019988   0.000000
   29       50.526158   0.000000
   30       53.143903   0.000000
   31       53.784149   0.000000
   32       55.966572   0.000000
   33       56.453070   0.000000
   34       56.494705   0.000000
   35       58.215375   0.000000
   36       59.535509   0.000000
   37       61.279786   0.000000
   38       63.427066   0.000000
   39       64.416698   0.000000
   40       65.675132   0.000000
 
  0.2727273E+00  0.1443247E-16  0.0000000E+00  0.4507889E-02
    1        0.622105   1.000000
    2        2.992839   1.000000
    3        3.401557   1.000000
    4        4.494891   1.000000
    5        4.774986   1.000000
    6        5.590145   1.000000
    7        6.016033   1.000000
    8        6.264779   1.000082
    9        6.828343   0.669206
   10        6.989229   0.080070
   11        7.683728  -0.000000
   12       12.385560   0.000000
   13       14.117123   0.000000
   14       21.453909   0.000000
   15       26.998323   0.000000
   16       27.937181   0.000000
   17       28.719166   0.000000
   18       31.462327   0.000000
   19       33.615329   0.000000
   20       35.930913   0.000000
   21       36.974415   0.000000
   22       36.999271   0.000000
   23       37.964799   0.000000
   24       41.249380   0.000000
   25       48.033361   0.000000
   26       49.162053   0.000000
   27       50.446119   0.000000
   28       51.115956   0.000000
   29       51.367807   0.000000
   30       53.698039   0.000000
   31       54.737608   0.000000
   32       56.264428   0.000000
   33       57.655589   0.000000
   34       58.315423   0.000000
   35       59.340837   0.000000
   36       61.385011   0.000000
   37       62.771287   0.000000
   38       63.193899   0.000000
   39       65.246919   0.000000
   40       65.518724   0.000000
 
  0.3636364E+00  0.9267945E-17  0.0000000E+00  0.4507889E-02
    1        1.818889   1.000000
    2        2.720210   1.000000
    3        2.905247   1.000000
    4        4.607895   1.000000
    5        5.140209   1.000000
    6        5.278163   1.000000
    7        5.772714   1.000000
    8        7.524502  -0.000018
    9        7.613779  -0.000001
   10        7.672811  -0.000000
   11        7.709763  -0.000000
   12       14.222236   0.000000
   13       14.575681   0.000000
   14       18.375725   0.000000
   15       23.630247   0.000000
   16       25.712249   0.000000
   17       26.087807   0.000000
   18       30.833330   0.000000
   19       32.708040   0.000000
   20       35.897006   0.000000
   21       36.544640   0.000000
   22       37.709285   0.000000
   23       37.756714   0.000000
   24       41.261485   0.000000
   25       47.924852   0.000000
   26       49.865457   0.000000
   27       51.285283   0.000000
   28       54.315324   0.000000
   29       54.536124   0.000000
   30       54.744331   0.000000
   31       56.300837   0.000000
   32       58.304873   0.000000
   33       58.384330   0.000000
   34       59.904148   0.000000
   35       61.949854   0.000000
   36       63.076344   0.000000
   37       63.382807   0.000000
   38       64.471744   0.000000
   39       65.690651   0.000000
   40       66.855556   0.000000
 
  0.4545455E+00  0.5035878E-16  0.0000000E+00  0.4507889E-02
    1        2.274204   1.000000
    2        2.474112   1.000000
    3        2.664923   1.000000
    4        4.875762   1.000000
    5        5.187014   1.000000
    6        5.521365   1.000000
    7        5.634219   1.000000
    8        7.659353  -0.000000
    9        8.099819  -0.000000
   10        8.192654  -0.000000
   11        9.232932  -0.000000
   12       12.638895   0.000000
   13       16.670875   0.000000
   14       18.142509   0.000000
   15       20.955671   0.000000
   16       22.920694   0.000000
   17       25.059004   0.000000
   18       30.254505   0.000000
   19       32.425924   0.000000
   20       34.750899   0.000000
   21       36.294595   0.000000
   22       38.731943   0.000000
   23       40.284736   0.000000
   24       40.546499   0.000000
   25       44.537208   0.000000
   26       50.094939   0.000000
   27       51.966383   0.000000
   28       55.579071   0.000000
   29       57.100004   0.000000
   30       57.689146   0.000000
   31       58.335256   0.000000
   32       59.915534   0.000000
   33       60.415472   0.000000
   34       61.470057   0.000000
   35       62.584098   0.000000
   36       63.090796   0.000000
   37       65.185067   0.000000
   38       65.402203   0.000000
   39       66.435749   0.000000
   40       67.198330   0.000000
 
  0.9090909E-01  0.9090909E-01  0.0000000E+00  0.4507889E-02
    1       -1.031271   1.000000
    2        2.539426   1.000000
    3        4.418502   1.000000
    4        4.507165   1.000000
    5        5.184090   1.000000
    6        5.221910   1.000000
    7        5.903372   1.000000
    8        6.111670   1.000001
    9        6.154882   1.000003
   10        6.506849   1.013971
   11        7.630231  -0.000001
   12        9.872918  -0.000000
   13       13.809308   0.000000
   14       27.305452   0.000000
   15       28.563010   0.000000
   16       30.476807   0.000000
   17       32.469884   0.000000
   18       34.155963   0.000000
   19       34.303390   0.000000
   20       35.183484   0.000000
   21       35.760846   0.000000
   22       41.194941   0.000000
   23       41.287746   0.000000
   24       41.912992   0.000000
   25       43.008283   0.000000
   26       43.380109   0.000000
   27       43.744175   0.000000
   28       49.707633   0.000000
   29       51.494204   0.000000
   30       51.500425   0.000000
   31       51.785516   0.000000
   32       55.674998   0.000000
   33       56.696548   0.000000
   34       57.070334   0.000000
   35       58.320959   0.000000
   36       59.524922   0.000000
   37       60.908497   0.000000
   38       63.847308   0.000000
   39       64.277554   0.000000
   40       65.571737   0.000000
 
  0.1818182E+00  0.9090909E-01  0.0000000E+00  0.9015778E-02
    1        0.145131   1.000000
    2        3.128550   1.000000
    3        3.675976   1.000000
    4        4.255593   1.000000
    5        4.880512   1.000000
    6        5.614805   1.000000
    7        5.645809   1.000000
    8        6.245688   1.000048
    9        6.620441   1.035401
   10        6.892191   0.403701
   11        7.609200  -0.000001
   12       11.676428  -0.000000
   13       14.043587   0.000000
   14       23.547603   0.000000
   15       26.195263   0.000000
   16       28.896032   0.000000
   17       30.892268   0.000000
   18       31.563393   0.000000
   19       33.922175   0.000000
   20       34.480944   0.000000
   21       35.676572   0.000000
   22       39.820324   0.000000
   23       40.578404   0.000000
   24       41.857742   0.000000
   25       44.909710   0.000000
   26       45.853615   0.000000
   27       47.976750   0.000000
   28       51.407070   0.000000
   29       53.117347   0.000000
   30       54.059726   0.000000
   31       54.468085   0.000000
   32       56.346336   0.000000
   33       57.380344   0.000000
   34       57.425048   0.000000
   35       58.648413   0.000000
   36       59.186538   0.000000
   37       61.907701   0.000000
   38       64.227453   0.000000
   39       65.045207   0.000000
   40       66.064397   0.000000
 
  0.2727273E+00  0.9090909E-01  0.0000000E+00  0.9015778E-02
    1        1.513951   1.000000
    2        3.065257   1.000000
    3        3.130213   1.000000
    4        4.344453   1.000000
    5        4.964456   1.000000
    6        5.233258   1.000000
    7        5.884976   1.000000
    8        6.417867   1.003198
    9        7.399259  -0.000577
   10        7.579333  -0.000003
   11        7.847080  -0.000000
   12       13.756925   0.000000
   13       14.476408   0.000000
   14       19.763179   0.000000
   15       24.486147   0.000000
   16       25.399497   0.000000
   17       28.088481   0.000000
   18       29.906386   0.000000
   19       33.691428   0.000000
   20       35.090833   0.000000
   21       35.443625   0.000000
   22       39.114110   0.000000
   23       39.838058   0.000000
   24       42.822038   0.000000
   25       46.811700   0.000000
   26       49.314125   0.000000
   27       50.346584   0.000000
   28       50.369281   0.000000
   29       52.954930   0.000000
   30       54.875644   0.000000
   31       55.598050   0.000000
   32       58.054256   0.000000
   33       59.065306   0.000000
   34       59.519751   0.000000
   35       61.017238   0.000000
   36       62.953827   0.000000
   37       64.097541   0.000000
   38       64.621676   0.000000
   39       64.857381   0.000000
   40       65.753534   0.000000
 
  0.3636364E+00  0.9090909E-01  0.0000000E+00  0.9015778E-02
    1        2.355776   1.000000
    2        2.745923   1.000000
    3        2.814340   1.000000
    4        4.750266   1.000000
    5        4.950369   1.000000
    6        5.383321   1.000000
    7        5.591633   1.000000
    8        7.386826  -0.000775
    9        7.549966  -0.000008
   10        7.924608  -0.000000
   11        9.052459  -0.000000
   12       13.996942   0.000000
   13       15.978635   0.000000
   14       17.994202   0.000000
   15       22.340760   0.000000
   16       23.092271   0.000000
   17       24.834186   0.000000
   18       29.045903   0.000000
   19       32.785125   0.000000
   20       34.627465   0.000000
   21       37.191101   0.000000
   22       39.415862   0.000000
   23       40.211996   0.000000
   24       42.013283   0.000000
   25       46.556615   0.000000
   26       49.394395   0.000000
   27       50.633364   0.000000
   28       52.696884   0.000000
   29       54.363492   0.000000
   30       56.424641   0.000000
   31       57.928784   0.000000
   32       59.593960   0.000000
   33       60.434917   0.000000
   34       62.445714   0.000000
   35       62.518103   0.000000
   36       63.905186   0.000000
   37       64.149322   0.000000
   38       65.386153   0.000000
   39       65.925023   0.000000
   40       67.174666   0.000000
 
  0.4545455E+00  0.9090909E-01  0.0000000E+00  0.4507889E-02
    1        2.495792   1.000000
    2        2.636422   1.000000
    3        2.712628   1.000000
    4        4.849333   1.000000
    5        5.193669   1.000000
    6        5.461059   1.000000
    7        5.479107   1.000000
    8        7.536553  -0.000013
    9        7.951275  -0.000000
   10        7.980244  -0.000000
   11       10.278784  -0.000000
   12       12.401208   0.000000
   13       17.505785   0.000000
   14       18.591390   0.000000
   15       20.530153   0.000000
   16       21.999560   0.000000
   17       23.563149   0.000000
   18       28.736199   0.000000
   19       32.402274   0.000000
   20       34.464793   0.000000
   21       37.625711   0.000000
   22       40.129623   0.000000
   23       40.950021   0.000000
   24       41.628189   0.000000
   25       44.329348   0.000000
   26       50.506820   0.000000
   27       50.558519   0.000000
   28       53.049776   0.000000
   29       56.871838   0.000000
   30       57.188343   0.000000
   31       60.030718   0.000000
   32       60.591516   0.000000
   33       60.742953   0.000000
   34       60.760422   0.000000
   35       61.626951   0.000000
   36       64.182208   0.000000
   37       66.073232   0.000000
   38       66.107421   0.000000
   39       66.294737   0.000000
   40       67.269420   0.000000
 
  0.1818182E+00  0.1818182E+00  0.0000000E+00  0.4507889E-02
    1        1.421731   1.000000
    2        3.265159   1.000000
    3        3.613328   1.000000
    4        3.805991   1.000000
    5        4.936552   1.000000
    6        5.193457   1.000000
    7        5.854864   1.000000
    8        5.996159   1.000000
    9        7.370238  -0.001133
   10        7.472423  -0.000085
   11        7.920474  -0.000000
   12       13.501237   0.000000
   13       14.585152   0.000000
   14       21.563541   0.000000
   15       22.306513   0.000000
   16       27.045841   0.000000
   17       28.307650   0.000000
   18       30.450243   0.000000
   19       30.986131   0.000000
   20       34.864705   0.000000
   21       37.254496   0.000000
   22       41.041211   0.000000
   23       41.816241   0.000000
   24       43.900971   0.000000
   25       44.830743   0.000000
   26       46.699733   0.000000
   27       47.536676   0.000000
   28       51.590901   0.000000
   29       53.758147   0.000000
   30       53.968357   0.000000
   31       54.402803   0.000000
   32       58.454628   0.000000
   33       58.895816   0.000000
   34       61.670064   0.000000
   35       61.804294   0.000000
   36       61.823040   0.000000
   37       61.939041   0.000000
   38       64.929586   0.000000
   39       65.276130   0.000000
   40       66.375720   0.000000
 
  0.2727273E+00  0.1818182E+00  0.0000000E+00  0.9015778E-02
    1        2.638798   1.000000
    2        3.022432   1.000000
    3        3.305669   1.000000
    4        4.041296   1.000000
    5        4.910230   1.000000
    6        5.231893   1.000000
    7        5.582487   1.000000
    8        6.449137   1.005698
    9        7.352648  -0.001665
   10        7.838252  -0.000000
   11        9.223191  -0.000000
   12       15.332042   0.000000
   13       15.648983   0.000000
   14       18.526013   0.000000
   15       20.677277   0.000000
   16       24.283624   0.000000
   17       26.741364   0.000000
   18       26.860006   0.000000
   19       29.717469   0.000000
   20       37.134248   0.000000
   21       37.743014   0.000000
   22       40.945865   0.000000
   23       43.277470   0.000000
   24       44.876026   0.000000
   25       45.449285   0.000000
   26       47.611135   0.000000
   27       48.722267   0.000000
   28       49.611769   0.000000
   29       52.958804   0.000000
   30       54.077422   0.000000
   31       56.855758   0.000000
   32       59.829824   0.000000
   33       60.904619   0.000000
   34       62.159621   0.000000
   35       64.077181   0.000000
   36       64.183462   0.000000
   37       65.250307   0.000000
   38       65.327964   0.000000
   39       66.665798   0.000000
   40       67.414396   0.000000
 
  0.3636364E+00  0.1818182E+00  0.0000000E+00  0.9015778E-02
    1        2.926337   1.000000
    2        3.000153   1.000000
    3        3.121899   1.000000
    4        4.565564   1.000000
    5        4.845419   1.000000
    6        5.214309   1.000000
    7        5.515661   1.000000
    8        7.188050  -0.023347
    9        7.286612  -0.005981
   10        7.807927  -0.000000
   11       10.848956  -0.000000
   12       13.870113   0.000000
   13       17.873335   0.000000
   14       18.657070   0.000000
   15       19.766715   0.000000
   16       21.563299   0.000000
   17       23.853316   0.000000
   18       26.167339   0.000000
   19       29.077831   0.000000
   20       37.841658   0.000000
   21       39.460874   0.000000
   22       41.121912   0.000000
   23       42.395202   0.000000
   24       43.541017   0.000000
   25       47.016385   0.000000
   26       47.931675   0.000000
   27       49.412345   0.000000
   28       50.699248   0.000000
   29       54.157449   0.000000
   30       55.598223   0.000000
   31       56.578666   0.000000
   32       59.629696   0.000000
   33       60.348617   0.000000
   34       61.056620   0.000000
   35       64.939529   0.000000
   36       65.469827   0.000000
   37       66.485373   0.000000
   38       66.758395   0.000000
   39       66.940112   0.000000
   40       67.181102   0.000000
 
  0.2727273E+00  0.2727273E+00  0.0000000E+00  0.4507889E-02
    1        3.074838   1.000000
    2        3.425696   1.000000
    3        3.723871   1.000000
    4        3.774880   1.000000
    5        4.752055   1.000000
    6        5.153558   1.000000
    7        5.534877   1.000000
    8        6.717171   0.979233
    9        7.155465  -0.030586
   10        7.764466  -0.000000
   11       10.989963  -0.000000
   12       15.960173   0.000000
   13       16.656248   0.000000
   14       17.905714   0.000000
   15       19.297864   0.000000
   16       23.624703   0.000000
   17       23.655201   0.000000
   18       25.627973   0.000000
   19       26.451873   0.000000
   20       38.940249   0.000000
   21       39.700558   0.000000
   22       43.988194   0.000000
   23       44.892704   0.000000
   24       45.024943   0.000000
   25       45.180054   0.000000
   26       46.052572   0.000000
   27       48.452432   0.000000
   28       50.873452   0.000000
   29       51.143281   0.000000
   30       55.650623   0.000000
   31       55.872804   0.000000
   32       58.141220   0.000000
   33       60.251086   0.000000
   34       61.215522   0.000000
   35       65.214630   0.000000
   36       65.834479   0.000000
   37       66.097160   0.000000
   38       66.961479   0.000000
   39       67.072348   0.000000
   40       68.377701   0.000000
 
  0.3636364E+00  0.2727273E+00  0.0000000E+00  0.4507889E-02
    1        3.136013   1.000000
    2        3.551902   1.000000
    3        3.623523   1.000000
    4        4.121929   1.000000
    5        4.820538   1.000000
    6        4.827333   1.000000
    7        5.676338   1.000000
    8        7.078927  -0.029441
    9        7.103770  -0.035007
   10        7.421274  -0.000335
   11       12.790896   0.000000
   12       14.059294   0.000000
   13       16.269112   0.000000
   14       19.881528   0.000000
   15       20.262598   0.000000
   16       21.374979   0.000000
   17       23.443617   0.000000
   18       23.872942   0.000000
   19       25.857954   0.000000
   20       39.320123   0.000000
   21       42.310439   0.000000
   22       42.893525   0.000000
   23       44.092853   0.000000
   24       44.336925   0.000000
   25       45.938269   0.000000
   26       47.076639   0.000000
   27       50.306458   0.000000
   28       51.033937   0.000000
   29       51.236972   0.000000
   30       54.623699   0.000000
   31       55.819602   0.000000
   32       56.380405   0.000000
   33       59.609369   0.000000
   34       60.120672   0.000000
   35       65.313939   0.000000
   36       66.287911   0.000000
   37       67.068504   0.000000
   38       67.255825   0.000000
   39       67.702074   0.000000
   40       68.202866   0.000000
 
  0.0000000E+00  0.0000000E+00  0.9090909E-01  0.1502630E-02
    1       -1.937683   1.000000
    2        1.783342   1.000000
    3        4.479118   1.000000
    4        5.301954   1.000000
    5        5.302049   1.000000
    6        5.560665   1.000000
    7        5.560778   1.000000
    8        5.669129   1.000000
    9        6.704832   0.995505
   10        6.704858   0.995474
   11        7.603876  -0.000001
   12        7.603902  -0.000001
   13       14.067411   0.000000
   14       28.683837   0.000000
   15       30.755603   0.000000
   16       33.292968   0.000000
   17       36.078395   0.000000
   18       36.078447   0.000000
   19       36.571950   0.000000
   20       36.843318   0.000000
   21       36.843471   0.000000
   22       39.364503   0.000000
   23       39.364516   0.000000
   24       40.635434   0.000000
   25       42.546206   0.000000
   26       42.546217   0.000000
   27       43.340404   0.000000
   28       46.936405   0.000000
   29       46.936763   0.000000
   30       48.926572   0.000000
   31       48.926679   0.000000
   32       50.421416   0.000000
   33       57.367556   0.000000
   34       61.052497   0.000000
   35       61.053241   0.000000
   36       61.422326   0.000000
   37       61.442357   0.000000
   38       61.442716   0.000000
   39       62.259601   0.000000
   40       62.925749   0.000000
 
  0.9090909E-01  0.5486090E-18  0.9090909E-01  0.9015778E-02
    1       -1.603251   1.000000
    2        2.046679   1.000000
    3        4.543431   1.000000
    4        5.005116   1.000000
    5        5.184627   1.000000
    6        5.469807   1.000000
    7        5.493622   1.000000
    8        5.743763   1.000000
    9        6.540112   1.020965
   10        6.600967   1.033675
   11        7.624403  -0.000001
   12        8.472332  -0.000000
   13       14.129256   0.000000
   14       28.967594   0.000000
   15       29.540604   0.000000
   16       31.849200   0.000000
   17       33.264475   0.000000
   18       34.681596   0.000000
   19       35.912858   0.000000
   20       36.438190   0.000000
   21       38.466169   0.000000
   22       39.310319   0.000000
   23       39.859832   0.000000
   24       40.594691   0.000000
   25       43.783753   0.000000
   26       43.828297   0.000000
   27       44.827044   0.000000
   28       45.033436   0.000000
   29       47.718558   0.000000
   30       49.992542   0.000000
   31       51.233755   0.000000
   32       52.620505   0.000000
   33       56.217138   0.000000
   34       59.275684   0.000000
   35       59.891830   0.000000
   36       60.522963   0.000000
   37       61.258983   0.000000
   38       62.427328   0.000000
   39       62.751563   0.000000
   40       64.280924   0.000000
 
  0.1818182E+00 -0.8158573E-17  0.9090909E-01  0.9015778E-02
    1       -0.659163   1.000000
    2        2.673667   1.000000
    3        4.094161   1.000000
    4        4.502367   1.000000
    5        4.940440   1.000000
    6        5.461928   1.000000
    7        6.022042   1.000000
    8        6.186516   1.000008
    9        6.235983   1.000036
   10        6.391691   1.001883
   11        7.656039  -0.000000
   12       10.021888  -0.000000
   13       14.376873   0.000000
   14       25.584751   0.000000
   15       29.681293   0.000000
   16       30.455279   0.000000
   17       30.570754   0.000000
   18       31.232997   0.000000
   19       35.015111   0.000000
   20       36.761257   0.000000
   21       37.043649   0.000000
   22       37.271246   0.000000
   23       40.898008   0.000000
   24       41.500399   0.000000
   25       44.537576   0.000000
   26       45.420888   0.000000
   27       46.691284   0.000000
   28       49.023967   0.000000
   29       50.297632   0.000000
   30       53.188180   0.000000
   31       54.081699   0.000000
   32       54.746290   0.000000
   33       55.893374   0.000000
   34       57.604932   0.000000
   35       57.866493   0.000000
   36       59.745017   0.000000
   37       61.402999   0.000000
   38       63.338255   0.000000
   39       63.512056   0.000000
   40       65.893823   0.000000
 
  0.2727273E+00  0.1443247E-16  0.9090909E-01  0.9015778E-02
    1        0.669281   1.000000
    2        2.976537   1.000000
    3        3.390173   1.000000
    4        4.487950   1.000000
    5        4.752987   1.000000
    6        5.598059   1.000000
    7        6.035169   1.000000
    8        6.308080   1.000265
    9        6.835578   0.640329
   10        6.977717   0.107583
   11        7.664060  -0.000000
   12       11.677665  -0.000000
   13       14.955999   0.000000
   14       21.515332   0.000000
   15       26.592335   0.000000
   16       28.037704   0.000000
   17       28.997861   0.000000
   18       31.136431   0.000000
   19       33.444367   0.000000
   20       35.414263   0.000000
   21       36.031761   0.000000
   22       37.918607   0.000000
   23       38.958700   0.000000
   24       41.767356   0.000000
   25       48.117966   0.000000
   26       48.525771   0.000000
   27       49.709046   0.000000
   28       50.072997   0.000000
   29       53.000915   0.000000
   30       53.831184   0.000000
   31       54.980555   0.000000
   32       56.414012   0.000000
   33       56.916223   0.000000
   34       58.019065   0.000000
   35       59.847809   0.000000
   36       61.021603   0.000000
   37       63.100832   0.000000
   38       63.581946   0.000000
   39       64.127334   0.000000
   40       66.618672   0.000000
 
  0.3636364E+00  0.9267945E-17  0.9090909E-01  0.9015778E-02
    1        1.811820   1.000000
    2        2.676953   1.000000
    3        2.992507   1.000000
    4        4.399403   1.000000
    5        5.243337   1.000000
    6        5.452524   1.000000
    7        5.802803   1.000000
    8        7.489552  -0.000052
    9        7.573077  -0.000004
   10        7.624731  -0.000001
   11        7.756680  -0.000000
   12       13.046323   0.000000
   13       15.784803   0.000000
   14       18.461078   0.000000
   15       23.261170   0.000000
   16       26.122170   0.000000
   17       26.201467   0.000000
   18       30.775513   0.000000
   19       32.658368   0.000000
   20       34.743251   0.000000
   21       36.047885   0.000000
   22       37.722596   0.000000
   23       39.181457   0.000000
   24       41.754510   0.000000
   25       46.826675   0.000000
   26       50.998734   0.000000
   27       51.073779   0.000000
   28       53.538398   0.000000
   29       53.746621   0.000000
   30       55.880043   0.000000
   31       56.296524   0.000000
   32       58.061674   0.000000
   33       58.991254   0.000000
   34       59.740359   0.000000
   35       62.017812   0.000000
   36       63.280501   0.000000
   37       63.473477   0.000000
   38       63.833209   0.000000
   39       66.453709   0.000000
   40       66.855092   0.000000
 
  0.4545455E+00  0.5035878E-16  0.9090909E-01  0.9015778E-02
    1        2.208782   1.000000
    2        2.387290   1.000000
    3        2.864688   1.000000
    4        4.460891   1.000000
    5        5.405301   1.000000
    6        5.669166   1.000000
    7        5.815331   1.000000
    8        7.609727  -0.000001
    9        8.103095  -0.000000
   10        8.192914  -0.000000
   11        9.146409  -0.000000
   12       12.445176   0.000000
   13       16.581014   0.000000
   14       18.197297   0.000000
   15       21.024072   0.000000
   16       23.295181   0.000000
   17       25.178815   0.000000
   18       30.250585   0.000000
   19       32.408556   0.000000
   20       33.872719   0.000000
   21       37.221793   0.000000