 vasp.6.2.0 18Jan21 (build Mar 17 2021 09:06:54) complex                        
  
 POSCAR found type information on POSCAR Fe
 POSCAR found :  1 types and       2 ions
 LDA part: xc-table for Pade appr. of Perdew
 POSCAR, INCAR and KPOINTS ok, starting setup
 FFT: planning ...
 WAVECAR not read
 WARNING: chargedensity file is incomplete
 entering main loop
       N       E                     dE             d eps       ncg     rms          rms(c)
DAV:   1     0.600584788911E+02    0.60058E+02   -0.27048E+03  9208   0.322E+02
DAV:   2    -0.146263954017E+02   -0.74685E+02   -0.63786E+02  7912   0.953E+01
DAV:   3    -0.189991325491E+02   -0.43727E+01   -0.41408E+01  9480   0.240E+01
DAV:   4    -0.190191586764E+02   -0.20026E-01   -0.20013E-01  9160   0.170E+00
DAV:   5    -0.190191845451E+02   -0.25869E-04   -0.25870E-04  9152   0.576E-02    0.169E+01
DAV:   6    -0.162105790354E+02    0.28086E+01   -0.18787E+00 11200   0.249E+01    0.255E+00
DAV:   7    -0.160085508809E+02    0.20203E+00   -0.12872E-01 10184   0.556E+00    0.111E+00
DAV:   8    -0.159812409057E+02    0.27310E-01   -0.37504E-03 10096   0.413E-01    0.495E-01
DAV:   9    -0.159712118563E+02    0.10029E-01   -0.90127E-04 11200   0.163E-01    0.566E-02
DAV:  10    -0.159712431582E+02   -0.31302E-04   -0.33428E-05  8976   0.239E-02    0.268E-02
DAV:  11    -0.159712359732E+02    0.71850E-05   -0.59075E-07  9168   0.644E-03    0.204E-03
DAV:  12    -0.159712350201E+02    0.95309E-06   -0.40282E-08  6056   0.101E-03
   1 F= -.15971235E+02 E0= -.15972126E+02  d E =0.267349E-02
 writing wavefunctions
