<?xml version="1.0" encoding="ISO-8859-1"?>
<modeling>
 <generator>
  <i name="program" type="string">vasp </i>
  <i name="version" type="string">6.2.0  </i>
  <i name="subversion" type="string">18Jan21 (build Mar 17 2021 09:06:54) complex                          serial </i>
  <i name="platform" type="string">LinuxIFC </i>
  <i name="date" type="string">2021 09 09 </i>
  <i name="time" type="string">12:06:25 </i>
 </generator>
 <incar>
  <i type="string" name="PREC">normal</i>
  <i type="int" name="ICHARG">     1</i>
  <i type="int" name="IBRION">     1</i>
  <i name="EDIFF">      0.00000100</i>
  <i type="int" name="NSW">     0</i>
  <i type="int" name="ISIF">     2</i>
  <i name="ENCUT">    280.00000000</i>
  <i type="int" name="NBANDS">    40</i>
  <i type="int" name="ISMEAR">     1</i>
  <i name="SIGMA">      0.20000000</i>
  <i type="logical" name="LCHARG"> T  </i>
  <i type="int" name="KPAR">     1</i>
  <i type="int" name="NCORE">     1</i>
  <i type="string" name="GGA">PE</i>
 </incar>
 <primitive_cell>
  <structure name="primitive_cell" >
   <crystal>
    <varray name="basis" >
     <v>       2.35330000       0.00000000       0.00000000 </v>
     <v>      -1.17665000       2.03801758       0.00000000 </v>
     <v>       0.00000000       0.00000000       4.26523000 </v>
    </varray>
    <i name="volume">     20.45632790 </i>
    <varray name="rec_basis" >
     <v>       0.42493520       0.24533645       0.00000000 </v>
     <v>       0.00000000       0.49067290       0.00000000 </v>
     <v>       0.00000000       0.00000000       0.23445395 </v>
    </varray>
   </crystal>
   <varray name="positions" >
    <v>       0.00000000       0.00000000       0.00000000 </v>
    <v>       0.33333333       0.66666667       0.50000000 </v>
   </varray>
  </structure>
  <varray name="primitive_index" >
   <v type="int" >        1 </v>
   <v type="int" >        2 </v>
  </varray>
 </primitive_cell>
 <kpoints>
  <generation param="Monkhorst-Pack">
   <v type="int" name="divisions">      11       11       11 </v>
   <v name="usershift">      0.00000000       0.00000000       0.00000000 </v>
   <v name="genvec1">      0.09090909      -0.00000000       0.00000000 </v>
   <v name="genvec2">      0.00000000       0.09090909       0.00000000 </v>
   <v name="genvec3">      0.00000000       0.00000000       0.09090909 </v>
   <v name="shift">      0.00000000       0.00000000       0.00000000 </v>
  </generation>
  <varray name="kpointlist" >
   <v>       0.00000000       0.00000000       0.00000000 </v>
   <v>       0.09090909       0.00000000       0.00000000 </v>
   <v>       0.18181818      -0.00000000       0.00000000 </v>
   <v>       0.27272727       0.00000000       0.00000000 </v>
   <v>       0.36363636       0.00000000       0.00000000 </v>
   <v>       0.45454545       0.00000000       0.00000000 </v>
   <v>       0.09090909       0.09090909       0.00000000 </v>
   <v>       0.18181818       0.09090909       0.00000000 </v>
   <v>       0.27272727       0.09090909       0.00000000 </v>
   <v>       0.36363636       0.09090909       0.00000000 </v>
   <v>       0.45454545       0.09090909       0.00000000 </v>
   <v>       0.18181818       0.18181818       0.00000000 </v>
   <v>       0.27272727       0.18181818       0.00000000 </v>
   <v>       0.36363636       0.18181818       0.00000000 </v>
   <v>       0.27272727       0.27272727       0.00000000 </v>
   <v>       0.36363636       0.27272727       0.00000000 </v>
   <v>       0.00000000       0.00000000       0.09090909 </v>
   <v>       0.09090909       0.00000000       0.09090909 </v>
   <v>       0.18181818      -0.00000000       0.09090909 </v>
   <v>       0.27272727       0.00000000       0.09090909 </v>
   <v>       0.36363636       0.00000000       0.09090909 </v>
   <v>       0.45454545       0.00000000       0.09090909 </v>
   <v>       0.09090909       0.09090909       0.09090909 </v>
   <v>       0.18181818       0.09090909       0.09090909 </v>
   <v>       0.27272727       0.09090909       0.09090909 </v>
   <v>       0.36363636       0.09090909       0.09090909 </v>
   <v>       0.45454545       0.09090909       0.09090909 </v>
   <v>       0.18181818       0.18181818       0.09090909 </v>
   <v>       0.27272727       0.18181818       0.09090909 </v>
   <v>       0.36363636       0.18181818       0.09090909 </v>
   <v>       0.27272727       0.27272727       0.09090909 </v>
   <v>       0.36363636       0.27272727       0.09090909 </v>
   <v>       0.00000000       0.00000000       0.18181818 </v>
   <v>       0.09090909       0.00000000       0.18181818 </v>
   <v>       0.18181818      -0.00000000       0.18181818 </v>
   <v>       0.27272727       0.00000000       0.18181818 </v>
   <v>       0.36363636       0.00000000       0.18181818 </v>
   <v>       0.45454545       0.00000000       0.18181818 </v>
   <v>       0.09090909       0.09090909       0.18181818 </v>
   <v>       0.18181818       0.09090909       0.18181818 </v>
   <v>       0.27272727       0.09090909       0.18181818 </v>
   <v>       0.36363636       0.09090909       0.18181818 </v>
   <v>       0.45454545       0.09090909       0.18181818 </v>
   <v>       0.18181818       0.18181818       0.18181818 </v>
   <v>       0.27272727       0.18181818       0.18181818 </v>
   <v>       0.36363636       0.18181818       0.18181818 </v>
   <v>       0.27272727       0.27272727       0.18181818 </v>
   <v>       0.36363636       0.27272727       0.18181818 </v>
   <v>       0.00000000       0.00000000       0.27272727 </v>
   <v>       0.09090909       0.00000000       0.27272727 </v>
   <v>       0.18181818      -0.00000000       0.27272727 </v>
   <v>       0.27272727       0.00000000       0.27272727 </v>
   <v>       0.36363636       0.00000000       0.27272727 </v>
   <v>       0.45454545       0.00000000       0.27272727 </v>
   <v>       0.09090909       0.09090909       0.27272727 </v>
   <v>       0.18181818       0.09090909       0.27272727 </v>
   <v>       0.27272727       0.09090909       0.27272727 </v>
   <v>       0.36363636       0.09090909       0.27272727 </v>
   <v>       0.45454545       0.09090909       0.27272727 </v>
   <v>       0.18181818       0.18181818       0.27272727 </v>
   <v>       0.27272727       0.18181818       0.27272727 </v>
   <v>       0.36363636       0.18181818       0.27272727 </v>
   <v>       0.27272727       0.27272727       0.27272727 </v>
   <v>       0.36363636       0.27272727       0.27272727 </v>
   <v>       0.00000000       0.00000000       0.36363636 </v>
   <v>       0.09090909       0.00000000       0.36363636 </v>
   <v>       0.18181818      -0.00000000       0.36363636 </v>
   <v>       0.27272727       0.00000000       0.36363636 </v>
   <v>       0.36363636       0.00000000       0.36363636 </v>
   <v>       0.45454545       0.00000000       0.36363636 </v>
   <v>       0.09090909       0.09090909       0.36363636 </v>
   <v>       0.18181818       0.09090909       0.36363636 </v>
   <v>       0.27272727       0.09090909       0.36363636 </v>
   <v>       0.36363636       0.09090909       0.36363636 </v>
   <v>       0.45454545       0.09090909       0.36363636 </v>
   <v>       0.18181818       0.18181818       0.36363636 </v>
   <v>       0.27272727       0.18181818       0.36363636 </v>
   <v>       0.36363636       0.18181818       0.36363636 </v>
   <v>       0.27272727       0.27272727       0.36363636 </v>
   <v>       0.36363636       0.27272727       0.36363636 </v>
   <v>       0.00000000       0.00000000       0.45454545 </v>
   <v>       0.09090909       0.00000000       0.45454545 </v>
   <v>       0.18181818      -0.00000000       0.45454545 </v>
   <v>       0.27272727       0.00000000       0.45454545 </v>
   <v>       0.36363636       0.00000000       0.45454545 </v>
   <v>       0.45454545       0.00000000       0.45454545 </v>
   <v>       0.09090909       0.09090909       0.45454545 </v>
   <v>       0.18181818       0.09090909       0.45454545 </v>
   <v>       0.27272727       0.09090909       0.45454545 </v>
   <v>       0.36363636       0.09090909       0.45454545 </v>
   <v>       0.45454545       0.09090909       0.45454545 </v>
   <v>       0.18181818       0.18181818       0.45454545 </v>
   <v>       0.27272727       0.18181818       0.45454545 </v>
   <v>       0.36363636       0.18181818       0.45454545 </v>
   <v>       0.27272727       0.27272727       0.45454545 </v>
   <v>       0.36363636       0.27272727       0.45454545 </v>
  </varray>
  <varray name="weights" >
   <v>       0.00075131 </v>
   <v>       0.00450789 </v>
   <v>       0.00450789 </v>
   <v>       0.00450789 </v>
   <v>       0.00450789 </v>
   <v>       0.00450789 </v>
   <v>       0.00450789 </v>
   <v>       0.00901578 </v>
   <v>       0.00901578 </v>
   <v>       0.00901578 </v>
   <v>       0.00450789 </v>
   <v>       0.00450789 </v>
   <v>       0.00901578 </v>
   <v>       0.00901578 </v>
   <v>       0.00450789 </v>
   <v>       0.00450789 </v>
   <v>       0.00150263 </v>
   <v>       0.00901578 </v>
   <v>       0.00901578 </v>
   <v>       0.00901578 </v>
   <v>       0.00901578 </v>
   <v>       0.00901578 </v>
   <v>       0.00901578 </v>
   <v>       0.01803156 </v>
   <v>       0.01803156 </v>
   <v>       0.01803156 </v>
   <v>       0.00901578 </v>
   <v>       0.00901578 </v>
   <v>       0.01803156 </v>
   <v>       0.01803156 </v>
   <v>       0.00901578 </v>
   <v>       0.00901578 </v>
   <v>       0.00150263 </v>
   <v>       0.00901578 </v>
   <v>       0.00901578 </v>
   <v>       0.00901578 </v>
   <v>       0.00901578 </v>
   <v>       0.00901578 </v>
   <v>       0.00901578 </v>
   <v>       0.01803156 </v>
   <v>       0.01803156 </v>
   <v>       0.01803156 </v>
   <v>       0.00901578 </v>
   <v>       0.00901578 </v>
   <v>       0.01803156 </v>
   <v>       0.01803156 </v>
   <v>       0.00901578 </v>
   <v>       0.00901578 </v>
   <v>       0.00150263 </v>
   <v>       0.00901578 </v>
   <v>       0.00901578 </v>
   <v>       0.00901578 </v>
   <v>       0.00901578 </v>
   <v>       0.00901578 </v>
   <v>       0.00901578 </v>
   <v>       0.01803156 </v>
   <v>       0.01803156 </v>
   <v>       0.01803156 </v>
   <v>       0.00901578 </v>
   <v>       0.00901578 </v>
   <v>       0.01803156 </v>
   <v>       0.01803156 </v>
   <v>       0.00901578 </v>
   <v>       0.00901578 </v>
   <v>       0.00150263 </v>
   <v>       0.00901578 </v>
   <v>       0.00901578 </v>
   <v>       0.00901578 </v>
   <v>       0.00901578 </v>
   <v>       0.00901578 </v>
   <v>       0.00901578 </v>
   <v>       0.01803156 </v>
   <v>       0.01803156 </v>
   <v>       0.01803156 </v>
   <v>       0.00901578 </v>
   <v>       0.00901578 </v>
   <v>       0.01803156 </v>
   <v>       0.01803156 </v>
   <v>       0.00901578 </v>
   <v>       0.00901578 </v>
   <v>       0.00150263 </v>
   <v>       0.00901578 </v>
   <v>       0.00901578 </v>
   <v>       0.00901578 </v>
   <v>       0.00901578 </v>
   <v>       0.00901578 </v>
   <v>       0.00901578 </v>
   <v>       0.01803156 </v>
   <v>       0.01803156 </v>
   <v>       0.01803156 </v>
   <v>       0.00901578 </v>
   <v>       0.00901578 </v>
   <v>       0.01803156 </v>
   <v>       0.01803156 </v>
   <v>       0.00901578 </v>
   <v>       0.00901578 </v>
  </varray>
 </kpoints>
 <parameters>
  <separator name="general" >
   <i type="string" name="SYSTEM">unknown system</i>
   <i type="logical" name="LCOMPAT"> F  </i>
  </separator>
  <separator name="electronic" >
   <i type="string" name="PREC">normal</i>
   <i name="ENMAX">    280.00000000</i>
   <i name="ENAUG">    511.36800000</i>
   <i name="EDIFF">      0.00000100</i>
   <i type="int" name="IALGO">    38</i>
   <i type="int" name="IWAVPR">     0</i>
   <i type="int" name="NBANDS">    40</i>
   <i type="int" name="NBANDSLOW">    -1</i>
   <i type="int" name="NBANDSHIGH">    -1</i>
   <i name="NELECT">     16.00000000</i>
   <i type="int" name="TURBO">     0</i>
   <i type="int" name="IRESTART">     0</i>
   <i type="int" name="NREBOOT">     0</i>
   <i type="int" name="NMIN">     0</i>
   <i name="EREF">      0.00000000</i>
   <separator name="electronic smearing" >
    <i type="int" name="ISMEAR">     1</i>
    <i name="SIGMA">      0.20000000</i>
    <i name="KSPACING">      0.50000000</i>
    <i type="logical" name="KGAMMA"> T  </i>
    <i type="logical" name="KBLOWUP"> T  </i>
   </separator>
   <separator name="electronic projectors" >
    <i type="logical" name="LREAL"> F  </i>
    <v name="ROPT">      0.00000000</v>
    <i type="int" name="LMAXPAW">  -100</i>
    <i type="int" name="LMAXMIX">     2</i>
    <i type="logical" name="NLSPLINE"> F  </i>
   </separator>
   <separator name="electronic startup" >
    <i type="int" name="ISTART">     0</i>
    <i type="int" name="ICHARG">     1</i>
    <i type="int" name="INIWAV">     1</i>
   </separator>
   <separator name="electronic spin" >
    <i type="int" name="ISPIN">     1</i>
    <i type="logical" name="LNONCOLLINEAR"> F  </i>
    <v name="MAGMOM">      1.00000000      1.00000000</v>
    <i name="NUPDOWN">     -1.00000000</i>
    <i type="logical" name="LSORBIT"> F  </i>
    <v name="SAXIS">      0.00000000      0.00000000      1.00000000</v>
    <i type="logical" name="LSPIRAL"> F  </i>
    <v name="QSPIRAL">      0.00000000      0.00000000      0.00000000</v>
    <i type="logical" name="LZEROZ"> F  </i>
   </separator>
   <separator name="electronic exchange-correlation" >
    <i type="logical" name="LASPH"> F  </i>
    <i type="logical" name="LMETAGGA"> F  </i>
   </separator>
   <separator name="electronic convergence" >
    <i type="int" name="NELM">    60</i>
    <i type="int" name="NELMDL">    -5</i>
    <i type="int" name="NELMIN">     2</i>
    <i name="ENINI">    280.00000000</i>
    <separator name="electronic convergence detail" >
     <i type="logical" name="LDIAG"> T  </i>
     <i type="logical" name="LSUBROT"> F  </i>
     <i name="WEIMIN">      0.00000000</i>
     <i name="EBREAK">      0.00000001</i>
     <i name="DEPER">      0.30000000</i>
     <i type="int" name="NRMM">     4</i>
     <i name="TIME">      0.40000000</i>
    </separator>
   </separator>
   <separator name="electronic mixer" >
    <i name="AMIX">      0.40000000</i>
    <i name="BMIX">      1.00000000</i>
    <i name="AMIN">      0.10000000</i>
    <i name="AMIX_MAG">      1.60000000</i>
    <i name="BMIX_MAG">      1.00000000</i>
    <separator name="electronic mixer details" >
     <i type="int" name="IMIX">     4</i>
     <i type="logical" name="MIXFIRST"> F  </i>
     <i type="int" name="MAXMIX">   -45</i>
     <i name="WC">    100.00000000</i>
     <i type="int" name="INIMIX">     1</i>
     <i type="int" name="MIXPRE">     1</i>
     <i type="int" name="MREMOVE">     5</i>
    </separator>
   </separator>
   <separator name="electronic dipolcorrection" >
    <i type="logical" name="LDIPOL"> F  </i>
    <i type="logical" name="LMONO"> F  </i>
    <i type="int" name="IDIPOL">     0</i>
    <i name="EPSILON">      1.00000000</i>
    <v name="DIPOL">   -100.00000000   -100.00000000   -100.00000000</v>
    <i name="EFIELD">      0.00000000</i>
   </separator>
  </separator>
  <separator name="grids" >
   <i type="int" name="NGX">    10</i>
   <i type="int" name="NGY">    10</i>
   <i type="int" name="NGZ">    18</i>
   <i type="int" name="NGXF">    20</i>
   <i type="int" name="NGYF">    20</i>
   <i type="int" name="NGZF">    36</i>
   <i type="logical" name="ADDGRID"> F  </i>
  </separator>
  <separator name="ionic" >
   <i type="int" name="NSW">     0</i>
   <i type="int" name="IBRION">    -1</i>
   <i type="int" name="MDALGO">     0</i>
   <i type="int" name="ISIF">     2</i>
   <i name="PSTRESS">      0.00000000</i>
   <i name="EDIFFG">      0.00001000</i>
   <i type="int" name="NFREE">     0</i>
   <i name="POTIM">      0.50000000</i>
   <i name="SMASS">     -3.00000000</i>
   <i name="SCALEE">      1.00000000</i>
  </separator>
  <separator name="ionic md" >
   <i name="TEBEG">      0.00010000</i>
   <i name="TEEND">      0.00010000</i>
   <i type="int" name="NBLOCK">     1</i>
   <i type="int" name="KBLOCK">     1</i>
   <i type="int" name="NPACO">   256</i>
   <i name="APACO">     16.00000000</i>
  </separator>
  <separator name="symmetry" >
   <i type="int" name="ISYM">     2</i>
   <i name="SYMPREC">      0.00001000</i>
  </separator>
  <separator name="dos" >
   <i type="int" name="LORBIT">     0</i>
   <v name="RWIGS">     -1.00000000</v>
   <i type="int" name="NEDOS">   301</i>
   <i name="EMIN">     10.00000000</i>
   <i name="EMAX">    -10.00000000</i>
   <i name="EFERMI">      0.00000000</i>
  </separator>
  <separator name="writing" >
   <i type="int" name="NWRITE">     2</i>
   <i type="logical" name="LWAVE"> T  </i>
   <i type="logical" name="LDOWNSAMPLE"> F  </i>
   <i type="logical" name="LCHARG"> T  </i>
   <i type="logical" name="LPARD"> F  </i>
   <i type="logical" name="LVTOT"> F  </i>
   <i type="logical" name="LVHAR"> F  </i>
   <i type="logical" name="LELF"> F  </i>
   <i type="logical" name="LOPTICS"> F  </i>
   <v name="STM">      0.00000000      0.00000000      0.00000000      0.00000000      0.00000000      0.00000000      0.00000000</v>
  </separator>
  <separator name="performance" >
   <i type="int" name="NPAR">     1</i>
   <i type="int" name="NSIM">     4</i>
   <i type="int" name="NBLK">    -1</i>
   <i type="logical" name="LPLANE"> T  </i>
   <i type="logical" name="LSCALAPACK"> F  </i>
   <i type="logical" name="LSCAAWARE"> F  </i>
   <i type="logical" name="LSCALU"> F  </i>
   <i type="logical" name="LASYNC"> F  </i>
   <i type="logical" name="LORBITALREAL"> F  </i>
  </separator>
  <separator name="miscellaneous" >
   <i type="int" name="IDIOT">     3</i>
   <i type="int" name="PHON_NSTRUCT">    -1</i>
   <i type="logical" name="LMUSIC"> F  </i>
   <v name="POMASS">     55.84700000</v>
   <v name="DARWINR">      0.00000000</v>
   <v name="DARWINV">      1.00000000</v>
   <i type="logical" name="LCORR"> T  </i>
  </separator>
  <i type="logical" name="GGA_COMPAT"> T  </i>
  <i type="logical" name="LBERRY"> F  </i>
  <i type="int" name="ICORELEVEL">     0</i>
  <i type="logical" name="LDAU"> F  </i>
  <i type="int" name="I_CONSTRAINED_M">     0</i>
  <separator name="electronic exchange-correlation" >
   <i type="string" name="GGA">PE</i>
   <i type="int" name="VOSKOWN">     0</i>
   <i type="logical" name="LHFCALC"> F  </i>
   <i type="string" name="PRECFOCK"></i>
   <i type="logical" name="LSYMGRAD"> F  </i>
   <i type="logical" name="LHFONE"> F  </i>
   <i type="logical" name="LRHFCALC"> F  </i>
   <i type="logical" name="LTHOMAS"> F  </i>
   <i type="logical" name="LMODELHF"> F  </i>
   <i type="logical" name="LFOCKACE"> F  </i>
   <i name="ENCUT4O">     -1.00000000</i>
   <i type="int" name="EXXOEP">     0</i>
   <i type="int" name="FOURORBIT">     0</i>
   <i name="AEXX">      0.00000000</i>
   <i name="HFALPHA">      0.00000000</i>
   <i name="MCALPHA">      0.00000000</i>
   <i name="ALDAX">      1.00000000</i>
   <i name="AGGAX">      1.00000000</i>
   <i name="ALDAC">      1.00000000</i>
   <i name="AGGAC">      1.00000000</i>
   <i type="int" name="NKREDX">     1</i>
   <i type="int" name="NKREDY">     1</i>
   <i type="int" name="NKREDZ">     1</i>
   <i type="logical" name="SHIFTRED"> F  </i>
   <i type="logical" name="ODDONLY"> F  </i>
   <i type="logical" name="EVENONLY"> F  </i>
   <i type="int" name="LMAXFOCK">     0</i>
   <i type="int" name="NMAXFOCKAE">     0</i>
   <i type="logical" name="LFOCKAEDFT"> F  </i>
   <i name="HFSCREEN">      0.00000000</i>
   <i name="HFSCREENC">      0.00000000</i>
   <i type="int" name="NBANDSGWLOW">     0</i>
  </separator>
  <separator name="vdW DFT" >
   <i type="logical" name="LUSE_VDW"> F  </i>
   <i name="Zab_VDW">     -0.84910000</i>
   <i name="PARAM1">      0.12340000</i>
   <i name="PARAM2">      1.00000000</i>
   <i name="PARAM3">      0.00000000</i>
  </separator>
  <separator name="model GW" >
   <i type="int" name="MODEL_GW">     0</i>
   <i name="MODEL_EPS0">      6.13689837</i>
   <i name="MODEL_ALPHA">      1.00000000</i>
  </separator>
  <separator name="linear response parameters" >
   <i type="logical" name="LEPSILON"> F  </i>
   <i type="logical" name="LRPA"> F  </i>
   <i type="logical" name="LNABLA"> F  </i>
   <i type="logical" name="LVEL"> F  </i>
   <i type="int" name="KINTER">     0</i>
   <i name="CSHIFT">      0.10000000</i>
   <i name="OMEGAMAX">     -1.00000000</i>
   <i name="DEG_THRESHOLD">      0.00200000</i>
   <i name="RTIME">     -0.10000000</i>
   <i name="WPLASMAI">      0.00000000</i>
   <v name="DFIELD">      0.00000000      0.00000000      0.00000000</v>
   <v name="WPLASMA">      0.00000000      0.00000000      0.00000000      0.00000000      0.00000000      0.00000000      0.00000000      0.00000000      0.00000000</v>
  </separator>
  <separator name="orbital magnetization" >
   <i type="logical" name="NUCIND"> F  </i>
   <v name="MAGPOS">      0.00000000      0.00000000      0.00000000</v>
   <i type="logical" name="LNICSALL"> T  </i>
   <i type="logical" name="ORBITALMAG"> F  </i>
   <i type="logical" name="LMAGBLOCH"> F  </i>
   <i type="logical" name="LCHIMAG"> F  </i>
   <i type="logical" name="LGAUGE"> T  </i>
   <i type="int" name="MAGATOM">     0</i>
   <v name="MAGDIPOL">      0.00000000      0.00000000      0.00000000</v>
   <v name="AVECCONST">      0.00000000      0.00000000      0.00000000</v>
  </separator>
  <separator name="response functions" >
   <i type="logical" name="LFINITE_TEMPERATURE"> F  </i>
   <i type="logical" name="LADDER"> F  </i>
   <i type="logical" name="LRPAFORCE"> F  </i>
   <i type="logical" name="LFXC"> F  </i>
   <i type="logical" name="LHARTREE"> T  </i>
   <i type="int" name="IBSE">     0</i>
   <v type="int" name="KPOINT">    -1     0     0     0</v>
   <i type="logical" name="LTCTC"> F  </i>
   <i type="logical" name="LTCTE"> F  </i>
   <i type="logical" name="LTETE"> F  </i>
   <i type="logical" name="LTRIPLET"> F  </i>
   <i type="logical" name="LFXCEPS"> F  </i>
   <i type="logical" name="LFXHEG"> F  </i>
   <i type="int" name="NATURALO">     2</i>
   <i type="logical" name="LHOLEGF"> F  </i>
   <i type="logical" name="L2ORDER"> F  </i>
   <i type="logical" name="LDMP1"> F  </i>
   <i type="logical" name="LMP2LT"> F  </i>
   <i type="logical" name="LSMP2LT"> F  </i>
   <i type="logical" name="LGWLF"> F  </i>
   <i name="ENCUTGW">     -2.00000000</i>
   <i name="ENCUTGWSOFT">     -2.00000000</i>
   <i name="ENCUTLF">     -1.00000000</i>
   <i type="logical" name="LESF_SPLINES"> F  </i>
   <i type="int" name="LMAXMP2">    -1</i>
   <i name="SCISSOR">      0.00000000</i>
   <i type="int" name="NOMEGA">     0</i>
   <i type="int" name="NOMEGAR">     0</i>
   <i type="int" name="NBANDSGW">    -1</i>
   <i type="int" name="NBANDSO">    -1</i>
   <i type="int" name="NBANDSV">    -1</i>
   <i type="int" name="NELM">     1</i>
   <i type="int" name="NELMHF">     1</i>
   <i type="int" name="DIM">     3</i>
   <i type="int" name="IESPILON">     4</i>
   <i type="int" name="ANTIRES">     0</i>
   <i name="OMEGAMAX">    -30.00000000</i>
   <i name="OMEGAMIN">    -30.00000000</i>
   <i name="OMEGATL">   -200.00000000</i>
   <i type="int" name="OMEGAGRID">     0</i>
   <i name="CSHIFT">     -0.10000000</i>
   <i type="logical" name="LSELFENERGY"> F  </i>
   <i type="logical" name="LSPECTRAL"> F  </i>
   <i type="logical" name="LSPECTRALGW"> F  </i>
   <i type="logical" name="LSINGLES"> F  </i>
   <i type="logical" name="LFERMIGW"> F  </i>
   <i type="logical" name="ODDONLYGW"> F  </i>
   <i type="logical" name="EVENONLYGW"> F  </i>
   <i type="int" name="NKREDLFX">     1</i>
   <i type="int" name="NKREDLFY">     1</i>
   <i type="int" name="NKREDLFZ">     1</i>
   <i type="int" name="MAXMEM">  2800</i>
   <i type="int" name="TELESCOPE">     0</i>
   <i type="int" name="NTAUPAR">    -1</i>
   <i type="int" name="NOMEGAPAR">    -1</i>
   <i name="DAMP_NEWTON">      0.80000001</i>
   <i name="LAMBDA">      1.00000000</i>
  </separator>
  <separator name="External order field" >
   <i name="OFIELD_KAPPA">      0.00000000</i>
   <v name="OFIELD_K">      0.00000000      0.00000000      0.00000000</v>
   <i name="OFIELD_Q6_NEAR">      0.00000000</i>
   <i name="OFIELD_Q6_FAR">      0.00000000</i>
   <i name="OFIELD_A">      0.00000000</i>
  </separator>
 </parameters>
 <atominfo>
  <atoms>       2 </atoms>
  <types>       1 </types>
  <array name="atoms" >
   <dimension dim="1">ion</dimension>
   <field type="string">element</field>
   <field type="int">atomtype</field>
   <set>
    <rc><c>Fe</c><c>   1</c></rc>
    <rc><c>Fe</c><c>   1</c></rc>
   </set>
  </array>
  <array name="atomtypes" >
   <dimension dim="1">type</dimension>
   <field type="int">atomspertype</field>
   <field type="string">element</field>
   <field>mass</field>
   <field>valence</field>
   <field type="string">pseudopotential</field>
   <set>
    <rc><c>   2</c><c>Fe</c><c>     55.84700000</c><c>      8.00000000</c><c>  PAW_PBE Fe 06Sep2000                  </c></rc>
   </set>
  </array>
 </atominfo>
 <structure name="initialpos" >
  <crystal>
   <varray name="basis" >
    <v>       2.35330000       0.00000000       0.00000000 </v>
    <v>      -1.17665000       2.03801758       0.00000000 </v>
    <v>       0.00000000       0.00000000       4.26523000 </v>
   </varray>
   <i name="volume">     20.45632790 </i>
   <varray name="rec_basis" >
    <v>       0.42493520       0.24533645       0.00000000 </v>
    <v>       0.00000000       0.49067290       0.00000000 </v>
    <v>       0.00000000       0.00000000       0.23445395 </v>
   </varray>
  </crystal>
  <varray name="positions" >
   <v>       0.00000000       0.00000000       0.00000000 </v>
   <v>       0.33333333       0.66666667       0.50000000 </v>
  </varray>
 </structure>
 <calculation>
  <scstep>
   <time name="dav">    0.79    0.81</time>
   <time name="total">    0.80    0.82</time>
   <energy>
    <i name="alphaZ">    135.14405192 </i>
    <i name="ewald">  -1224.14479968 </i>
    <i name="hartreedc">   -208.81724056 </i>
    <i name="XCdc">      8.47760846 </i>
    <i name="pawpsdc">   1109.69170683 </i>
    <i name="pawaedc">  -1125.09647265 </i>
    <i name="eentropy">      0.00225669 </i>
    <i name="bandstr">    176.22645977 </i>
    <i name="atom">   1188.57490811 </i>
    <i name="e_fr_energy">     60.05847889 </i>
    <i name="e_wo_entrp">     60.05622220 </i>
    <i name="e_0_energy">     60.05772666 </i>
   </energy>
  </scstep>
  <scstep>
   <time name="dav">    0.70    0.70</time>
   <time name="total">    0.70    0.70</time>
   <energy>
    <i name="e_fr_energy">    -14.62639540 </i>
    <i name="e_wo_entrp">    -14.62929458 </i>
    <i name="e_0_energy">    -14.62736180 </i>
   </energy>
  </scstep>
  <scstep>
   <time name="dav">    0.80    0.80</time>
   <time name="total">    0.80    0.80</time>
   <energy>
    <i name="e_fr_energy">    -18.99913255 </i>
    <i name="e_wo_entrp">    -18.99948128 </i>
    <i name="e_0_energy">    -18.99924879 </i>
   </energy>
  </scstep>
  <scstep>
   <time name="dav">    0.76    0.76</time>
   <time name="total">    0.77    0.77</time>
   <energy>
    <i name="e_fr_energy">    -19.01915868 </i>
    <i name="e_wo_entrp">    -19.01948144 </i>
    <i name="e_0_energy">    -19.01926626 </i>
   </energy>
  </scstep>
  <scstep>
   <time name="dav">    0.76    0.76</time>
   <time name="total">    0.79    0.79</time>
   <energy>
    <i name="e_fr_energy">    -19.01918455 </i>
    <i name="e_wo_entrp">    -19.01950728 </i>
    <i name="e_0_energy">    -19.01929212 </i>
   </energy>
  </scstep>
  <scstep>
   <time name="dav">    0.92    0.92</time>
   <time name="total">    0.95    0.95</time>
   <energy>
    <i name="e_fr_energy">    -16.21057904 </i>
    <i name="e_wo_entrp">    -16.21313060 </i>
    <i name="e_0_energy">    -16.21142956 </i>
   </energy>
  </scstep>
  <scstep>
   <time name="dav">    0.84    0.84</time>
   <time name="total">    0.87    0.87</time>
   <energy>
    <i name="e_fr_energy">    -16.00855088 </i>
    <i name="e_wo_entrp">    -16.01113683 </i>
    <i name="e_0_energy">    -16.00941286 </i>
   </energy>
  </scstep>
  <scstep>
   <time name="dav">    0.83    0.83</time>
   <time name="total">    0.86    0.86</time>
   <energy>
    <i name="e_fr_energy">    -15.98124091 </i>
    <i name="e_wo_entrp">    -15.98390478 </i>
    <i name="e_0_energy">    -15.98212886 </i>
   </energy>
  </scstep>
  <scstep>
   <time name="dav">    0.91    0.91</time>
   <time name="total">    0.94    0.94</time>
   <energy>
    <i name="e_fr_energy">    -15.97121186 </i>
    <i name="e_wo_entrp">    -15.97388701 </i>
    <i name="e_0_energy">    -15.97210357 </i>
   </energy>
  </scstep>
  <scstep>
   <time name="dav">    0.75    0.75</time>
   <time name="total">    0.79    0.79</time>
   <energy>
    <i name="e_fr_energy">    -15.97124316 </i>
    <i name="e_wo_entrp">    -15.97391668 </i>
    <i name="e_0_energy">    -15.97213433 </i>
   </energy>
  </scstep>
  <scstep>
   <time name="dav">    0.77    0.77</time>
   <time name="total">    0.80    0.80</time>
   <energy>
    <i name="e_fr_energy">    -15.97123597 </i>
    <i name="e_wo_entrp">    -15.97390938 </i>
    <i name="e_0_energy">    -15.97212711 </i>
   </energy>
  </scstep>
  <scstep>
   <time name="dav">    0.58    0.58</time>
   <time name="total">    0.59    0.59</time>
   <energy>
    <i name="alphaZ">    135.14405192 </i>
    <i name="ewald">  -1224.14479968 </i>
    <i name="hartreedc">   -174.82942558 </i>
    <i name="XCdc">      6.89554925 </i>
    <i name="pawpsdc">   1477.25066046 </i>
    <i name="pawaedc">  -1494.76834294 </i>
    <i name="eentropy">      0.00267349 </i>
    <i name="bandstr">     69.90348996 </i>
    <i name="atom">   1188.57490811 </i>
    <i name="e_fr_energy">    -15.97123502 </i>
    <i name="e_wo_entrp">    -15.97390851 </i>
    <i name="e_0_energy">    -15.97212618 </i>
   </energy>
  </scstep>
  <structure>
   <crystal>
    <varray name="basis" >
     <v>       2.35330000       0.00000000       0.00000000 </v>
     <v>      -1.17665000       2.03801758       0.00000000 </v>
     <v>       0.00000000       0.00000000       4.26523000 </v>
    </varray>
    <i name="volume">     20.45632790 </i>
    <varray name="rec_basis" >
     <v>       0.42493520       0.24533645       0.00000000 </v>
     <v>       0.00000000       0.49067290       0.00000000 </v>
     <v>       0.00000000       0.00000000       0.23445395 </v>
    </varray>
   </crystal>
   <varray name="positions" >
    <v>       0.00000000       0.00000000       0.00000000 </v>
    <v>       0.33333333       0.66666667       0.50000000 </v>
   </varray>
  </structure>
  <varray name="forces" >
   <v>       0.00000000      -0.00000000       0.00000000 </v>
   <v>      -0.00000000       0.00000000      -0.00000000 </v>
  </varray>
  <varray name="stress" >
   <v>     209.59887148      -0.00000000       0.00000000 </v>
   <v>      -0.00000000     209.59887148      -0.00000000 </v>
   <v>       0.00000000       0.00000000    -373.96321433 </v>
  </varray>
  <energy>
   <i name="e_fr_energy">    -15.97123502 </i>
   <i name="e_wo_entrp">    -15.97390851 </i>
   <i name="e_0_energy">    -15.97212618 </i>
  </energy>
  <time name="totalsc">   10.00   10.02</time>
  <eigenvalues>
   <array>
    <dimension dim="1">band</dimension>
    <dimension dim="2">kpoint</dimension>
    <dimension dim="3">spin</dimension>
    <field>eigene</field>
    <field>occ</field>
    <set>
     <set comment="spin 1">
      <set comment="kpoint 1">
       <r>   -2.0137    1.0000 </r>
       <r>    1.8222    1.0000 </r>
       <r>    4.4972    1.0000 </r>
       <r>    5.3066    1.0000 </r>
       <r>    5.3067    1.0000 </r>
       <r>    5.5739    1.0000 </r>
       <r>    5.5740    1.0000 </r>
       <r>    5.8662    1.0000 </r>
       <r>    6.6739    1.0226 </r>
       <r>    6.6739    1.0226 </r>
       <r>    7.6111   -0.0000 </r>
       <r>    7.6111   -0.0000 </r>
       <r>   13.7079    0.0000 </r>
       <r>   29.3763    0.0000 </r>
       <r>   30.6567    0.0000 </r>
       <r>   33.4437    0.0000 </r>
       <r>   36.0054    0.0000 </r>
       <r>   36.0309    0.0000 </r>
       <r>   36.0310    0.0000 </r>
       <r>   36.8263    0.0000 </r>
       <r>   36.8264    0.0000 </r>
       <r>   39.4331    0.0000 </r>
       <r>   39.4331    0.0000 </r>
       <r>   40.3985    0.0000 </r>
       <r>   42.8556    0.0000 </r>
       <r>   42.8556    0.0000 </r>
       <r>   43.1566    0.0000 </r>
       <r>   46.6929    0.0000 </r>
       <r>   46.6933    0.0000 </r>
       <r>   48.5252    0.0000 </r>
       <r>   48.5253    0.0000 </r>
       <r>   50.5587    0.0000 </r>
       <r>   58.0006    0.0000 </r>
       <r>   61.2688    0.0000 </r>
       <r>   61.2696    0.0000 </r>
       <r>   61.5786    0.0000 </r>
       <r>   62.2112    0.0000 </r>
       <r>   63.2464    0.0000 </r>
       <r>   63.3226    0.0000 </r>
       <r>   63.5459    0.0000 </r>
      </set>
      <set comment="kpoint 2">
       <r>   -1.6776    1.0000 </r>
       <r>    2.0818    1.0000 </r>
       <r>    4.5566    1.0000 </r>
       <r>    5.1412    1.0000 </r>
       <r>    5.2026    1.0000 </r>
       <r>    5.4523    1.0000 </r>
       <r>    5.5009    1.0000 </r>
       <r>    5.7581    1.0000 </r>
       <r>    6.5015    1.0130 </r>
       <r>    6.5655    1.0268 </r>
       <r>    7.6387   -0.0000 </r>
       <r>    8.6124   -0.0000 </r>
       <r>   13.7341    0.0000 </r>
       <r>   29.3517    0.0000 </r>
       <r>   29.7873    0.0000 </r>
       <r>   31.8705    0.0000 </r>
       <r>   33.2016    0.0000 </r>
       <r>   35.2710    0.0000 </r>
       <r>   35.4223    0.0000 </r>
       <r>   35.9042    0.0000 </r>
       <r>   38.7411    0.0000 </r>
       <r>   39.2122    0.0000 </r>
       <r>   39.7847    0.0000 </r>
       <r>   40.4179    0.0000 </r>
       <r>   44.0106    0.0000 </r>
       <r>   44.1435    0.0000 </r>
       <r>   44.3069    0.0000 </r>
       <r>   44.5741    0.0000 </r>
       <r>   47.8853    0.0000 </r>
       <r>   49.7455    0.0000 </r>
       <r>   50.9373    0.0000 </r>
       <r>   52.6777    0.0000 </r>
       <r>   57.4403    0.0000 </r>
       <r>   59.3847    0.0000 </r>
       <r>   59.9231    0.0000 </r>
       <r>   60.5325    0.0000 </r>
       <r>   60.9968    0.0000 </r>
       <r>   63.5583    0.0000 </r>
       <r>   63.7927    0.0000 </r>
       <r>   64.3413    0.0000 </r>
      </set>
      <set comment="kpoint 3">
       <r>   -0.7266    1.0000 </r>
       <r>    2.6972    1.0000 </r>
       <r>    4.1619    1.0000 </r>
       <r>    4.4905    1.0000 </r>
       <r>    4.9670    1.0000 </r>
       <r>    5.5178    1.0000 </r>
       <r>    6.0511    1.0000 </r>
       <r>    6.0960    1.0000 </r>
       <r>    6.2728    1.0001 </r>
       <r>    6.3090    1.0003 </r>
       <r>    7.6752   -0.0000 </r>
       <r>   10.3647   -0.0000 </r>
       <r>   13.8503    0.0000 </r>
       <r>   25.5318    0.0000 </r>
       <r>   30.3691    0.0000 </r>
       <r>   30.5409    0.0000 </r>
       <r>   30.5805    0.0000 </r>
       <r>   31.2073    0.0000 </r>
       <r>   35.2084    0.0000 </r>
       <r>   36.3440    0.0000 </r>
       <r>   36.6170    0.0000 </r>
       <r>   37.7444    0.0000 </r>
       <r>   40.4973    0.0000 </r>
       <r>   41.0535    0.0000 </r>
       <r>   44.3323    0.0000 </r>
       <r>   45.5125    0.0000 </r>
       <r>   46.8947    0.0000 </r>
       <r>   49.0200    0.0000 </r>
       <r>   50.5262    0.0000 </r>
       <r>   53.1439    0.0000 </r>
       <r>   53.7841    0.0000 </r>
       <r>   55.9666    0.0000 </r>
       <r>   56.4531    0.0000 </r>
       <r>   56.4947    0.0000 </r>
       <r>   58.2154    0.0000 </r>
       <r>   59.5355    0.0000 </r>
       <r>   61.2798    0.0000 </r>
       <r>   63.4271    0.0000 </r>
       <r>   64.4167    0.0000 </r>
       <r>   65.6751    0.0000 </r>
      </set>
      <set comment="kpoint 4">
       <r>    0.6221    1.0000 </r>
       <r>    2.9928    1.0000 </r>
       <r>    3.4016    1.0000 </r>
       <r>    4.4949    1.0000 </r>
       <r>    4.7750    1.0000 </r>
       <r>    5.5901    1.0000 </r>
       <r>    6.0160    1.0000 </r>
       <r>    6.2648    1.0001 </r>
       <r>    6.8283    0.6692 </r>
       <r>    6.9892    0.0801 </r>
       <r>    7.6837   -0.0000 </r>
       <r>   12.3856    0.0000 </r>
       <r>   14.1171    0.0000 </r>
       <r>   21.4539    0.0000 </r>
       <r>   26.9983    0.0000 </r>
       <r>   27.9372    0.0000 </r>
       <r>   28.7192    0.0000 </r>
       <r>   31.4623    0.0000 </r>
       <r>   33.6153    0.0000 </r>
       <r>   35.9309    0.0000 </r>
       <r>   36.9744    0.0000 </r>
       <r>   36.9993    0.0000 </r>
       <r>   37.9648    0.0000 </r>
       <r>   41.2494    0.0000 </r>
       <r>   48.0334    0.0000 </r>
       <r>   49.1621    0.0000 </r>
       <r>   50.4461    0.0000 </r>
       <r>   51.1160    0.0000 </r>
       <r>   51.3678    0.0000 </r>
       <r>   53.6980    0.0000 </r>
       <r>   54.7376    0.0000 </r>
       <r>   56.2644    0.0000 </r>
       <r>   57.6556    0.0000 </r>
       <r>   58.3154    0.0000 </r>
       <r>   59.3408    0.0000 </r>
       <r>   61.3850    0.0000 </r>
       <r>   62.7713    0.0000 </r>
       <r>   63.1939    0.0000 </r>
       <r>   65.2469    0.0000 </r>
       <r>   65.5187    0.0000 </r>
      </set>
      <set comment="kpoint 5">
       <r>    1.8189    1.0000 </r>
       <r>    2.7202    1.0000 </r>
       <r>    2.9052    1.0000 </r>
       <r>    4.6079    1.0000 </r>
       <r>    5.1402    1.0000 </r>
       <r>    5.2782    1.0000 </r>
       <r>    5.7727    1.0000 </r>
       <r>    7.5245   -0.0000 </r>
       <r>    7.6138   -0.0000 </r>
       <r>    7.6728   -0.0000 </r>
       <r>    7.7098   -0.0000 </r>
       <r>   14.2222    0.0000 </r>
       <r>   14.5757    0.0000 </r>
       <r>   18.3757    0.0000 </r>
       <r>   23.6302    0.0000 </r>
       <r>   25.7122    0.0000 </r>
       <r>   26.0878    0.0000 </r>
       <r>   30.8333    0.0000 </r>
       <r>   32.7080    0.0000 </r>
       <r>   35.8970    0.0000 </r>
       <r>   36.5446    0.0000 </r>
       <r>   37.7093    0.0000 </r>
       <r>   37.7567    0.0000 </r>
       <r>   41.2615    0.0000 </r>
       <r>   47.9249    0.0000 </r>
       <r>   49.8655    0.0000 </r>
       <r>   51.2853    0.0000 </r>
       <r>   54.3153    0.0000 </r>
       <r>   54.5361    0.0000 </r>
       <r>   54.7443    0.0000 </r>
       <r>   56.3008    0.0000 </r>
       <r>   58.3049    0.0000 </r>
       <r>   58.3843    0.0000 </r>
       <r>   59.9041    0.0000 </r>
       <r>   61.9499    0.0000 </r>
       <r>   63.0763    0.0000 </r>
       <r>   63.3828    0.0000 </r>
       <r>   64.4717    0.0000 </r>
       <r>   65.6907    0.0000 </r>
       <r>   66.8556    0.0000 </r>
      </set>
      <set comment="kpoint 6">
       <r>    2.2742    1.0000 </r>
       <r>    2.4741    1.0000 </r>
       <r>    2.6649    1.0000 </r>
       <r>    4.8758    1.0000 </r>
       <r>    5.1870    1.0000 </r>
       <r>    5.5214    1.0000 </r>
       <r>    5.6342    1.0000 </r>
       <r>    7.6594   -0.0000 </r>
       <r>    8.0998   -0.0000 </r>
       <r>    8.1927   -0.0000 </r>
       <r>    9.2329   -0.0000 </r>
       <r>   12.6389    0.0000 </r>
       <r>   16.6709    0.0000 </r>
       <r>   18.1425    0.0000 </r>
       <r>   20.9557    0.0000 </r>
       <r>   22.9207    0.0000 </r>
       <r>   25.0590    0.0000 </r>
       <r>   30.2545    0.0000 </r>
       <r>   32.4259    0.0000 </r>
       <r>   34.7509    0.0000 </r>
       <r>   36.2946    0.0000 </r>
       <r>   38.7319    0.0000 </r>
       <r>   40.2847    0.0000 </r>
       <r>   40.5465    0.0000 </r>
       <r>   44.5372    0.0000 </r>
       <r>   50.0949    0.0000 </r>
       <r>   51.9664    0.0000 </r>
       <r>   55.5791    0.0000 </r>
       <r>   57.1000    0.0000 </r>
       <r>   57.6891    0.0000 </r>
       <r>   58.3353    0.0000 </r>
       <r>   59.9155    0.0000 </r>
       <r>   60.4155    0.0000 </r>
       <r>   61.4701    0.0000 </r>
       <r>   62.5841    0.0000 </r>
       <r>   63.0908    0.0000 </r>
       <r>   65.1851    0.0000 </r>
       <r>   65.4022    0.0000 </r>
       <r>   66.4357    0.0000 </r>
       <r>   67.1983    0.0000 </r>
      </set>
      <set comment="kpoint 7">
       <r>   -1.0313    1.0000 </r>
       <r>    2.5394    1.0000 </r>
       <r>    4.4185    1.0000 </r>
       <r>    4.5072    1.0000 </r>
       <r>    5.1841    1.0000 </r>
       <r>    5.2219    1.0000 </r>
       <r>    5.9034    1.0000 </r>
       <r>    6.1117    1.0000 </r>
       <r>    6.1549    1.0000 </r>
       <r>    6.5068    1.0140 </r>
       <r>    7.6302   -0.0000 </r>
       <r>    9.8729   -0.0000 </r>
       <r>   13.8093    0.0000 </r>
       <r>   27.3055    0.0000 </r>
       <r>   28.5630    0.0000 </r>
       <r>   30.4768    0.0000 </r>
       <r>   32.4699    0.0000 </r>
       <r>   34.1560    0.0000 </r>
       <r>   34.3034    0.0000 </r>
       <r>   35.1835    0.0000 </r>
       <r>   35.7608    0.0000 </r>
       <r>   41.1949    0.0000 </r>
       <r>   41.2877    0.0000 </r>
       <r>   41.9130    0.0000 </r>
       <r>   43.0083    0.0000 </r>
       <r>   43.3801    0.0000 </r>
       <r>   43.7442    0.0000 </r>
       <r>   49.7076    0.0000 </r>
       <r>   51.4942    0.0000 </r>
       <r>   51.5004    0.0000 </r>
       <r>   51.7855    0.0000 </r>
       <r>   55.6750    0.0000 </r>
       <r>   56.6965    0.0000 </r>
       <r>   57.0703    0.0000 </r>
       <r>   58.3210    0.0000 </r>
       <r>   59.5249    0.0000 </r>
       <r>   60.9085    0.0000 </r>
       <r>   63.8473    0.0000 </r>
       <r>   64.2776    0.0000 </r>
       <r>   65.5717    0.0000 </r>
      </set>
      <set comment="kpoint 8">
       <r>    0.1451    1.0000 </r>
       <r>    3.1285    1.0000 </r>
       <r>    3.6760    1.0000 </r>
       <r>    4.2556    1.0000 </r>
       <r>    4.8805    1.0000 </r>
       <r>    5.6148    1.0000 </r>
       <r>    5.6458    1.0000 </r>
       <r>    6.2457    1.0000 </r>
       <r>    6.6204    1.0354 </r>
       <r>    6.8922    0.4037 </r>
       <r>    7.6092   -0.0000 </r>
       <r>   11.6764   -0.0000 </r>
       <r>   14.0436    0.0000 </r>
       <r>   23.5476    0.0000 </r>
       <r>   26.1953    0.0000 </r>
       <r>   28.8960    0.0000 </r>
       <r>   30.8923    0.0000 </r>
       <r>   31.5634    0.0000 </r>
       <r>   33.9222    0.0000 </r>
       <r>   34.4809    0.0000 </r>
       <r>   35.6766    0.0000 </r>
       <r>   39.8203    0.0000 </r>
       <r>   40.5784    0.0000 </r>
       <r>   41.8577    0.0000 </r>
       <r>   44.9097    0.0000 </r>
       <r>   45.8536    0.0000 </r>
       <r>   47.9768    0.0000 </r>
       <r>   51.4071    0.0000 </r>
       <r>   53.1173    0.0000 </r>
       <r>   54.0597    0.0000 </r>
       <r>   54.4681    0.0000 </r>
       <r>   56.3463    0.0000 </r>
       <r>   57.3803    0.0000 </r>
       <r>   57.4250    0.0000 </r>
       <r>   58.6484    0.0000 </r>
       <r>   59.1865    0.0000 </r>
       <r>   61.9077    0.0000 </r>
       <r>   64.2275    0.0000 </r>
       <r>   65.0452    0.0000 </r>
       <r>   66.0644    0.0000 </r>
      </set>
      <set comment="kpoint 9">
       <r>    1.5140    1.0000 </r>
       <r>    3.0653    1.0000 </r>
       <r>    3.1302    1.0000 </r>
       <r>    4.3445    1.0000 </r>
       <r>    4.9645    1.0000 </r>
       <r>    5.2333    1.0000 </r>
       <r>    5.8850    1.0000 </r>
       <r>    6.4179    1.0032 </r>
       <r>    7.3993   -0.0006 </r>
       <r>    7.5793   -0.0000 </r>
       <r>    7.8471   -0.0000 </r>
       <r>   13.7569    0.0000 </r>
       <r>   14.4764    0.0000 </r>
       <r>   19.7632    0.0000 </r>
       <r>   24.4861    0.0000 </r>
       <r>   25.3995    0.0000 </r>
       <r>   28.0885    0.0000 </r>
       <r>   29.9064    0.0000 </r>
       <r>   33.6914    0.0000 </r>
       <r>   35.0908    0.0000 </r>
       <r>   35.4436    0.0000 </r>
       <r>   39.1141    0.0000 </r>
       <r>   39.8381    0.0000 </r>
       <r>   42.8220    0.0000 </r>
       <r>   46.8117    0.0000 </r>
       <r>   49.3141    0.0000 </r>
       <r>   50.3466    0.0000 </r>
       <r>   50.3693    0.0000 </r>
       <r>   52.9549    0.0000 </r>
       <r>   54.8756    0.0000 </r>
       <r>   55.5981    0.0000 </r>
       <r>   58.0543    0.0000 </r>
       <r>   59.0653    0.0000 </r>
       <r>   59.5198    0.0000 </r>
       <r>   61.0172    0.0000 </r>
       <r>   62.9538    0.0000 </r>
       <r>   64.0975    0.0000 </r>
       <r>   64.6217    0.0000 </r>
       <r>   64.8574    0.0000 </r>
       <r>   65.7535    0.0000 </r>
      </set>
      <set comment="kpoint 10">
       <r>    2.3558    1.0000 </r>
       <r>    2.7459    1.0000 </r>
       <r>    2.8143    1.0000 </r>
       <r>    4.7503    1.0000 </r>
       <r>    4.9504    1.0000 </r>
       <r>    5.3833    1.0000 </r>
       <r>    5.5916    1.0000 </r>
       <r>    7.3868   -0.0008 </r>
       <r>    7.5500   -0.0000 </r>
       <r>    7.9246   -0.0000 </r>
       <r>    9.0525   -0.0000 </r>
       <r>   13.9969    0.0000 </r>
       <r>   15.9786    0.0000 </r>
       <r>   17.9942    0.0000 </r>
       <r>   22.3408    0.0000 </r>
       <r>   23.0923    0.0000 </r>
       <r>   24.8342    0.0000 </r>
       <r>   29.0459    0.0000 </r>
       <r>   32.7851    0.0000 </r>
       <r>   34.6275    0.0000 </r>
       <r>   37.1911    0.0000 </r>
       <r>   39.4159    0.0000 </r>
       <r>   40.2120    0.0000 </r>
       <r>   42.0133    0.0000 </r>
       <r>   46.5566    0.0000 </r>
       <r>   49.3944    0.0000 </r>
       <r>   50.6334    0.0000 </r>
       <r>   52.6969    0.0000 </r>
       <r>   54.3635    0.0000 </r>
       <r>   56.4246    0.0000 </r>
       <r>   57.9288    0.0000 </r>
       <r>   59.5940    0.0000 </r>
       <r>   60.4349    0.0000 </r>
       <r>   62.4457    0.0000 </r>
       <r>   62.5181    0.0000 </r>
       <r>   63.9052    0.0000 </r>
       <r>   64.1493    0.0000 </r>
       <r>   65.3862    0.0000 </r>
       <r>   65.9250    0.0000 </r>
       <r>   67.1747    0.0000 </r>
      </set>
      <set comment="kpoint 11">
       <r>    2.4958    1.0000 </r>
       <r>    2.6364    1.0000 </r>
       <r>    2.7126    1.0000 </r>
       <r>    4.8493    1.0000 </r>
       <r>    5.1937    1.0000 </r>
       <r>    5.4611    1.0000 </r>
       <r>    5.4791    1.0000 </r>
       <r>    7.5366   -0.0000 </r>
       <r>    7.9513   -0.0000 </r>
       <r>    7.9802   -0.0000 </r>
       <r>   10.2788   -0.0000 </r>
       <r>   12.4012    0.0000 </r>
       <r>   17.5058    0.0000 </r>
       <r>   18.5914    0.0000 </r>
       <r>   20.5302    0.0000 </r>
       <r>   21.9996    0.0000 </r>
       <r>   23.5631    0.0000 </r>
       <r>   28.7362    0.0000 </r>
       <r>   32.4023    0.0000 </r>
       <r>   34.4648    0.0000 </r>
       <r>   37.6257    0.0000 </r>
       <r>   40.1296    0.0000 </r>
       <r>   40.9500    0.0000 </r>
       <r>   41.6282    0.0000 </r>
       <r>   44.3293    0.0000 </r>
       <r>   50.5068    0.0000 </r>
       <r>   50.5585    0.0000 </r>
       <r>   53.0498    0.0000 </r>
       <r>   56.8718    0.0000 </r>
       <r>   57.1883    0.0000 </r>
       <r>   60.0307    0.0000 </r>
       <r>   60.5915    0.0000 </r>
       <r>   60.7430    0.0000 </r>
       <r>   60.7604    0.0000 </r>
       <r>   61.6270    0.0000 </r>
       <r>   64.1822    0.0000 </r>
       <r>   66.0732    0.0000 </r>
       <r>   66.1074    0.0000 </r>
       <r>   66.2947    0.0000 </r>
       <r>   67.2694    0.0000 </r>
      </set>
      <set comment="kpoint 12">
       <r>    1.4217    1.0000 </r>
       <r>    3.2652    1.0000 </r>
       <r>    3.6133    1.0000 </r>
       <r>    3.8060    1.0000 </r>
       <r>    4.9366    1.0000 </r>
       <r>    5.1935    1.0000 </r>
       <r>    5.8549    1.0000 </r>
       <r>    5.9962    1.0000 </r>
       <r>    7.3702   -0.0011 </r>
       <r>    7.4724   -0.0001 </r>
       <r>    7.9205   -0.0000 </r>
       <r>   13.5012    0.0000 </r>
       <r>   14.5852    0.0000 </r>
       <r>   21.5635    0.0000 </r>
       <r>   22.3065    0.0000 </r>
       <r>   27.0458    0.0000 </r>
       <r>   28.3077    0.0000 </r>
       <r>   30.4502    0.0000 </r>
       <r>   30.9861    0.0000 </r>
       <r>   34.8647    0.0000 </r>
       <r>   37.2545    0.0000 </r>
       <r>   41.0412    0.0000 </r>
       <r>   41.8162    0.0000 </r>
       <r>   43.9010    0.0000 </r>
       <r>   44.8307    0.0000 </r>
       <r>   46.6997    0.0000 </r>
       <r>   47.5367    0.0000 </r>
       <r>   51.5909    0.0000 </r>
       <r>   53.7581    0.0000 </r>
       <r>   53.9684    0.0000 </r>
       <r>   54.4028    0.0000 </r>
       <r>   58.4546    0.0000 </r>
       <r>   58.8958    0.0000 </r>
       <r>   61.6701    0.0000 </r>
       <r>   61.8043    0.0000 </r>
       <r>   61.8230    0.0000 </r>
       <r>   61.9390    0.0000 </r>
       <r>   64.9296    0.0000 </r>
       <r>   65.2761    0.0000 </r>
       <r>   66.3757    0.0000 </r>
      </set>
      <set comment="kpoint 13">
       <r>    2.6388    1.0000 </r>
       <r>    3.0224    1.0000 </r>
       <r>    3.3057    1.0000 </r>
       <r>    4.0413    1.0000 </r>
       <r>    4.9102    1.0000 </r>
       <r>    5.2319    1.0000 </r>
       <r>    5.5825    1.0000 </r>
       <r>    6.4491    1.0057 </r>
       <r>    7.3526   -0.0017 </r>
       <r>    7.8383   -0.0000 </r>
       <r>    9.2232   -0.0000 </r>
       <r>   15.3320    0.0000 </r>
       <r>   15.6490    0.0000 </r>
       <r>   18.5260    0.0000 </r>
       <r>   20.6773    0.0000 </r>
       <r>   24.2836    0.0000 </r>
       <r>   26.7414    0.0000 </r>
       <r>   26.8600    0.0000 </r>
       <r>   29.7175    0.0000 </r>
       <r>   37.1342    0.0000 </r>
       <r>   37.7430    0.0000 </r>
       <r>   40.9459    0.0000 </r>
       <r>   43.2775    0.0000 </r>
       <r>   44.8760    0.0000 </r>
       <r>   45.4493    0.0000 </r>
       <r>   47.6111    0.0000 </r>
       <r>   48.7223    0.0000 </r>
       <r>   49.6118    0.0000 </r>
       <r>   52.9588    0.0000 </r>
       <r>   54.0774    0.0000 </r>
       <r>   56.8558    0.0000 </r>
       <r>   59.8298    0.0000 </r>
       <r>   60.9046    0.0000 </r>
       <r>   62.1596    0.0000 </r>
       <r>   64.0772    0.0000 </r>
       <r>   64.1835    0.0000 </r>
       <r>   65.2503    0.0000 </r>
       <r>   65.3280    0.0000 </r>
       <r>   66.6658    0.0000 </r>
       <r>   67.4144    0.0000 </r>
      </set>
      <set comment="kpoint 14">
       <r>    2.9263    1.0000 </r>
       <r>    3.0002    1.0000 </r>
       <r>    3.1219    1.0000 </r>
       <r>    4.5656    1.0000 </r>
       <r>    4.8454    1.0000 </r>
       <r>    5.2143    1.0000 </r>
       <r>    5.5157    1.0000 </r>
       <r>    7.1880   -0.0233 </r>
       <r>    7.2866   -0.0060 </r>
       <r>    7.8079   -0.0000 </r>
       <r>   10.8490   -0.0000 </r>
       <r>   13.8701    0.0000 </r>
       <r>   17.8733    0.0000 </r>
       <r>   18.6571    0.0000 </r>
       <r>   19.7667    0.0000 </r>
       <r>   21.5633    0.0000 </r>
       <r>   23.8533    0.0000 </r>
       <r>   26.1673    0.0000 </r>
       <r>   29.0778    0.0000 </r>
       <r>   37.8417    0.0000 </r>
       <r>   39.4609    0.0000 </r>
       <r>   41.1219    0.0000 </r>
       <r>   42.3952    0.0000 </r>
       <r>   43.5410    0.0000 </r>
       <r>   47.0164    0.0000 </r>
       <r>   47.9317    0.0000 </r>
       <r>   49.4123    0.0000 </r>
       <r>   50.6992    0.0000 </r>
       <r>   54.1574    0.0000 </r>
       <r>   55.5982    0.0000 </r>
       <r>   56.5787    0.0000 </r>
       <r>   59.6297    0.0000 </r>
       <r>   60.3486    0.0000 </r>
       <r>   61.0566    0.0000 </r>
       <r>   64.9395    0.0000 </r>
       <r>   65.4698    0.0000 </r>
       <r>   66.4854    0.0000 </r>
       <r>   66.7584    0.0000 </r>
       <r>   66.9401    0.0000 </r>
       <r>   67.1811    0.0000 </r>
      </set>
      <set comment="kpoint 15">
       <r>    3.0748    1.0000 </r>
       <r>    3.4257    1.0000 </r>
       <r>    3.7239    1.0000 </r>
       <r>    3.7749    1.0000 </r>
       <r>    4.7521    1.0000 </r>
       <r>    5.1536    1.0000 </r>
       <r>    5.5349    1.0000 </r>
       <r>    6.7172    0.9792 </r>
       <r>    7.1555   -0.0306 </r>
       <r>    7.7645   -0.0000 </r>
       <r>   10.9900   -0.0000 </r>
       <r>   15.9602    0.0000 </r>
       <r>   16.6562    0.0000 </r>
       <r>   17.9057    0.0000 </r>
       <r>   19.2979    0.0000 </r>
       <r>   23.6247    0.0000 </r>
       <r>   23.6552    0.0000 </r>
       <r>   25.6280    0.0000 </r>
       <r>   26.4519    0.0000 </r>
       <r>   38.9402    0.0000 </r>
       <r>   39.7006    0.0000 </r>
       <r>   43.9882    0.0000 </r>
       <r>   44.8927    0.0000 </r>
       <r>   45.0249    0.0000 </r>
       <r>   45.1801    0.0000 </r>
       <r>   46.0526    0.0000 </r>
       <r>   48.4524    0.0000 </r>
       <r>   50.8735    0.0000 </r>
       <r>   51.1433    0.0000 </r>
       <r>   55.6506    0.0000 </r>
       <r>   55.8728    0.0000 </r>
       <r>   58.1412    0.0000 </r>
       <r>   60.2511    0.0000 </r>
       <r>   61.2155    0.0000 </r>
       <r>   65.2146    0.0000 </r>
       <r>   65.8345    0.0000 </r>
       <r>   66.0972    0.0000 </r>
       <r>   66.9615    0.0000 </r>
       <r>   67.0723    0.0000 </r>
       <r>   68.3777    0.0000 </r>
      </set>
      <set comment="kpoint 16">
       <r>    3.1360    1.0000 </r>
       <r>    3.5519    1.0000 </r>
       <r>    3.6235    1.0000 </r>
       <r>    4.1219    1.0000 </r>
       <r>    4.8205    1.0000 </r>
       <r>    4.8273    1.0000 </r>
       <r>    5.6763    1.0000 </r>
       <r>    7.0789   -0.0294 </r>
       <r>    7.1038   -0.0350 </r>
       <r>    7.4213   -0.0003 </r>
       <r>   12.7909    0.0000 </r>
       <r>   14.0593    0.0000 </r>
       <r>   16.2691    0.0000 </r>
       <r>   19.8815    0.0000 </r>
       <r>   20.2626    0.0000 </r>
       <r>   21.3750    0.0000 </r>
       <r>   23.4436    0.0000 </r>
       <r>   23.8729    0.0000 </r>
       <r>   25.8580    0.0000 </r>
       <r>   39.3201    0.0000 </r>
       <r>   42.3104    0.0000 </r>
       <r>   42.8935    0.0000 </r>
       <r>   44.0929    0.0000 </r>
       <r>   44.3369    0.0000 </r>
       <r>   45.9383    0.0000 </r>
       <r>   47.0766    0.0000 </r>
       <r>   50.3065    0.0000 </r>
       <r>   51.0339    0.0000 </r>
       <r>   51.2370    0.0000 </r>
       <r>   54.6237    0.0000 </r>
       <r>   55.8196    0.0000 </r>
       <r>   56.3804    0.0000 </r>
       <r>   59.6094    0.0000 </r>
       <r>   60.1207    0.0000 </r>
       <r>   65.3139    0.0000 </r>
       <r>   66.2879    0.0000 </r>
       <r>   67.0685    0.0000 </r>
       <r>   67.2558    0.0000 </r>
       <r>   67.7021    0.0000 </r>
       <r>   68.2029    0.0000 </r>
      </set>
      <set comment="kpoint 17">
       <r>   -1.9377    1.0000 </r>
       <r>    1.7833    1.0000 </r>
       <r>    4.4791    1.0000 </r>
       <r>    5.3020    1.0000 </r>
       <r>    5.3020    1.0000 </r>
       <r>    5.5607    1.0000 </r>
       <r>    5.5608    1.0000 </r>
       <r>    5.6691    1.0000 </r>
       <r>    6.7048    0.9955 </r>
       <r>    6.7049    0.9955 </r>
       <r>    7.6039   -0.0000 </r>
       <r>    7.6039   -0.0000 </r>
       <r>   14.0674    0.0000 </r>
       <r>   28.6838    0.0000 </r>
       <r>   30.7556    0.0000 </r>
       <r>   33.2930    0.0000 </r>
       <r>   36.0784    0.0000 </r>
       <r>   36.0784    0.0000 </r>
       <r>   36.5720    0.0000 </r>
       <r>   36.8433    0.0000 </r>
       <r>   36.8435    0.0000 </r>
       <r>   39.3645    0.0000 </r>
       <r>   39.3645    0.0000 </r>
       <r>   40.6354    0.0000 </r>
       <r>   42.5462    0.0000 </r>
       <r>   42.5462    0.0000 </r>
       <r>   43.3404    0.0000 </r>
       <r>   46.9364    0.0000 </r>
       <r>   46.9368    0.0000 </r>
       <r>   48.9266    0.0000 </r>
       <r>   48.9267    0.0000 </r>
       <r>   50.4214    0.0000 </r>
       <r>   57.3676    0.0000 </r>
       <r>   61.0525    0.0000 </r>
       <r>   61.0532    0.0000 </r>
       <r>   61.4223    0.0000 </r>
       <r>   61.4424    0.0000 </r>
       <r>   61.4427    0.0000 </r>
       <r>   62.2596    0.0000 </r>
       <r>   62.9257    0.0000 </r>
      </set>
      <set comment="kpoint 18">
       <r>   -1.6033    1.0000 </r>
       <r>    2.0467    1.0000 </r>
       <r>    4.5434    1.0000 </r>
       <r>    5.0051    1.0000 </r>
       <r>    5.1846    1.0000 </r>
       <r>    5.4698    1.0000 </r>
       <r>    5.4936    1.0000 </r>
       <r>    5.7438    1.0000 </r>
       <r>    6.5401    1.0210 </r>
       <r>    6.6010    1.0337 </r>
       <r>    7.6244   -0.0000 </r>
       <r>    8.4723   -0.0000 </r>
       <r>   14.1293    0.0000 </r>
       <r>   28.9676    0.0000 </r>
       <r>   29.5406    0.0000 </r>
       <r>   31.8492    0.0000 </r>
       <r>   33.2645    0.0000 </r>
       <r>   34.6816    0.0000 </r>
       <r>   35.9129    0.0000 </r>
       <r>   36.4382    0.0000 </r>
       <r>   38.4662    0.0000 </r>
       <r>   39.3103    0.0000 </r>
       <r>   39.8598    0.0000 </r>
       <r>   40.5947    0.0000 </r>
       <r>   43.7838    0.0000 </r>
       <r>   43.8283    0.0000 </r>
       <r>   44.8270    0.0000 </r>
       <r>   45.0334    0.0000 </r>
       <r>   47.7186    0.0000 </r>
       <r>   49.9925    0.0000 </r>
       <r>   51.2338    0.0000 </r>
       <r>   52.6205    0.0000 </r>
       <r>   56.2171    0.0000 </r>
       <r>   59.2757    0.0000 </r>
       <r>   59.8918    0.0000 </r>
       <r>   60.5230    0.0000 </r>
       <r>   61.2590    0.0000 </r>
       <r>   62.4273    0.0000 </r>
       <r>   62.7516    0.0000 </r>
       <r>   64.2809    0.0000 </r>
      </set>
      <set comment="kpoint 19">
       <r>   -0.6592    1.0000 </r>
       <r>    2.6737    1.0000 </r>
       <r>    4.0942    1.0000 </r>
       <r>    4.5024    1.0000 </r>
       <r>    4.9404    1.0000 </r>
       <r>    5.4619    1.0000 </r>
       <r>    6.0220    1.0000 </r>
       <r>    6.1865    1.0000 </r>
       <r>    6.2360    1.0000 </r>
       <r>    6.3917    1.0019 </r>
       <r>    7.6560   -0.0000 </r>
       <r>   10.0219   -0.0000 </r>
       <r>   14.3769    0.0000 </r>
       <r>   25.5848    0.0000 </r>
       <r>   29.6813    0.0000 </r>
       <r>   30.4553    0.0000 </r>
       <r>   30.5708    0.0000 </r>
       <r>   31.2330    0.0000 </r>
       <r>   35.0151    0.0000 </r>
       <r>   36.7613    0.0000 </r>
       <r>   37.0436    0.0000 </r>
       <r>   37.2712    0.0000 </r>
       <r>   40.8980    0.0000 </r>
       <r>   41.5004    0.0000 </r>
       <r>   44.5376    0.0000 </r>
       <r>   45.4209    0.0000 </r>
       <r>   46.6913    0.0000 </r>
       <r>   49.0240    0.0000 </r>
       <r>   50.2976    0.0000 </r>
       <r>   53.1882    0.0000 </r>
       <r>   54.0817    0.0000 </r>
       <r>   54.7463    0.0000 </r>
       <r>   55.8934    0.0000 </r>
       <r>   57.6049    0.0000 </r>
       <r>   57.8665    0.0000 </r>
       <r>   59.7450    0.0000 </r>
       <r>   61.4030    0.0000 </r>
       <r>   63.3383    0.0000 </r>
       <r>   63.5121    0.0000 </r>
       <r>   65.8938    0.0000 </r>
      </set>
      <set comment="kpoint 20">
       <r>    0.6693    1.0000 </r>
       <r>    2.9765    1.0000 </r>
       <r>    3.3902    1.0000 </r>
       <r>    4.4879    1.0000 </r>
       <r>    4.7530    1.0000 </r>
       <r>    5.5981    1.0000 </r>
       <r>    6.0352    1.0000 </r>
       <r>    6.3081    1.0003 </r>
       <r>    6.8356    0.6403 </r>
       <r>    6.9777    0.1076 </r>
       <r>    7.6641   -0.0000 </r>
       <r>   11.6777   -0.0000 </r>
       <r>   14.9560    0.0000 </r>
       <r>   21.5153    0.0000 </r>
       <r>   26.5923    0.0000 </r>
       <r>   28.0377    0.0000 </r>
       <r>   28.9979    0.0000 </r>
       <r>   31.1364    0.0000 </r>
       <r>   33.4444    0.0000 </r>
       <r>   35.4143    0.0000 </r>
       <r>   36.0318    0.0000 </r>
       <r>   37.9186    0.0000 </r>
       <r>   38.9587    0.0000 </r>
       <r>   41.7674    0.0000 </r>
       <r>   48.1180    0.0000 </r>
       <r>   48.5258    0.0000 </r>
       <r>   49.7090    0.0000 </r>
       <r>   50.0730    0.0000 </r>
       <r>   53.0009    0.0000 </r>
       <r>   53.8312    0.0000 </r>
       <r>   54.9806    0.0000 </r>
       <r>   56.4140    0.0000 </r>
       <r>   56.9162    0.0000 </r>
       <r>   58.0191    0.0000 </r>
       <r>   59.8478    0.0000 </r>
       <r>   61.0216    0.0000 </r>
       <r>   63.1008    0.0000 </r>
       <r>   63.5819    0.0000 </r>
       <r>   64.1273    0.0000 </r>
       <r>   66.6187    0.0000 </r>
      </set>
      <set comment="kpoint 21">
       <r>    1.8118    1.0000 </r>
       <r>    2.6770    1.0000 </r>
       <r>    2.9925    1.0000 </r>
       <r>    4.3994    1.0000 </r>
       <r>    5.2433    1.0000 </r>
       <r>    5.4525    1.0000 </r>
       <r>    5.8028    1.0000 </r>
       <r>    7.4896   -0.0001 </r>
       <r>    7.5731   -0.0000 </r>
       <r>    7.6247   -0.0000 </r>
       <r>    7.7567   -0.0000 </r>
       <r>   13.0463    0.0000 </r>
       <r>   15.7848    0.0000 </r>
       <r>   18.4611    0.0000 </r>
       <r>   23.2612    0.0000 </r>
       <r>   26.1222    0.0000 </r>
       <r>   26.2015    0.0000 </r>
       <r>   30.7755    0.0000 </r>
       <r>   32.6584    0.0000 </r>
       <r>   34.7433    0.0000 </r>
       <r>   36.0479    0.0000 </r>
       <r>   37.7226    0.0000 </r>
       <r>   39.1815    0.0000 </r>
       <r>   41.7545    0.0000 </r>
       <r>   46.8267    0.0000 </r>
       <r>   50.9987    0.0000 </r>
       <r>   51.0738    0.0000 </r>
       <r>   53.5384    0.0000 </r>
       <r>   53.7466    0.0000 </r>
       <r>   55.8800    0.0000 </r>
       <r>   56.2965    0.0000 </r>
       <r>   58.0617    0.0000 </r>
       <r>   58.9913    0.0000 </r>
       <r>   59.7404    0.0000 </r>
       <r>   62.0178    0.0000 </r>
       <r>   63.2805    0.0000 </r>
       <r>   63.4735    0.0000 </r>
       <r>   63.8332    0.0000 </r>
       <r>   66.4537    0.0000 </r>
       <r>   66.8551    0.0000 </r>
      </set>
      <set comment="kpoint 22">
       <r>    2.2088    1.0000 </r>
       <r>    2.3873    1.0000 </r>
       <r>    2.8647    1.0000 </r>
       <r>    4.4609    1.0000 </r>
       <r>    5.4053    1.0000 </r>
       <r>    5.6692    1.0000 </r>
       <r>    5.8153    1.0000 </r>
       <r>    7.6097   -0.0000 </r>
       <r>    8.1031   -0.0000 </r>
       <r>    8.1929   -0.0000 </r>
       <r>    9.1464   -0.0000 </r>
       <r>   12.4452    0.0000 </r>
       <r>   16.5810    0.0000 </r>
       <r>   18.1973    0.0000 </r>
       <r>   21.0241    0.0000 </r>
       <r>   23.2952    0.0000 </r>
       <r>   25.1788    0.0000 </r>
       <r>   30.2506    0.0000 </r>
       <r>   32.4086    0.0000 </r>
       <r>   33.8727    0.0000 </r>
       <r>   37.2218    0.0000 </r>
       <r>   37.6763    0.0000 </r>
       <r>   39.3763    0.0000 </r>
       <r>   42.2158    0.0000 </r>
       <r>   44.5203    0.0000 </r>
       <r>   50.7879    0.0000 </r>
       <r>   51.4271    0.0000 </r>
       <r>   54.5323    0.0000 </r>
       <r>   56.9690    0.0000 </r>
       <r>   58.0804    0.0000 </r>
       <r>   59.0739    0.0000 </r>
       <r>   60.1207    0.0000 </r>
       <r>   60.2506    0.0000 </r>
       <r>   61.5098    0.0000 </r>
       <r>   62.8073    0.0000 </r>
       <r>   63.3168    0.0000 </r>
       <r>   64.9381    0.0000 </r>
       <r>   65.9124    0.0000 </r>
       <r>   66.4651    0.0000 </r>
       <r>   66.7896    0.0000 </r>
      </set>
      <set comment="kpoint 23">
       <r>   -0.9611    1.0000 </r>
       <r>    2.5123    1.0000 </r>
       <r>    4.3334    1.0000 </r>
       <r>    4.5149    1.0000 </r>
       <r>    5.1187    1.0000 </r>
       <r>    5.2381    1.0000 </r>
       <r>    5.8854    1.0000 </r>
       <r>    6.0950    1.0000 </r>
       <r>    6.2351    1.0000 </r>
       <r>    6.5430    1.0216 </r>
       <r>    7.6167   -0.0000 </r>
       <r>    9.5949   -0.0000 </r>
       <r>   14.2888    0.0000 </r>
       <r>   27.3450    0.0000 </r>
       <r>   28.6163    0.0000 </r>
       <r>   29.7655    0.0000 </r>
       <r>   32.0769    0.0000 </r>
       <r>   34.2681    0.0000 </r>
       <r>   34.6900    0.0000 </r>
       <r>   34.7301    0.0000 </r>
       <r>   36.5631    0.0000 </r>
       <r>   41.1723    0.0000 </r>
       <r>   41.2436    0.0000 </r>
       <r>   42.3025    0.0000 </r>
       <r>   42.3884    0.0000 </r>
       <r>   43.8735    0.0000 </r>
       <r>   44.2129    0.0000 </r>
       <r>   49.5260    0.0000 </r>
       <r>   50.9429    0.0000 </r>
       <r>   51.9299    0.0000 </r>
       <r>   52.1519    0.0000 </r>
       <r>   54.9403    0.0000 </r>
       <r>   55.3811    0.0000 </r>
       <r>   57.7551    0.0000 </r>
       <r>   58.7206    0.0000 </r>
       <r>   60.1559    0.0000 </r>
       <r>   60.8036    0.0000 </r>
       <r>   62.5172    0.0000 </r>
       <r>   63.9266    0.0000 </r>
       <r>   65.9700    0.0000 </r>
      </set>
      <set comment="kpoint 24">
       <r>    0.2030    1.0000 </r>
       <r>    3.1154    1.0000 </r>
       <r>    3.6329    1.0000 </r>
       <r>    4.2752    1.0000 </r>
       <r>    4.8582    1.0000 </r>
       <r>    5.4135    1.0000 </r>
       <r>    5.8818    1.0000 </r>
       <r>    6.2166    1.0000 </r>
       <r>    6.6682    1.0257 </r>
       <r>    6.8750    0.4759 </r>
       <r>    7.5942   -0.0000 </r>
       <r>   11.1330   -0.0000 </r>
       <r>   14.7374    0.0000 </r>
       <r>   23.6070    0.0000 </r>
       <r>   26.2529    0.0000 </r>
       <r>   28.5740    0.0000 </r>
       <r>   30.3233    0.0000 </r>
       <r>   31.9201    0.0000 </r>
       <r>   33.0564    0.0000 </r>
       <r>   35.0253    0.0000 </r>
       <r>   36.1340    0.0000 </r>
       <r>   40.0613    0.0000 </r>
       <r>   40.4180    0.0000 </r>
       <r>   42.4154    0.0000 </r>
       <r>   44.8058    0.0000 </r>
       <r>   45.7547    0.0000 </r>
       <r>   48.1559    0.0000 </r>
       <r>   50.6145    0.0000 </r>
       <r>   53.0450    0.0000 </r>
       <r>   53.6556    0.0000 </r>
       <r>   55.1235    0.0000 </r>
       <r>   56.3860    0.0000 </r>
       <r>   56.6129    0.0000 </r>
       <r>   58.1364    0.0000 </r>
       <r>   58.2933    0.0000 </r>
       <r>   59.8052    0.0000 </r>
       <r>   61.9641    0.0000 </r>
       <r>   63.4277    0.0000 </r>
       <r>   64.4731    0.0000 </r>
       <r>   65.9768    0.0000 </r>
      </set>
      <set comment="kpoint 25">
       <r>    1.5375    1.0000 </r>
       <r>    3.0179    1.0000 </r>
       <r>    3.1786    1.0000 </r>
       <r>    4.3137    1.0000 </r>
       <r>    4.9266    1.0000 </r>
       <r>    5.3297    1.0000 </r>
       <r>    5.8947    1.0000 </r>
       <r>    6.4354    1.0045 </r>
       <r>    7.4116   -0.0004 </r>
       <r>    7.5109   -0.0000 </r>
       <r>    7.8768   -0.0000 </r>
       <r>   12.7166    0.0000 </r>
       <r>   15.6215    0.0000 </r>
       <r>   19.8265    0.0000 </r>
       <r>   24.4867    0.0000 </r>
       <r>   25.1490    0.0000 </r>
       <r>   28.3927    0.0000 </r>
       <r>   29.6946    0.0000 </r>
       <r>   33.6724    0.0000 </r>
       <r>   34.3445    0.0000 </r>
       <r>   35.6477    0.0000 </r>
       <r>   39.3720    0.0000 </r>
       <r>   40.2468    0.0000 </r>
       <r>   43.2946    0.0000 </r>
       <r>   46.4309    0.0000 </r>
       <r>   48.0589    0.0000 </r>
       <r>   50.0812    0.0000 </r>
       <r>   51.7760    0.0000 </r>
       <r>   53.1513    0.0000 </r>
       <r>   54.3350    0.0000 </r>
       <r>   56.0627    0.0000 </r>
       <r>   58.0610    0.0000 </r>
       <r>   58.7266    0.0000 </r>
       <r>   59.8752    0.0000 </r>
       <r>   61.2264    0.0000 </r>
       <r>   62.7200    0.0000 </r>
       <r>   63.4934    0.0000 </r>
       <r>   64.3867    0.0000 </r>
       <r>   65.2427    0.0000 </r>
       <r>   65.9411    0.0000 </r>
      </set>
      <set comment="kpoint 26">
       <r>    2.2952    1.0000 </r>
       <r>    2.6755    1.0000 </r>
       <r>    2.9896    1.0000 </r>
       <r>    4.3949    1.0000 </r>
       <r>    5.3044    1.0000 </r>
       <r>    5.3819    1.0000 </r>
       <r>    5.6795    1.0000 </r>
       <r>    7.3738   -0.0010 </r>
       <r>    7.4931   -0.0000 </r>
       <r>    7.9351   -0.0000 </r>
       <r>    9.0365   -0.0000 </r>
       <r>   13.4892    0.0000 </r>
       <r>   16.2921    0.0000 </r>
       <r>   18.2350    0.0000 </r>
       <r>   21.9899    0.0000 </r>
       <r>   23.3362    0.0000 </r>
       <r>   25.1871    0.0000 </r>
       <r>   28.8248    0.0000 </r>
       <r>   33.0096    0.0000 </r>
       <r>   34.4852    0.0000 </r>
       <r>   36.3556    0.0000 </r>
       <r>   38.8338    0.0000 </r>
       <r>   41.2676    0.0000 </r>
       <r>   42.4061    0.0000 </r>
       <r>   46.1616    0.0000 </r>
       <r>   49.1232    0.0000 </r>
       <r>   50.8176    0.0000 </r>
       <r>   53.0611    0.0000 </r>
       <r>   54.8659    0.0000 </r>
       <r>   56.1309    0.0000 </r>
       <r>   57.7689    0.0000 </r>
       <r>   59.4341    0.0000 </r>
       <r>   60.4170    0.0000 </r>
       <r>   62.0964    0.0000 </r>
       <r>   63.1729    0.0000 </r>
       <r>   63.9741    0.0000 </r>
       <r>   64.0801    0.0000 </r>
       <r>   64.9667    0.0000 </r>
       <r>   66.1480    0.0000 </r>
       <r>   67.3288    0.0000 </r>
      </set>
      <set comment="kpoint 27">
       <r>    2.4184    1.0000 </r>
       <r>    2.5070    1.0000 </r>
       <r>    2.9755    1.0000 </r>
       <r>    4.4522    1.0000 </r>
       <r>    5.3393    1.0000 </r>
       <r>    5.6295    1.0000 </r>
       <r>    5.6531    1.0000 </r>
       <r>    7.4808   -0.0001 </r>
       <r>    7.9467   -0.0000 </r>
       <r>    7.9787   -0.0000 </r>
       <r>   10.2192   -0.0000 </r>
       <r>   12.3205   -0.0000 </r>
       <r>   17.3731    0.0000 </r>
       <r>   18.2144    0.0000 </r>
       <r>   21.0601    0.0000 </r>
       <r>   22.2390    0.0000 </r>
       <r>   23.7315    0.0000 </r>
       <r>   28.5170    0.0000 </r>
       <r>   32.6178    0.0000 </r>
       <r>   34.4148    0.0000 </r>
       <r>   37.2098    0.0000 </r>
       <r>   38.5370    0.0000 </r>
       <r>   41.1815    0.0000 </r>
       <r>   43.4281    0.0000 </r>
       <r>   44.1746    0.0000 </r>
       <r>   49.5019    0.0000 </r>
       <r>   51.1440    0.0000 </r>
       <r>   53.7795    0.0000 </r>
       <r>   56.9206    0.0000 </r>
       <r>   57.1623    0.0000 </r>
       <r>   59.6022    0.0000 </r>
       <r>   59.9471    0.0000 </r>
       <r>   60.4914    0.0000 </r>
       <r>   61.3964    0.0000 </r>
       <r>   61.7828    0.0000 </r>
       <r>   64.8839    0.0000 </r>
       <r>   65.8117    0.0000 </r>
       <r>   66.1708    0.0000 </r>
       <r>   66.5872    0.0000 </r>
       <r>   67.0441    0.0000 </r>
      </set>
      <set comment="kpoint 28">
       <r>    1.4576    1.0000 </r>
       <r>    3.2228    1.0000 </r>
       <r>    3.6412    1.0000 </r>
       <r>    3.8241    1.0000 </r>
       <r>    4.9331    1.0000 </r>
       <r>    5.1321    1.0000 </r>
       <r>    5.9540    1.0000 </r>
       <r>    5.9765    1.0000 </r>
       <r>    7.3987   -0.0006 </r>
       <r>    7.4030   -0.0005 </r>
       <r>    7.9504   -0.0000 </r>
       <r>   12.6014    0.0000 </r>
       <r>   15.6043    0.0000 </r>
       <r>   21.6308    0.0000 </r>
       <r>   22.3799    0.0000 </r>
       <r>   26.7358    0.0000 </r>
       <r>   27.9129    0.0000 </r>
       <r>   30.8717    0.0000 </r>
       <r>   31.1616    0.0000 </r>
       <r>   34.0465    0.0000 </r>
       <r>   37.9148    0.0000 </r>
       <r>   41.5731    0.0000 </r>
       <r>   41.7693    0.0000 </r>
       <r>   43.6429    0.0000 </r>
       <r>   44.1592    0.0000 </r>
       <r>   47.3748    0.0000 </r>
       <r>   47.3777    0.0000 </r>
       <r>   51.6108    0.0000 </r>
       <r>   52.3648    0.0000 </r>
       <r>   54.2005    0.0000 </r>
       <r>   56.0333    0.0000 </r>
       <r>   58.5413    0.0000 </r>
       <r>   58.8927    0.0000 </r>
       <r>   60.7754    0.0000 </r>
       <r>   61.1576    0.0000 </r>
       <r>   62.5754    0.0000 </r>
       <r>   62.7023    0.0000 </r>
       <r>   64.2040    0.0000 </r>
       <r>   65.1141    0.0000 </r>
       <r>   65.1598    0.0000 </r>
      </set>
      <set comment="kpoint 29">
       <r>    2.6109    1.0000 </r>
       <r>    3.0360    1.0000 </r>
       <r>    3.3299    1.0000 </r>
       <r>    4.0376    1.0000 </r>
       <r>    4.9293    1.0000 </r>
       <r>    5.2278    1.0000 </r>
       <r>    5.6049    1.0000 </r>
       <r>    6.4809    1.0096 </r>
       <r>    7.2924   -0.0054 </r>
       <r>    7.8643   -0.0000 </r>
       <r>    9.2378   -0.0000 </r>
       <r>   14.1785    0.0000 </r>
       <r>   16.8334    0.0000 </r>
       <r>   18.6414    0.0000 </r>
       <r>   20.7455    0.0000 </r>
       <r>   23.9347    0.0000 </r>
       <r>   26.3727    0.0000 </r>
       <r>   27.3215    0.0000 </r>
       <r>   30.1421    0.0000 </r>
       <r>   35.6419    0.0000 </r>
       <r>   38.6445    0.0000 </r>
       <r>   41.3279    0.0000 </r>
       <r>   42.7886    0.0000 </r>
       <r>   45.0175    0.0000 </r>
       <r>   45.4499    0.0000 </r>
       <r>   46.7144    0.0000 </r>
       <r>   49.7296    0.0000 </r>
       <r>   49.8679    0.0000 </r>
       <r>   52.6071    0.0000 </r>
       <r>   54.8388    0.0000 </r>
       <r>   57.0049    0.0000 </r>
       <r>   59.8659    0.0000 </r>
       <r>   60.8367    0.0000 </r>
       <r>   62.1037    0.0000 </r>
       <r>   63.8627    0.0000 </r>
       <r>   64.3241    0.0000 </r>
       <r>   64.3950    0.0000 </r>
       <r>   65.6425    0.0000 </r>
       <r>   66.1249    0.0000 </r>
       <r>   66.8578    0.0000 </r>
      </set>
      <set comment="kpoint 30">
       <r>    2.7893    1.0000 </r>
       <r>    3.0288    1.0000 </r>
       <r>    3.2931    1.0000 </r>
       <r>    4.3149    1.0000 </r>
       <r>    5.0406    1.0000 </r>
       <r>    5.1523    1.0000 </r>
       <r>    5.6392    1.0000 </r>
       <r>    7.1944   -0.0219 </r>
       <r>    7.2228   -0.0157 </r>
       <r>    7.8232   -0.0000 </r>
       <r>   10.8621   -0.0000 </r>
       <r>   13.7644    0.0000 </r>
       <r>   17.4258    0.0000 </r>
       <r>   19.0575    0.0000 </r>
       <r>   19.7180    0.0000 </r>
       <r>   21.6778    0.0000 </r>
       <r>   24.2627    0.0000 </r>
       <r>   25.7817    0.0000 </r>
       <r>   29.5589    0.0000 </r>
       <r>   37.0899    0.0000 </r>
       <r>   38.9473    0.0000 </r>
       <r>   40.4594    0.0000 </r>
       <r>   43.2084    0.0000 </r>
       <r>   44.2971    0.0000 </r>
       <r>   46.7800    0.0000 </r>
       <r>   46.9374    0.0000 </r>
       <r>   50.2291    0.0000 </r>
       <r>   51.4804    0.0000 </r>
       <r>   54.4256    0.0000 </r>
       <r>   55.3993    0.0000 </r>
       <r>   56.6660    0.0000 </r>
       <r>   59.6609    0.0000 </r>
       <r>   59.9988    0.0000 </r>
       <r>   61.3917    0.0000 </r>
       <r>   64.0245    0.0000 </r>
       <r>   65.3893    0.0000 </r>
       <r>   66.1171    0.0000 </r>
       <r>   66.6103    0.0000 </r>
       <r>   66.9316    0.0000 </r>
       <r>   67.3638    0.0000 </r>
      </set>
      <set comment="kpoint 31">
       <r>    3.0654    1.0000 </r>
       <r>    3.4353    1.0000 </r>
       <r>    3.6779    1.0000 </r>
       <r>    3.8247    1.0000 </r>
       <r>    4.8033    1.0000 </r>
       <r>    5.0757    1.0000 </r>
       <r>    5.5725    1.0000 </r>
       <r>    6.7568    0.9023 </r>
       <r>    7.0897   -0.0327 </r>
       <r>    7.7883   -0.0000 </r>
       <r>   11.0250   -0.0000 </r>
       <r>   15.5535    0.0000 </r>
       <r>   16.7250    0.0000 </r>
       <r>   17.9840    0.0000 </r>
       <r>   19.6712    0.0000 </r>
       <r>   23.2248    0.0000 </r>
       <r>   23.3084    0.0000 </r>
       <r>   26.2137    0.0000 </r>
       <r>   26.9324    0.0000 </r>
       <r>   37.3568    0.0000 </r>
       <r>   40.6114    0.0000 </r>
       <r>   43.2128    0.0000 </r>
       <r>   43.4072    0.0000 </r>
       <r>   45.5989    0.0000 </r>
       <r>   45.8950    0.0000 </r>
       <r>   46.9031    0.0000 </r>
       <r>   49.2765    0.0000 </r>
       <r>   50.7789    0.0000 </r>
       <r>   51.0876    0.0000 </r>
       <r>   55.9822    0.0000 </r>
       <r>   56.0119    0.0000 </r>
       <r>   58.2799    0.0000 </r>
       <r>   59.8657    0.0000 </r>
       <r>   61.5364    0.0000 </r>
       <r>   65.1750    0.0000 </r>
       <r>   65.7018    0.0000 </r>
       <r>   65.9586    0.0000 </r>
       <r>   66.9579    0.0000 </r>
       <r>   67.1991    0.0000 </r>
       <r>   67.7875    0.0000 </r>
      </set>
      <set comment="kpoint 32">
       <r>    3.1321    1.0000 </r>
       <r>    3.5702    1.0000 </r>
       <r>    3.6649    1.0000 </r>
       <r>    4.0657    1.0000 </r>
       <r>    4.7924    1.0000 </r>
       <r>    4.8390    1.0000 </r>
       <r>    5.6997    1.0000 </r>
       <r>    7.0113    0.0366 </r>
       <r>    7.1333   -0.0342 </r>
       <r>    7.4499   -0.0002 </r>
       <r>   12.8561    0.0000 </r>
       <r>   14.0527    0.0000 </r>
       <r>   16.2716    0.0000 </r>
       <r>   19.6337    0.0000 </r>
       <r>   19.6791    0.0000 </r>
       <r>   21.8410    0.0000 </r>
       <r>   23.2959    0.0000 </r>
       <r>   24.2723    0.0000 </r>
       <r>   26.3892    0.0000 </r>
       <r>   38.3122    0.0000 </r>
       <r>   40.9786    0.0000 </r>
       <r>   42.9849    0.0000 </r>
       <r>   43.5335    0.0000 </r>
       <r>   45.6242    0.0000 </r>
       <r>   46.3275    0.0000 </r>
       <r>   48.1695    0.0000 </r>
       <r>   50.0253    0.0000 </r>
       <r>   51.2624    0.0000 </r>
       <r>   51.5015    0.0000 </r>
       <r>   54.4087    0.0000 </r>
       <r>   55.6203    0.0000 </r>
       <r>   56.6630    0.0000 </r>
       <r>   59.7628    0.0000 </r>
       <r>   60.2268    0.0000 </r>
       <r>   65.2033    0.0000 </r>
       <r>   66.2170    0.0000 </r>
       <r>   66.8264    0.0000 </r>
       <r>   67.2769    0.0000 </r>
       <r>   67.5381    0.0000 </r>
       <r>   68.2449    0.0000 </r>
      </set>
      <set comment="kpoint 33">
       <r>   -1.7125    1.0000 </r>
       <r>    1.6475    1.0000 </r>
       <r>    4.4273    1.0000 </r>
       <r>    5.2074    1.0000 </r>
       <r>    5.2915    1.0000 </r>
       <r>    5.2916    1.0000 </r>
       <r>    5.5235    1.0000 </r>
       <r>    5.5236    1.0000 </r>
       <r>    6.7888    0.8119 </r>
       <r>    6.7888    0.8118 </r>
       <r>    7.5723   -0.0000 </r>
       <r>    7.5723   -0.0000 </r>
       <r>   15.0312    0.0000 </r>
       <r>   27.1951    0.0000 </r>
       <r>   30.8368    0.0000 </r>
       <r>   32.9088    0.0000 </r>
       <r>   36.2155    0.0000 </r>
       <r>   36.2155    0.0000 </r>
       <r>   36.8691    0.0000 </r>
       <r>   36.8693    0.0000 </r>
       <r>   37.8880    0.0000 </r>
[...]
       <r>   21.7879    0.0000 </r>
       <r>   22.4937    0.0000 </r>
       <r>   26.1871    0.0000 </r>
       <r>   27.2416    0.0000 </r>
       <r>   31.8466    0.0000 </r>
       <r>   32.8731    0.0000 </r>
       <r>   35.4204    0.0000 </r>
       <r>   36.9337    0.0000 </r>
       <r>   42.1089    0.0000 </r>
       <r>   42.4967    0.0000 </r>
       <r>   51.5093    0.0000 </r>
       <r>   52.3293    0.0000 </r>
       <r>   52.5508    0.0000 </r>
       <r>   53.7488    0.0000 </r>
       <r>   55.6713    0.0000 </r>
       <r>   56.9500    0.0000 </r>
       <r>   57.2190    0.0000 </r>
       <r>   57.8798    0.0000 </r>
       <r>   59.9964    0.0000 </r>
       <r>   60.6751    0.0000 </r>
       <r>   62.3876    0.0000 </r>
       <r>   63.3588    0.0000 </r>
       <r>   64.9680    0.0000 </r>
       <r>   65.1083    0.0000 </r>
       <r>   65.8849    0.0000 </r>
       <r>   66.2498    0.0000 </r>
      </set>
      <set comment="kpoint 95">
       <r>    3.0669    1.0000 </r>
       <r>    3.1230    1.0000 </r>
       <r>    4.0011    1.0000 </r>
       <r>    4.2046    1.0000 </r>
       <r>    4.6206    1.0000 </r>
       <r>    4.8085    1.0000 </r>
       <r>    5.9550    1.0000 </r>
       <r>    6.1443    1.0000 </r>
       <r>    7.6157   -0.0000 </r>
       <r>    7.8029   -0.0000 </r>
       <r>   11.8746   -0.0000 </r>
       <r>   12.3715    0.0000 </r>
       <r>   18.1419    0.0000 </r>
       <r>   18.5447    0.0000 </r>
       <r>   19.8645    0.0000 </r>
       <r>   20.2469    0.0000 </r>
       <r>   26.3491    0.0000 </r>
       <r>   27.8763    0.0000 </r>
       <r>   31.9784    0.0000 </r>
       <r>   33.2789    0.0000 </r>
       <r>   35.0491    0.0000 </r>
       <r>   36.0914    0.0000 </r>
       <r>   44.7084    0.0000 </r>
       <r>   45.1260    0.0000 </r>
       <r>   48.6974    0.0000 </r>
       <r>   48.7915    0.0000 </r>
       <r>   53.8858    0.0000 </r>
       <r>   55.6787    0.0000 </r>
       <r>   56.0957    0.0000 </r>
       <r>   56.4826    0.0000 </r>
       <r>   58.4568    0.0000 </r>
       <r>   58.4796    0.0000 </r>
       <r>   59.2700    0.0000 </r>
       <r>   59.4280    0.0000 </r>
       <r>   60.8348    0.0000 </r>
       <r>   61.5067    0.0000 </r>
       <r>   64.7069    0.0000 </r>
       <r>   65.0886    0.0000 </r>
       <r>   66.0798    0.0000 </r>
       <r>   66.1604    0.0000 </r>
      </set>
      <set comment="kpoint 96">
       <r>    3.2788    1.0000 </r>
       <r>    3.4007    1.0000 </r>
       <r>    3.9621    1.0000 </r>
       <r>    4.0621    1.0000 </r>
       <r>    4.5903    1.0000 </r>
       <r>    4.7257    1.0000 </r>
       <r>    5.9912    1.0000 </r>
       <r>    6.1332    1.0000 </r>
       <r>    7.6015   -0.0000 </r>
       <r>    7.6680   -0.0000 </r>
       <r>   13.7261    0.0000 </r>
       <r>   13.8648    0.0000 </r>
       <r>   16.4185    0.0000 </r>
       <r>   16.7248    0.0000 </r>
       <r>   19.2122    0.0000 </r>
       <r>   19.6480    0.0000 </r>
       <r>   28.0955    0.0000 </r>
       <r>   28.7444    0.0000 </r>
       <r>   30.9600    0.0000 </r>
       <r>   31.3001    0.0000 </r>
       <r>   34.7343    0.0000 </r>
       <r>   35.5297    0.0000 </r>
       <r>   45.8330    0.0000 </r>
       <r>   46.4480    0.0000 </r>
       <r>   50.5744    0.0000 </r>
       <r>   51.0328    0.0000 </r>
       <r>   52.9400    0.0000 </r>
       <r>   53.3617    0.0000 </r>
       <r>   55.7089    0.0000 </r>
       <r>   56.2129    0.0000 </r>
       <r>   58.2011    0.0000 </r>
       <r>   58.6654    0.0000 </r>
       <r>   59.0392    0.0000 </r>
       <r>   59.5454    0.0000 </r>
       <r>   61.2144    0.0000 </r>
       <r>   62.2178    0.0000 </r>
       <r>   63.5645    0.0000 </r>
       <r>   63.7366    0.0000 </r>
       <r>   67.4357    0.0000 </r>
       <r>   67.5131    0.0000 </r>
      </set>
     </set>
    </set>
   </array>
  </eigenvalues>
  <separator name="orbital magnetization" >
   <v name="MAGDIPOLOUT">      0.00000000      0.00000000      0.00000000</v>
  </separator>
  <dos>
   <i name="efermi">      6.86926627 </i>
   <total>
    <array>
     <dimension dim="1">gridpoints</dimension>
     <dimension dim="2">spin</dimension>
     <field>energy</field>
     <field>total</field>
     <field>integrated</field>
     <set>
      <set comment="spin 1">
       <r>    -5.5356     0.0000     0.0000 </r>
       <r>    -5.2773     0.0000     0.0000 </r>
       <r>    -5.0190     0.0000     0.0000 </r>
       <r>    -4.7608     0.0000     0.0000 </r>
       <r>    -4.5025     0.0000     0.0000 </r>
       <r>    -4.2442     0.0000     0.0000 </r>
       <r>    -3.9860     0.0000     0.0000 </r>
       <r>    -3.7277    -0.0000    -0.0000 </r>
       <r>    -3.4694    -0.0000    -0.0000 </r>
       <r>    -3.2111    -0.0000    -0.0000 </r>
       <r>    -2.9529    -0.0000    -0.0000 </r>
       <r>    -2.6946    -0.0000    -0.0000 </r>
       <r>    -2.4363    -0.0000    -0.0000 </r>
       <r>    -2.1781    -0.0004    -0.0001 </r>
       <r>    -1.9198     0.0089     0.0022 </r>
       <r>    -1.6615     0.0535     0.0160 </r>
       <r>    -1.4033     0.1058     0.0433 </r>
       <r>    -1.1450     0.0573     0.0581 </r>
       <r>    -0.8867     0.1507     0.0970 </r>
       <r>    -0.6285     0.1786     0.1432 </r>
       <r>    -0.3702     0.2008     0.1950 </r>
       <r>    -0.1119     0.0877     0.2177 </r>
       <r>     0.1463     0.2247     0.2757 </r>
       <r>     0.4046     0.3044     0.3543 </r>
       <r>     0.6629     0.3126     0.4350 </r>
       <r>     0.9211     0.3045     0.5137 </r>
       <r>     1.1794     0.2558     0.5798 </r>
       <r>     1.4377     0.3485     0.6698 </r>
       <r>     1.6959     0.7323     0.8589 </r>
       <r>     1.9542     1.0000     1.1172 </r>
       <r>     2.2125     1.5769     1.5244 </r>
       <r>     2.4707     2.0093     2.0434 </r>
       <r>     2.7290     2.8535     2.7803 </r>
       <r>     2.9873     2.2608     3.3642 </r>
       <r>     3.2455     2.8691     4.1052 </r>
       <r>     3.5038     2.4754     4.7445 </r>
       <r>     3.7621     3.2650     5.5878 </r>
       <r>     4.0203     3.2402     6.4246 </r>
       <r>     4.2786     3.1013     7.2256 </r>
       <r>     4.5369     2.4264     7.8522 </r>
       <r>     4.7952     2.6167     8.5280 </r>
       <r>     5.0534     4.2117     9.6158 </r>
       <r>     5.3117     3.6621    10.5616 </r>
       <r>     5.5700     3.7822    11.5384 </r>
       <r>     5.8282     3.1769    12.3589 </r>
       <r>     6.0865     3.6336    13.2974 </r>
       <r>     6.3448     3.5568    14.2160 </r>
       <r>     6.6030     3.5082    15.1220 </r>
       <r>     6.8613     3.3053    15.9757 </r>
       <r>     7.1196     3.1339    16.7851 </r>
       <r>     7.3778     4.2483    17.8823 </r>
       <r>     7.6361     4.9657    19.1648 </r>
       <r>     7.8944     4.2493    20.2622 </r>
       <r>     8.1526     3.2849    21.1106 </r>
       <r>     8.4109     0.5908    21.2632 </r>
       <r>     8.6692     0.4841    21.3882 </r>
       <r>     8.9274     0.4654    21.5084 </r>
       <r>     9.1857     0.7594    21.7045 </r>
       <r>     9.4440     0.9441    21.9484 </r>
       <r>     9.7022     0.5121    22.0806 </r>
       <r>     9.9605     0.3692    22.1760 </r>
       <r>    10.2188     0.4405    22.2897 </r>
       <r>    10.4770     0.4842    22.4148 </r>
       <r>    10.7353     0.3494    22.5050 </r>
       <r>    10.9936     0.5697    22.6522 </r>
       <r>    11.2518     0.6210    22.8125 </r>
       <r>    11.5101     0.4581    22.9309 </r>
       <r>    11.7684     0.4914    23.0578 </r>
       <r>    12.0266     0.4418    23.1719 </r>
       <r>    12.2849     0.1218    23.2034 </r>
       <r>    12.5432     0.4455    23.3184 </r>
       <r>    12.8015     0.3190    23.4008 </r>
       <r>    13.0597     0.4542    23.5181 </r>
       <r>    13.3180     0.1833    23.5654 </r>
       <r>    13.5763     0.3229    23.6488 </r>
       <r>    13.8345     0.4528    23.7658 </r>
       <r>    14.0928     0.6529    23.9344 </r>
       <r>    14.3511     0.3981    24.0372 </r>
       <r>    14.6093     0.1773    24.0830 </r>
       <r>    14.8676     0.2217    24.1403 </r>
       <r>    15.1259     0.1008    24.1663 </r>
       <r>    15.3841     0.1065    24.1938 </r>
       <r>    15.6424     0.3532    24.2850 </r>
       <r>    15.9007     0.2365    24.3461 </r>
       <r>    16.1589     0.2068    24.3995 </r>
       <r>    16.4172     0.5845    24.5505 </r>
       <r>    16.6755     0.7895    24.7544 </r>
       <r>    16.9337     0.9769    25.0067 </r>
       <r>    17.1920     0.8739    25.2324 </r>
       <r>    17.4503     0.6176    25.3919 </r>
       <r>    17.7085     0.3882    25.4922 </r>
       <r>    17.9668     0.6769    25.6670 </r>
       <r>    18.2251     0.7818    25.8689 </r>
       <r>    18.4833     0.5963    26.0229 </r>
       <r>    18.7416     0.9653    26.2722 </r>
       <r>    18.9999     0.7907    26.4764 </r>
       <r>    19.2581     0.6634    26.6478 </r>
       <r>    19.5164     0.2808    26.7203 </r>
       <r>    19.7747     0.7597    26.9165 </r>
       <r>    20.0329     0.7152    27.1012 </r>
       <r>    20.2912     0.7633    27.2984 </r>
       <r>    20.5495     0.4822    27.4229 </r>
       <r>    20.8078     0.5332    27.5606 </r>
       <r>    21.0660     0.6704    27.7337 </r>
       <r>    21.3243     0.4389    27.8471 </r>
       <r>    21.5826     0.6193    28.0070 </r>
       <r>    21.8408     0.8462    28.2256 </r>
       <r>    22.0991     0.5648    28.3715 </r>
       <r>    22.3574     0.6694    28.5443 </r>
       <r>    22.6156     0.7610    28.7409 </r>
       <r>    22.8739     0.4119    28.8473 </r>
       <r>    23.1322     0.7423    29.0390 </r>
       <r>    23.3904     1.3144    29.3785 </r>
       <r>    23.6487     0.8829    29.6065 </r>
       <r>    23.9070     0.7147    29.7911 </r>
       <r>    24.1652     0.8349    30.0067 </r>
       <r>    24.4235     1.0199    30.2701 </r>
       <r>    24.6818     0.6512    30.4383 </r>
       <r>    24.9400     0.8727    30.6637 </r>
       <r>    25.1983     1.1111    30.9507 </r>
       <r>    25.4566     0.8928    31.1812 </r>
       <r>    25.7148     0.8443    31.3993 </r>
       <r>    25.9731     0.8015    31.6063 </r>
       <r>    26.2314     1.0811    31.8855 </r>
       <r>    26.4896     1.5978    32.2982 </r>
       <r>    26.7479     0.9452    32.5423 </r>
       <r>    27.0062     0.4663    32.6627 </r>
       <r>    27.2644     0.7226    32.8493 </r>
       <r>    27.5227     0.9226    33.0876 </r>
       <r>    27.7810     0.7820    33.2896 </r>
       <r>    28.0393     0.8771    33.5161 </r>
       <r>    28.2975     0.8199    33.7279 </r>
       <r>    28.5558     0.6056    33.8843 </r>
       <r>    28.8141     1.0820    34.1637 </r>
       <r>    29.0723     1.0933    34.4461 </r>
       <r>    29.3306     0.2546    34.5118 </r>
       <r>    29.5889     0.5584    34.6560 </r>
       <r>    29.8471     0.7029    34.8376 </r>
       <r>    30.1054     0.3951    34.9396 </r>
       <r>    30.3637     0.8182    35.1509 </r>
       <r>    30.6219     0.9307    35.3913 </r>
       <r>    30.8802     0.7660    35.5891 </r>
       <r>    31.1385     0.6792    35.7645 </r>
       <r>    31.3967     0.8023    35.9717 </r>
       <r>    31.6550     0.6718    36.1453 </r>
       <r>    31.9133     1.0572    36.4183 </r>
       <r>    32.1715     0.9217    36.6563 </r>
       <r>    32.4298     0.7291    36.8446 </r>
       <r>    32.6881     0.7073    37.0273 </r>
       <r>    32.9463     0.6702    37.2004 </r>
       <r>    33.2046     0.7137    37.3847 </r>
       <r>    33.4629     0.6553    37.5540 </r>
       <r>    33.7211     1.2096    37.8663 </r>
       <r>    33.9794     1.0270    38.1316 </r>
       <r>    34.2377     0.6271    38.2935 </r>
       <r>    34.4959     0.8460    38.5120 </r>
       <r>    34.7542     1.2212    38.8274 </r>
       <r>    35.0125     0.9213    39.0654 </r>
       <r>    35.2707     0.8125    39.2752 </r>
       <r>    35.5290     1.4398    39.6471 </r>
       <r>    35.7873     1.0315    39.9135 </r>
       <r>    36.0456     1.0981    40.1971 </r>
       <r>    36.3038     1.3057    40.5343 </r>
       <r>    36.5621     0.9313    40.7748 </r>
       <r>    36.8204     0.6158    40.9339 </r>
       <r>    37.0786     1.0403    41.2026 </r>
       <r>    37.3369     0.8945    41.4336 </r>
       <r>    37.5952     0.2739    41.5043 </r>
       <r>    37.8534     0.9031    41.7375 </r>
       <r>    38.1117     0.7005    41.9185 </r>
       <r>    38.3700     0.4521    42.0352 </r>
       <r>    38.6282     0.5498    42.1772 </r>
       <r>    38.8865     1.0922    42.4593 </r>
       <r>    39.1448     1.1540    42.7574 </r>
       <r>    39.4030     0.9519    43.0032 </r>
       <r>    39.6613     0.6928    43.1822 </r>
       <r>    39.9196     0.8590    43.4040 </r>
       <r>    40.1778     0.6445    43.5704 </r>
       <r>    40.4361     0.8518    43.7904 </r>
       <r>    40.6944     0.8244    44.0034 </r>
       <r>    40.9526     0.8075    44.2119 </r>
       <r>    41.2109     1.0930    44.4942 </r>
       <r>    41.4692     1.1387    44.7883 </r>
       <r>    41.7274     1.3066    45.1257 </r>
       <r>    41.9857     0.8378    45.3421 </r>
       <r>    42.2440     1.0616    45.6163 </r>
       <r>    42.5022     1.2394    45.9364 </r>
       <r>    42.7605     0.8405    46.1535 </r>
       <r>    43.0188     1.0477    46.4240 </r>
       <r>    43.2770     1.2896    46.7571 </r>
       <r>    43.5353     1.1071    47.0431 </r>
       <r>    43.7936     0.8278    47.2568 </r>
       <r>    44.0519     1.1496    47.5538 </r>
       <r>    44.3101     1.2646    47.8804 </r>
       <r>    44.5684     1.1097    48.1670 </r>
       <r>    44.8267     0.6595    48.3373 </r>
       <r>    45.0849     0.7961    48.5429 </r>
       <r>    45.3432     0.9081    48.7774 </r>
       <r>    45.6015     1.1226    49.0674 </r>
       <r>    45.8597     1.0896    49.3488 </r>
       <r>    46.1180     0.8344    49.5642 </r>
       <r>    46.3763     0.7727    49.7638 </r>
       <r>    46.6345     1.0704    50.0403 </r>
       <r>    46.8928     1.4190    50.4067 </r>
       <r>    47.1511     1.1188    50.6957 </r>
       <r>    47.4093     0.4474    50.8112 </r>
       <r>    47.6676     0.6932    50.9903 </r>
       <r>    47.9259     1.3216    51.3316 </r>
       <r>    48.1841     1.0730    51.6087 </r>
       <r>    48.4424     1.0170    51.8713 </r>
       <r>    48.7007     0.8769    52.0978 </r>
       <r>    48.9589     0.8626    52.3206 </r>
       <r>    49.2172     0.8969    52.5522 </r>
       <r>    49.4755     1.0695    52.8284 </r>
       <r>    49.7337     1.2530    53.1521 </r>
       <r>    49.9920     1.4545    53.5277 </r>
       <r>    50.2503     1.5590    53.9303 </r>
       <r>    50.5085     1.0957    54.2133 </r>
       <r>    50.7668     1.1229    54.5033 </r>
       <r>    51.0251     1.0739    54.7807 </r>
       <r>    51.2833     1.1911    55.0883 </r>
       <r>    51.5416     1.0511    55.3598 </r>
       <r>    51.7999     1.2319    55.6779 </r>
       <r>    52.0582     0.9198    55.9155 </r>
       <r>    52.3164     0.7622    56.1123 </r>
       <r>    52.5747     0.9484    56.3573 </r>
       <r>    52.8330     1.0263    56.6223 </r>
       <r>    53.0912     1.2113    56.9352 </r>
       <r>    53.3495     1.2835    57.2666 </r>
       <r>    53.6078     1.1949    57.5753 </r>
       <r>    53.8660     1.4459    57.9487 </r>
       <r>    54.1243     1.2398    58.2689 </r>
       <r>    54.3826     1.4670    58.6478 </r>
       <r>    54.6408     1.4410    59.0199 </r>
       <r>    54.8991     1.3548    59.3698 </r>
       <r>    55.1574     1.3331    59.7141 </r>
       <r>    55.4156     0.6337    59.8778 </r>
       <r>    55.6739     1.3061    60.2151 </r>
       <r>    55.9322     1.2239    60.5312 </r>
       <r>    56.1904     1.2515    60.8544 </r>
       <r>    56.4487     1.8184    61.3241 </r>
       <r>    56.7070     1.5825    61.7328 </r>
       <r>    56.9652     1.5336    62.1289 </r>
       <r>    57.2235     1.3030    62.4654 </r>
       <r>    57.4818     1.3546    62.8152 </r>
       <r>    57.7400     1.1614    63.1152 </r>
       <r>    57.9983     1.9647    63.6226 </r>
       <r>    58.2566     1.7565    64.0763 </r>
       <r>    58.5148     1.0679    64.3521 </r>
       <r>    58.7731     2.0284    64.8759 </r>
       <r>    59.0314     1.5330    65.2718 </r>
       <r>    59.2897     1.6540    65.6990 </r>
       <r>    59.5479     1.7820    66.1593 </r>
       <r>    59.8062     1.5990    66.5722 </r>
       <r>    60.0645     2.1880    67.1373 </r>
       <r>    60.3227     1.4494    67.5116 </r>
       <r>    60.5810     1.6577    67.9398 </r>
       <r>    60.8393     1.9846    68.4523 </r>
       <r>    61.0975     1.2355    68.7714 </r>
       <r>    61.3558     1.4117    69.1360 </r>
       <r>    61.6141     1.6312    69.5573 </r>
       <r>    61.8723     1.8223    70.0280 </r>
       <r>    62.1306     1.8295    70.5005 </r>
       <r>    62.3889     1.2714    70.8288 </r>
       <r>    62.6471     2.0381    71.3552 </r>
       <r>    62.9054     1.5149    71.7465 </r>
       <r>    63.1637     1.3148    72.0860 </r>
       <r>    63.4219     1.9386    72.5867 </r>
       <r>    63.6802     1.5962    72.9990 </r>
       <r>    63.9385     1.5988    73.4119 </r>
       <r>    64.1967     1.7824    73.8722 </r>
       <r>    64.4550     1.9461    74.3748 </r>
       <r>    64.7133     1.5958    74.7870 </r>
       <r>    64.9715     2.0031    75.3043 </r>
       <r>    65.2298     2.0169    75.8252 </r>
       <r>    65.4881     2.3671    76.4365 </r>
       <r>    65.7463     1.1771    76.7405 </r>
       <r>    66.0046     1.6824    77.1751 </r>
       <r>    66.2629     2.3019    77.7696 </r>
       <r>    66.5211     1.4987    78.1566 </r>
       <r>    66.7794     1.3184    78.4971 </r>
       <r>    67.0377     1.7206    78.9415 </r>
       <r>    67.2960     1.6280    79.3620 </r>
       <r>    67.5542     1.2890    79.6949 </r>
       <r>    67.8125     0.7083    79.8778 </r>
       <r>    68.0708     0.2273    79.9365 </r>
       <r>    68.3290     0.1512    79.9756 </r>
       <r>    68.5873     0.0970    80.0006 </r>
       <r>    68.8456    -0.0019    80.0001 </r>
       <r>    69.1038    -0.0005    80.0000 </r>
       <r>    69.3621    -0.0000    80.0000 </r>
       <r>    69.6204    -0.0000    80.0000 </r>
       <r>    69.8786    -0.0000    80.0000 </r>
       <r>    70.1369     0.0000    80.0000 </r>
       <r>    70.3952     0.0000    80.0000 </r>
       <r>    70.6534     0.0000    80.0000 </r>
       <r>    70.9117     0.0000    80.0000 </r>
       <r>    71.1700     0.0000    80.0000 </r>
       <r>    71.4282     0.0000    80.0000 </r>
       <r>    71.6865     0.0000    80.0000 </r>
       <r>    71.9448     0.0000    80.0000 </r>
      </set>
     </set>
    </array>
   </total>
  </dos>
 </calculation>
 <structure name="finalpos" >
  <crystal>
   <varray name="basis" >
    <v>       2.35330000       0.00000000       0.00000000 </v>
    <v>      -1.17665000       2.03801758       0.00000000 </v>
    <v>       0.00000000       0.00000000       4.26523000 </v>
   </varray>
   <i name="volume">     20.45632790 </i>
   <varray name="rec_basis" >
    <v>       0.42493520       0.24533645       0.00000000 </v>
    <v>       0.00000000       0.49067290       0.00000000 </v>
    <v>       0.00000000       0.00000000       0.23445395 </v>
   </varray>
  </crystal>
  <varray name="positions" >
   <v>       0.00000000       0.00000000       0.00000000 </v>
   <v>       0.33333333       0.66666667       0.50000000 </v>
  </varray>
 </structure>
</modeling>
