unknown system                          
   1.00000000000000     
     3.635000    0.000000    0.000000
     0.000000    3.635000    0.000000
     0.000000    0.000000    3.635000
   Cu
     4
Direct
  0.000000  0.000000  0.000000
  0.500000  0.500000  0.000000
  0.500000  0.000000  0.500000
  0.000000  0.500000  0.500000
 
   28   28   28
  840.94      778.47      615.94      412.79      230.32      105.38      42.632      21.719      13.999      10.187    
  8.7561      7.8426      7.3641      7.6095      7.8884      7.6095      7.3641      7.8426      8.7561      10.187    
  13.999      21.719      42.632      105.38      230.32      412.79      615.94      778.47      778.47      720.29    
  569.00      380.17      211.20      96.446      39.757      21.168      13.789      10.134      8.7213      7.7801    
  7.2377      7.3836      7.6095      7.3836      7.2377      7.7801      8.7213      10.134      13.789      21.168    
  39.757      96.446      211.20      380.17      569.00      720.29      615.94      569.00      447.16      295.95    
  162.41      74.237      32.950      19.722      13.196      10.007      8.7186      7.8246      7.2480      7.2377    
  7.3641      7.2377      7.2480      7.8246      8.7186      10.007      13.196      19.722      32.950      74.237    
  162.41      295.95      447.16      569.00      412.79      380.17      295.95      192.85      104.43      49.373    
  25.999      17.603      12.341      9.8574      8.8696      8.2330      7.8246      7.7801      7.8426      7.7801    
  7.8246      8.2330      8.8696      9.8574      12.341      17.603      25.999      49.373      104.43      192.85    
  295.95      380.17      230.32      211.20      162.41      104.43      57.559      31.324      21.079      15.180    
  11.428      9.7513      9.1563      8.8696      8.7186      8.7213      8.7561      8.7213      8.7186      8.8696    
  9.1563      9.7513      11.428      15.180      21.079      31.324      57.559      104.43      162.41      211.20    
  105.38      96.446      74.237      49.373      31.324      22.314      16.978      12.980      10.739      9.8847    
  9.7513      9.8574      10.007      10.134      10.187      10.134      10.007      9.8574      9.7513      9.8847    
  10.739      12.980      16.978      22.314      31.324      49.373      74.237      96.446      42.632      39.757    
  32.950      25.999      21.079      16.978      13.598      11.473      10.623      10.739      11.428      12.341    
  13.196      13.789      13.999      13.789      13.196      12.341      11.428      10.739      10.623      11.473    
  13.598      16.978      21.079      25.999      32.950      39.757      21.719      21.168      19.722      17.603    
  15.180      12.980      11.473      10.941      11.473      12.980      15.180      17.603      19.722      21.168    
  21.719      21.168      19.722      17.603      15.180      12.980      11.473      10.941      11.473      12.980    
  15.180      17.603      19.722      21.168      13.999      13.789      13.196      12.341      11.428      10.739    
  10.623      11.473      13.598      16.978      21.079      25.999      32.950      39.757      42.632      39.757    
  32.950      25.999      21.079      16.978      13.598      11.473      10.623      10.739      11.428      12.341    
  13.196      13.789      10.187      10.134      10.007      9.8574      9.7513      9.8847      10.739      12.980    
  16.978      22.314      31.324      49.373      74.237      96.446      105.38      96.446      74.237      49.373    
  31.324      22.314      16.978      12.980      10.739      9.8847      9.7513      9.8574      10.007      10.134    
  8.7561      8.7213      8.7186      8.8696      9.1563      9.7513      11.428      15.180      21.079      31.324    
  57.559      104.43      162.41      211.20      230.32      211.20      162.41      104.43      57.559      31.324    
  21.079      15.180      11.428      9.7513      9.1563      8.8696      8.7186      8.7213      7.8426      7.7801    
  7.8246      8.2330      8.8696      9.8574      12.341      17.603      25.999      49.373      104.43      192.85    
  295.95      380.17      412.79      380.17      295.95      192.85      104.43      49.373      25.999      17.603    
  12.341      9.8574      8.8696      8.2330      7.8246      7.7801      7.3641      7.2377      7.2480      7.8246    
  8.7186      10.007      13.196      19.722      32.950      74.237      162.41      295.95      447.16      569.00    
  615.94      569.00      447.16      295.95      162.41      74.237      32.950      19.722      13.196      10.007    
  8.7186      7.8246      7.2480      7.2377      7.6095      7.3836      7.2377      7.7801      8.7213      10.134    
  13.789      21.168      39.757      96.446      211.20      380.17      569.00      720.29      778.47      720.29    
  569.00      380.17      211.20      96.446      39.757      21.168      13.789      10.134      8.7213      7.7801    
  7.2377      7.3836      7.8884      7.6095      7.3641      7.8426      8.7561      10.187      13.999      21.719    
  42.632      105.38      230.32      412.79      615.94      778.47      840.94      778.47      615.94      412.79    
  230.32      105.38      42.632      21.719      13.999      10.187      8.7561      7.8426      7.3641      7.6095    
  7.6095      7.3836      7.2377      7.7801      8.7213      10.134      13.789      21.168      39.757      96.446    
  211.20      380.17      569.00      720.29      778.47      720.29      569.00      380.17      211.20      96.446    
  39.757      21.168      13.789      10.134      8.7213      7.7801      7.2377      7.3836      7.3641      7.2377    
  7.2480      7.8246      8.7186      10.007      13.196      19.722      32.950      74.237      162.41      295.95    
  447.16      569.00      615.94      569.00      447.16      295.95      162.41      74.237      32.950      19.722    
  13.196      10.007      8.7186      7.8246      7.2480      7.2377      7.8426      7.7801      7.8246      8.2330    
  8.8696      9.8574      12.341      17.603      25.999      49.373      104.43      192.85      295.95      380.17    
  412.79      380.17      295.95      192.85      104.43      49.373      25.999      17.603      12.341      9.8574    
  8.8696      8.2330      7.8246      7.7801      8.7561      8.7213      8.7186      8.8696      9.1563      9.7513    
  11.428      15.180      21.079      31.324      57.559      104.43      162.41      211.20      230.32      211.20    
  162.41      104.43      57.559      31.324      21.079      15.180      11.428      9.7513      9.1563      8.8696    
  8.7186      8.7213      10.187      10.134      10.007      9.8574      9.7513      9.8847      10.739      12.980    
  16.978      22.314      31.324      49.373      74.237      96.446      105.38      96.446      74.237      49.373    
  31.324      22.314      16.978      12.980      10.739      9.8847      9.7513      9.8574      10.007      10.134    
  13.999      13.789      13.196      12.341      11.428      10.739      10.623      11.473      13.598      16.978    
  21.079      25.999      32.950      39.757      42.632      39.757      32.950      25.999      21.079      16.978    
  13.598      11.473      10.623      10.739      11.428      12.341      13.196      13.789      21.719      21.168    
  19.722      17.603      15.180      12.980      11.473      10.941      11.473      12.980      15.180      17.603    
  19.722      21.168      21.719      21.168      19.722      17.603      15.180      12.980      11.473      10.941    
  11.473      12.980      15.180      17.603      19.722      21.168      42.632      39.757      32.950      25.999    
  21.079      16.978      13.598      11.473      10.623      10.739      11.428      12.341      13.196      13.789    
  13.999      13.789      13.196      12.341      11.428      10.739      10.623      11.473      13.598      16.978    
  21.079      25.999      32.950      39.757      105.38      96.446      74.237      49.373      31.324      22.314    
  16.978      12.980      10.739      9.8847      9.7513      9.8574      10.007      10.134      10.187      10.134    
  10.007      9.8574      9.7513      9.8847      10.739      12.980      16.978      22.314      31.324      49.373    
  74.237      96.446      230.32      211.20      162.41      104.43      57.559      31.324      21.079      15.180    
  11.428      9.7513      9.1563      8.8696      8.7186      8.7213      8.7561      8.7213      8.7186      8.8696    
  9.1563      9.7513      11.428      15.180      21.079      31.324      57.559      104.43      162.41      211.20    
  412.79      380.17      295.95      192.85      104.43      49.373      25.999      17.603      12.341      9.8574    
  8.8696      8.2330      7.8246      7.7801      7.8426      7.7801      7.8246      8.2330      8.8696      9.8574    
  12.341      17.603      25.999      49.373      104.43      192.85      295.95      380.17      615.94      569.00    
  447.16      295.95      162.41      74.237      32.950      19.722      13.196      10.007      8.7186      7.8246    
  7.2480      7.2377      7.3641      7.2377      7.2480      7.8246      8.7186      10.007      13.196      19.722    
  32.950      74.237      162.41      295.95      447.16      569.00      778.47      720.29      569.00      380.17    
  211.20      96.446      39.757      21.168      13.789      10.134      8.7213      7.7801      7.2377      7.3836    
  7.6095      7.3836      7.2377      7.7801      8.7213      10.134      13.789      21.168      39.757      96.446    
  211.20      380.17      569.00      720.29      778.47      720.29      569.00      380.17      211.20      96.446    
  39.757      21.168      13.789      10.134      8.7213      7.7801      7.2377      7.3836      7.6095      7.3836    
  7.2377      7.7801      8.7213      10.134      13.789      21.168      39.757      96.446      211.20      380.17    
  569.00      720.29      720.29      666.13      525.34      349.92      193.56      88.309      37.199      20.656    
  13.589      10.093      8.7054      7.7456      7.1493      7.2060      7.3836      7.2060      7.1493      7.7456    
  8.7054      10.093      13.589      20.656      37.199      88.309      193.56      349.92      525.34      666.13    
  569.00      525.34      412.12      271.90      148.68      68.155      31.163      19.264      13.022      9.9898    
  8.7386      7.8414      7.2284      7.1493      7.2377      7.1493      7.2284      7.8414      8.7386      9.9898    
  13.022      19.264      31.163      68.155      148.68      271.90      412.12      525.34      380.17      349.92    
  271.90      176.70      95.602      45.767      25.019      17.201      12.204      9.8602      8.9112      8.2767    
  7.8414      7.7456      7.7801      7.7456      7.8414      8.2767      8.9112      9.8602      12.204      17.201    
  25.019      45.767      95.602      176.70      271.90      349.92      211.20      193.56      148.68      95.602    
  53.111      29.719      20.517      14.867      11.330      9.7606      9.1973      8.9112      8.7386      8.7054    
  8.7213      8.7054      8.7386      8.9112      9.1973      9.7606      11.330      14.867      20.517      29.719    
  53.111      95.602      148.68      193.56      96.446      88.309      68.155      45.767      29.719      21.678    
  16.555      12.765      10.668      9.8783      9.7606      9.8602      9.9898      10.093      10.134      10.093    
  9.9898      9.8602      9.7606      9.8783      10.668      12.765      16.555      21.678      29.719      45.767    
  68.155      88.309      39.757      37.199      31.163      25.019      20.517      16.555      13.335      11.333    
  10.545      10.668      11.330      12.204      13.022      13.589      13.789      13.589      13.022      12.204    
  11.330      10.668      10.545      11.333      13.335      16.555      20.517      25.019      31.163      37.199    
  21.168      20.656      19.264      17.201      14.867      12.765      11.333      10.829      11.333      12.765    
  14.867      17.201      19.264      20.656      21.168      20.656      19.264      17.201      14.867      12.765    
  11.333      10.829      11.333      12.765      14.867      17.201      19.264      20.656      13.789      13.589    
  13.022      12.204      11.330      10.668      10.545      11.333      13.335      16.555      20.517      25.019    
  31.163      37.199      39.757      37.199      31.163      25.019      20.517      16.555      13.335      11.333    
  10.545      10.668      11.330      12.204      13.022      13.589      10.134      10.093      9.9898      9.8602    
  9.7606      9.8783      10.668      12.765      16.555      21.678      29.719      45.767      68.155      88.309    
  96.446      88.309      68.155      45.767      29.719      21.678      16.555      12.765      10.668      9.8783    
  9.7606      9.8602      9.9898      10.093      8.7213      8.7054      8.7386      8.9112      9.1973      9.7606    
  11.330      14.867      20.517      29.719      53.111      95.602      148.68      193.56      211.20      193.56    
  148.68      95.602      53.111      29.719      20.517      14.867      11.330      9.7606      9.1973      8.9112    
  8.7386      8.7054      7.7801      7.7456      7.8414      8.2767      8.9112      9.8602      12.204      17.201    
  25.019      45.767      95.602      176.70      271.90      349.92      380.17      349.92      271.90      176.70    
  95.602      45.767      25.019      17.201      12.204      9.8602      8.9112      8.2767      7.8414      7.7456    
  7.2377      7.1493      7.2284      7.8414      8.7386      9.9898      13.022      19.264      31.163      68.155    
  148.68      271.90      412.12      525.34      569.00      525.34      412.12      271.90      148.68      68.155    
  31.163      19.264      13.022      9.9898      8.7386      7.8414      7.2284      7.1493      7.3836      7.2060    
  7.1493      7.7456      8.7054      10.093      13.589      20.656      37.199      88.309      193.56      349.92    
  525.34      666.13      720.29      666.13      525.34      349.92      193.56      88.309      37.199      20.656    
  13.589      10.093      8.7054      7.7456      7.1493      7.2060      7.6095      7.3836      7.2377      7.7801    
  8.7213      10.134      13.789      21.168      39.757      96.446      211.20      380.17      569.00      720.29    
  778.47      720.29      569.00      380.17      211.20      96.446      39.757      21.168      13.789      10.134    
  8.7213      7.7801      7.2377      7.3836      7.3836      7.2060      7.1493      7.7456      8.7054      10.093    
  13.589      20.656      37.199      88.309      193.56      349.92      525.34      666.13      720.29      666.13    
  525.34      349.92      193.56      88.309      37.199      20.656      13.589      10.093      8.7054      7.7456    
  7.1493      7.2060      7.2377      7.1493      7.2284      7.8414      8.7386      9.9898      13.022      19.264    
  31.163      68.155      148.68      271.90      412.12      525.34      569.00      525.34      412.12      271.90    
  148.68      68.155      31.163      19.264      13.022      9.9898      8.7386      7.8414      7.2284      7.1493    
  7.7801      7.7456      7.8414      8.2767      8.9112      9.8602      12.204      17.201      25.019      45.767    
  95.602      176.70      271.90      349.92      380.17      349.92      271.90      176.70      95.602      45.767    
  25.019      17.201      12.204      9.8602      8.9112      8.2767      7.8414      7.7456      8.7213      8.7054    
  8.7386      8.9112      9.1973      9.7606      11.330      14.867      20.517      29.719      53.111      95.602    
  148.68      193.56      211.20      193.56      148.68      95.602      53.111      29.719      20.517      14.867    
  11.330      9.7606      9.1973      8.9112      8.7386      8.7054      10.134      10.093      9.9898      9.8602    
  9.7606      9.8783      10.668      12.765      16.555      21.678      29.719      45.767      68.155      88.309    
  96.446      88.309      68.155      45.767      29.719      21.678      16.555      12.765      10.668      9.8783    
  9.7606      9.8602      9.9898      10.093      13.789      13.589      13.022      12.204      11.330      10.668    
  10.545      11.333      13.335      16.555      20.517      25.019      31.163      37.199      39.757      37.199    
  31.163      25.019      20.517      16.555      13.335      11.333      10.545      10.668      11.330      12.204    
  13.022      13.589      21.168      20.656      19.264      17.201      14.867      12.765      11.333      10.829    
  11.333      12.765      14.867      17.201      19.264      20.656      21.168      20.656      19.264      17.201    
  14.867      12.765      11.333      10.829      11.333      12.765      14.867      17.201      19.264      20.656    
  39.757      37.199      31.163      25.019      20.517      16.555      13.335      11.333      10.545      10.668    
  11.330      12.204      13.022      13.589      13.789      13.589      13.022      12.204      11.330      10.668    
  10.545      11.333      13.335      16.555      20.517      25.019      31.163      37.199      96.446      88.309    
  68.155      45.767      29.719      21.678      16.555      12.765      10.668      9.8783      9.7606      9.8602    
  9.9898      10.093      10.134      10.093      9.9898      9.8602      9.7606      9.8783      10.668      12.765    
  16.555      21.678      29.719      45.767      68.155      88.309      211.20      193.56      148.68      95.602    
  53.111      29.719      20.517      14.867      11.330      9.7606      9.1973      8.9112      8.7386      8.7054    
  8.7213      8.7054      8.7386      8.9112      9.1973      9.7606      11.330      14.867      20.517      29.719    
  53.111      95.602      148.68      193.56      380.17      349.92      271.90      176.70      95.602      45.767    
  25.019      17.201      12.204      9.8602      8.9112      8.2767      7.8414      7.7456      7.7801      7.7456    
  7.8414      8.2767      8.9112      9.8602      12.204      17.201      25.019      45.767      95.602      176.70    
  271.90      349.92      569.00      525.34      412.12      271.90      148.68      68.155      31.163      19.264    
  13.022      9.9898      8.7386      7.8414      7.2284      7.1493      7.2377      7.1493      7.2284      7.8414    
  8.7386      9.9898      13.022      19.264      31.163      68.155      148.68      271.90      412.12      525.34    
  720.29      666.13      525.34      349.92      193.56      88.309      37.199      20.656      13.589      10.093    
  8.7054      7.7456      7.1493      7.2060      7.3836      7.2060      7.1493      7.7456      8.7054      10.093    
  13.589      20.656      37.199      88.309      193.56      349.92      525.34      666.13      615.94      569.00    
  447.16      295.95      162.41      74.237      32.950      19.722      13.196      10.007      8.7186      7.8246    
  7.2480      7.2377      7.3641      7.2377      7.2480      7.8246      8.7186      10.007      13.196      19.722    
  32.950      74.237      162.41      295.95      447.16      569.00      569.00      525.34      412.12      271.90    
  148.68      68.155      31.163      19.264      13.022      9.9898      8.7386      7.8414      7.2284      7.1493    
  7.2377      7.1493      7.2284      7.8414      8.7386      9.9898      13.022      19.264      31.163      68.155    
  148.68      271.90      412.12      525.34      447.16      412.12      321.50      210.16      113.97      53.261    
  26.981      17.971      12.531      9.9379      8.8348      8.0152      7.4069      7.2284      7.2480      7.2284    
  7.4069      8.0152      8.8348      9.9379      12.531      17.971      26.981      53.261      113.97      210.16    
  321.50      412.12      295.95      271.90      210.16      135.65      73.618      37.123      22.672      16.092    
  11.821      9.8522      9.0320      8.4552      8.0152      7.8414      7.8246      7.8414      8.0152      8.4552    
  9.0320      9.8522      11.821      16.092      22.672      37.123      73.618      135.65      210.16      271.90    
  162.41      148.68      113.97      73.618      42.342      25.949      18.957      14.022      11.062      9.7710    
  9.2960      9.0320      8.8348      8.7386      8.7186      8.7386      8.8348      9.0320      9.2960      9.7710    
  11.062      14.022      18.957      25.949      42.342      73.618      113.97      148.68      74.237      68.155    
  53.261      37.123      25.949      19.974      15.417      12.199      10.482      9.8552      9.7710      9.8522    
  9.9379      9.9898      10.007      9.9898      9.9379      9.8522      9.7710      9.8552      10.482      12.199    
  15.417      19.974      25.949      37.123      53.261      68.155      32.950      31.163      26.981      22.672    
  18.957      15.417      12.645      10.977      10.350      10.482      11.062      11.821      12.531      13.022    
  13.196      13.022      12.531      11.821      11.062      10.482      10.350      10.977      12.645      15.417    
  18.957      22.672      26.981      31.163      19.722      19.264      17.971      16.092      14.022      12.199    
  10.977      10.550      10.977      12.199      14.022      16.092      17.971      19.264      19.722      19.264    
  17.971      16.092      14.022      12.199      10.977      10.550      10.977      12.199      14.022      16.092    
  17.971      19.264      13.196      13.022      12.531      11.821      11.062      10.482      10.350      10.977    
  12.645      15.417      18.957      22.672      26.981      31.163      32.950      31.163      26.981      22.672    
  18.957      15.417      12.645      10.977      10.350      10.482      11.062      11.821      12.531      13.022    
  10.007      9.9898      9.9379      9.8522      9.7710      9.8552      10.482      12.199      15.417      19.974    
  25.949      37.123      53.261      68.155      74.237      68.155      53.261      37.123      25.949      19.974    
  15.417      12.199      10.482      9.8552      9.7710      9.8522      9.9379      9.9898      8.7186      8.7386    
  8.8348      9.0320      9.2960      9.7710      11.062      14.022      18.957      25.949      42.342      73.618    
  113.97      148.68      162.41      148.68      113.97      73.618      42.342      25.949      18.957      14.022    
  11.062      9.7710      9.2960      9.0320      8.8348      8.7386      7.8246      7.8414      8.0152      8.4552    
  9.0320      9.8522      11.821      16.092      22.672      37.123      73.618      135.65      210.16      271.90    
  295.95      271.90      210.16      135.65      73.618      37.123      22.672      16.092      11.821      9.8522    
  9.0320      8.4552      8.0152      7.8414      7.2480      7.2284      7.4069      8.0152      8.8348      9.9379    
  12.531      17.971      26.981      53.261      113.97      210.16      321.50      412.12      447.16      412.12    
  321.50      210.16      113.97      53.261      26.981      17.971      12.531      9.9379      8.8348      8.0152    
  7.4069      7.2284      7.2377      7.1493      7.2284      7.8414      8.7386      9.9898      13.022      19.264    
  31.163      68.155      148.68      271.90      412.12      525.34      569.00      525.34      412.12      271.90    
  148.68      68.155      31.163      19.264      13.022      9.9898      8.7386      7.8414      7.2284      7.1493    
  7.3641      7.2377      7.2480      7.8246      8.7186      10.007      13.196      19.722      32.950      74.237    
  162.41      295.95      447.16      569.00      615.94      569.00      447.16      295.95      162.41      74.237    
  32.950      19.722      13.196      10.007      8.7186      7.8246      7.2480      7.2377      7.2377      7.1493    
  7.2284      7.8414      8.7386      9.9898      13.022      19.264      31.163      68.155      148.68      271.90    
  412.12      525.34      569.00      525.34      412.12      271.90      148.68      68.155      31.163      19.264    
  13.022      9.9898      8.7386      7.8414      7.2284      7.1493      7.2480      7.2284      7.4069      8.0152    
  8.8348      9.9379      12.531      17.971      26.981      53.261      113.97      210.16      321.50      412.12    
  447.16      412.12      321.50      210.16      113.97      53.261      26.981      17.971      12.531      9.9379    
  8.8348      8.0152      7.4069      7.2284      7.8246      7.8414      8.0152      8.4552      9.0320      9.8522    
  11.821      16.092      22.672      37.123      73.618      135.65      210.16      271.90      295.95      271.90    
  210.16      135.65      73.618      37.123      22.672      16.092      11.821      9.8522      9.0320      8.4552    
  8.0152      7.8414      8.7186      8.7386      8.8348      9.0320      9.2960      9.7710      11.062      14.022    
  18.957      25.949      42.342      73.618      113.97      148.68      162.41      148.68      113.97      73.618    
  42.342      25.949      18.957      14.022      11.062      9.7710      9.2960      9.0320      8.8348      8.7386    
  10.007      9.9898      9.9379      9.8522      9.7710      9.8552      10.482      12.199      15.417      19.974    
  25.949      37.123      53.261      68.155      74.237      68.155      53.261      37.123      25.949      19.974    
  15.417      12.199      10.482      9.8552      9.7710      9.8522      9.9379      9.9898      13.196      13.022    
  12.531      11.821      11.062      10.482      10.350      10.977      12.645      15.417      18.957      22.672    
  26.981      31.163      32.950      31.163      26.981      22.672      18.957      15.417      12.645      10.977    
  10.350      10.482      11.062      11.821      12.531      13.022      19.722      19.264      17.971      16.092    
  14.022      12.199      10.977      10.550      10.977      12.199      14.022      16.092      17.971      19.264    
  19.722      19.264      17.971      16.092      14.022      12.199      10.977      10.550      10.977      12.199    
  14.022      16.092      17.971      19.264      32.950      31.163      26.981      22.672      18.957      15.417    
  12.645      10.977      10.350      10.482      11.062      11.821      12.531      13.022      13.196      13.022    
  12.531      11.821      11.062      10.482      10.350      10.977      12.645      15.417      18.957      22.672    
  26.981      31.163      74.237      68.155      53.261      37.123      25.949      19.974      15.417      12.199    
  10.482      9.8552      9.7710      9.8522      9.9379      9.9898      10.007      9.9898      9.9379      9.8522    
  9.7710      9.8552      10.482      12.199      15.417      19.974      25.949      37.123      53.261      68.155    
  162.41      148.68      113.97      73.618      42.342      25.949      18.957      14.022      11.062      9.7710    
  9.2960      9.0320      8.8348      8.7386      8.7186      8.7386      8.8348      9.0320      9.2960      9.7710    
  11.062      14.022      18.957      25.949      42.342      73.618      113.97      148.68      295.95      271.90    
  210.16      135.65      73.618      37.123      22.672      16.092      11.821      9.8522      9.0320      8.4552    
  8.0152      7.8414      7.8246      7.8414      8.0152      8.4552      9.0320      9.8522      11.821      16.092    
  22.672      37.123      73.618      135.65      210.16      271.90      447.16      412.12      321.50      210.16    
  113.97      53.261      26.981      17.971      12.531      9.9379      8.8348      8.0152      7.4069      7.2284    
  7.2480      7.2284      7.4069      8.0152      8.8348      9.9379      12.531      17.971      26.981      53.261    
  113.97      210.16      321.50      412.12      569.00      525.34      412.12      271.90      148.68      68.155    
  31.163      19.264      13.022      9.9898      8.7386      7.8414      7.2284      7.1493      7.2377      7.1493    
  7.2284      7.8414      8.7386      9.9898      13.022      19.264      31.163      68.155      148.68      271.90    
  412.12      525.34      412.79      380.17      295.95      192.85      104.43      49.373      25.999      17.603    
  12.341      9.8574      8.8696      8.2330      7.8246      7.7801      7.8426      7.7801      7.8246      8.2330    
  8.8696      9.8574      12.341      17.603      25.999      49.373      104.43      192.85      295.95      380.17    
  380.17      349.92      271.90      176.70      95.602      45.767      25.019      17.201      12.204      9.8602    
  8.9112      8.2767      7.8414      7.7456      7.7801      7.7456      7.8414      8.2767      8.9112      9.8602    
  12.204      17.201      25.019      45.767      95.602      176.70      271.90      349.92      295.95      271.90    
  210.16      135.65      73.618      37.123      22.672      16.092      11.821      9.8522      9.0320      8.4552    
  8.0152      7.8414      7.8246      7.8414      8.0152      8.4552      9.0320      9.8522      11.821      16.092    
  22.672      37.123      73.618      135.65      210.16      271.90      192.85      176.70      135.65      87.299    
  48.929      28.137      19.857      14.536      11.274      9.8103      9.2051      8.7916      8.4552      8.2767    