unknown system                          
   1.00000000000000     
     3.635000    0.000000    0.000000
     0.000000    3.635000    0.000000
     0.000000    0.000000    3.635000
   Cu
     4
Direct
  0.000000  0.000000  0.000000
  0.500000  0.500000  0.000000
  0.500000  0.000000  0.500000
  0.000000  0.500000  0.500000
 
   28   28   28
 0.84093854063E+03 0.77846976663E+03 0.61593522173E+03 0.41278822577E+03 0.23032302414E+03
 0.10538295692E+03 0.42632004127E+02 0.21719145489E+02 0.13998859448E+02 0.10186850587E+02
 0.87560706513E+01 0.78426006722E+01 0.73641007856E+01 0.76094900844E+01 0.78884045036E+01
 0.76094900844E+01 0.73641007856E+01 0.78426006722E+01 0.87560706513E+01 0.10186850587E+02
 0.13998859448E+02 0.21719145489E+02 0.42632004127E+02 0.10538295692E+03 0.23032302414E+03
 0.41278822577E+03 0.61593522173E+03 0.77846976663E+03 0.77846976663E+03 0.72029290572E+03
 0.56899563766E+03 0.38016984893E+03 0.21119500412E+03 0.96446348742E+02 0.39757316771E+02
 0.21168229199E+02 0.13788905855E+02 0.10134488466E+02 0.87213416862E+01 0.77801192640E+01
 0.72376904862E+01 0.73836133913E+01 0.76094900844E+01 0.73836133913E+01 0.72376904862E+01
 0.77801192640E+01 0.87213416862E+01 0.10134488466E+02 0.13788905855E+02 0.21168229199E+02
 0.39757316771E+02 0.96446348742E+02 0.21119500412E+03 0.38016984893E+03 0.56899563766E+03
 0.72029290572E+03 0.61593522173E+03 0.56899563766E+03 0.44716078226E+03 0.29595296676E+03
 0.16241085570E+03 0.74237107701E+02 0.32949539484E+02 0.19721587925E+02 0.13196390931E+02
 0.10006710722E+02 0.87186035159E+01 0.78246461028E+01 0.72480446552E+01 0.72376904862E+01
 0.73641007856E+01 0.72376904862E+01 0.72480446552E+01 0.78246461028E+01 0.87186035159E+01
 0.10006710722E+02 0.13196390931E+02 0.19721587925E+02 0.32949539484E+02 0.74237107701E+02
 0.16241085570E+03 0.29595296676E+03 0.44716078226E+03 0.56899563766E+03 0.41278822577E+03
 0.38016984893E+03 0.29595296676E+03 0.19285269875E+03 0.10443315769E+03 0.49372768439E+02
 0.25999193563E+02 0.17603061979E+02 0.12340697994E+02 0.98574375526E+01 0.88695728157E+01
 0.82329993462E+01 0.78246461028E+01 0.77801192640E+01 0.78426006722E+01 0.77801192640E+01
 0.78246461028E+01 0.82329993462E+01 0.88695728157E+01 0.98574375526E+01 0.12340697994E+02
 0.17603061979E+02 0.25999193563E+02 0.49372768439E+02 0.10443315769E+03 0.19285269875E+03
 0.29595296676E+03 0.38016984893E+03 0.23032302414E+03 0.21119500412E+03 0.16241085570E+03
 0.10443315769E+03 0.57559458745E+02 0.31324254371E+02 0.21079429476E+02 0.15180037134E+02
 0.11427828924E+02 0.97513326347E+01 0.91562819574E+01 0.88695728157E+01 0.87186035159E+01
 0.87213416862E+01 0.87560706513E+01 0.87213416862E+01 0.87186035159E+01 0.88695728157E+01
 0.91562819574E+01 0.97513326347E+01 0.11427828924E+02 0.15180037134E+02 0.21079429476E+02
 0.31324254371E+02 0.57559458745E+02 0.10443315769E+03 0.16241085570E+03 0.21119500412E+03
 0.10538295692E+03 0.96446348742E+02 0.74237107701E+02 0.49372768439E+02 0.31324254371E+02
 0.22314378637E+02 0.16978106633E+02 0.12980362519E+02 0.10739177439E+02 0.98846722189E+01
 0.97513326347E+01 0.98574375526E+01 0.10006710722E+02 0.10134488466E+02 0.10186850587E+02
 0.10134488466E+02 0.10006710722E+02 0.98574375526E+01 0.97513326347E+01 0.98846722189E+01
 0.10739177439E+02 0.12980362519E+02 0.16978106633E+02 0.22314378637E+02 0.31324254371E+02
 0.49372768439E+02 0.74237107701E+02 0.96446348742E+02 0.42632004127E+02 0.39757316771E+02
 0.32949539484E+02 0.25999193563E+02 0.21079429476E+02 0.16978106633E+02 0.13598385610E+02
 0.11472895231E+02 0.10623303149E+02 0.10739177439E+02 0.11427828924E+02 0.12340697994E+02
 0.13196390931E+02 0.13788905855E+02 0.13998859448E+02 0.13788905855E+02 0.13196390931E+02
 0.12340697994E+02 0.11427828924E+02 0.10739177439E+02 0.10623303149E+02 0.11472895231E+02
 0.13598385610E+02 0.16978106633E+02 0.21079429476E+02 0.25999193563E+02 0.32949539484E+02
 0.39757316771E+02 0.21719145489E+02 0.21168229199E+02 0.19721587925E+02 0.17603061979E+02
 0.15180037134E+02 0.12980362519E+02 0.11472895231E+02 0.10941094113E+02 0.11472895231E+02
 0.12980362519E+02 0.15180037134E+02 0.17603061979E+02 0.19721587925E+02 0.21168229199E+02
 0.21719145489E+02 0.21168229199E+02 0.19721587925E+02 0.17603061979E+02 0.15180037134E+02
 0.12980362519E+02 0.11472895231E+02 0.10941094113E+02 0.11472895231E+02 0.12980362519E+02
 0.15180037134E+02 0.17603061979E+02 0.19721587925E+02 0.21168229199E+02 0.13998859448E+02
 0.13788905855E+02 0.13196390931E+02 0.12340697994E+02 0.11427828924E+02 0.10739177439E+02
 0.10623303149E+02 0.11472895231E+02 0.13598385610E+02 0.16978106633E+02 0.21079429476E+02
 0.25999193563E+02 0.32949539484E+02 0.39757316771E+02 0.42632004127E+02 0.39757316771E+02
 0.32949539484E+02 0.25999193563E+02 0.21079429476E+02 0.16978106633E+02 0.13598385610E+02
 0.11472895231E+02 0.10623303149E+02 0.10739177439E+02 0.11427828924E+02 0.12340697994E+02
 0.13196390931E+02 0.13788905855E+02 0.10186850587E+02 0.10134488466E+02 0.10006710722E+02
 0.98574375526E+01 0.97513326347E+01 0.98846722189E+01 0.10739177439E+02 0.12980362519E+02
 0.16978106633E+02 0.22314378637E+02 0.31324254371E+02 0.49372768439E+02 0.74237107701E+02
 0.96446348742E+02 0.10538295692E+03 0.96446348742E+02 0.74237107701E+02 0.49372768439E+02
 0.31324254371E+02 0.22314378637E+02 0.16978106633E+02 0.12980362519E+02 0.10739177439E+02
 0.98846722189E+01 0.97513326347E+01 0.98574375526E+01 0.10006710722E+02 0.10134488466E+02
 0.87560706513E+01 0.87213416862E+01 0.87186035159E+01 0.88695728157E+01 0.91562819574E+01
 0.97513326347E+01 0.11427828924E+02 0.15180037134E+02 0.21079429476E+02 0.31324254371E+02
 0.57559458745E+02 0.10443315769E+03 0.16241085570E+03 0.21119500412E+03 0.23032302414E+03
 0.21119500412E+03 0.16241085570E+03 0.10443315769E+03 0.57559458745E+02 0.31324254371E+02
 0.21079429476E+02 0.15180037134E+02 0.11427828924E+02 0.97513326347E+01 0.91562819574E+01
 0.88695728157E+01 0.87186035159E+01 0.87213416862E+01 0.78426006722E+01 0.77801192640E+01
 0.78246461028E+01 0.82329993462E+01 0.88695728157E+01 0.98574375526E+01 0.12340697994E+02
 0.17603061979E+02 0.25999193563E+02 0.49372768439E+02 0.10443315769E+03 0.19285269875E+03
 0.29595296676E+03 0.38016984893E+03 0.41278822577E+03 0.38016984893E+03 0.29595296676E+03
 0.19285269875E+03 0.10443315769E+03 0.49372768439E+02 0.25999193563E+02 0.17603061979E+02
 0.12340697994E+02 0.98574375526E+01 0.88695728157E+01 0.82329993462E+01 0.78246461028E+01
 0.77801192640E+01 0.73641007856E+01 0.72376904862E+01 0.72480446552E+01 0.78246461028E+01
 0.87186035159E+01 0.10006710722E+02 0.13196390931E+02 0.19721587925E+02 0.32949539484E+02
 0.74237107701E+02 0.16241085570E+03 0.29595296676E+03 0.44716078226E+03 0.56899563766E+03
 0.61593522173E+03 0.56899563766E+03 0.44716078226E+03 0.29595296676E+03 0.16241085570E+03
 0.74237107701E+02 0.32949539484E+02 0.19721587925E+02 0.13196390931E+02 0.10006710722E+02
 0.87186035159E+01 0.78246461028E+01 0.72480446552E+01 0.72376904862E+01 0.76094900844E+01
 0.73836133913E+01 0.72376904862E+01 0.77801192640E+01 0.87213416862E+01 0.10134488466E+02
 0.13788905855E+02 0.21168229199E+02 0.39757316771E+02 0.96446348742E+02 0.21119500412E+03
 0.38016984893E+03 0.56899563766E+03 0.72029290572E+03 0.77846976663E+03 0.72029290572E+03
 0.56899563766E+03 0.38016984893E+03 0.21119500412E+03 0.96446348742E+02 0.39757316771E+02
 0.21168229199E+02 0.13788905855E+02 0.10134488466E+02 0.87213416862E+01 0.77801192640E+01
 0.72376904862E+01 0.73836133913E+01 0.78884045036E+01 0.76094900844E+01 0.73641007856E+01
 0.78426006722E+01 0.87560706513E+01 0.10186850587E+02 0.13998859448E+02 0.21719145489E+02
 0.42632004127E+02 0.10538295692E+03 0.23032302414E+03 0.41278822577E+03 0.61593522173E+03
 0.77846976663E+03 0.84093854063E+03 0.77846976663E+03 0.61593522173E+03 0.41278822577E+03
 0.23032302414E+03 0.10538295692E+03 0.42632004127E+02 0.21719145489E+02 0.13998859448E+02
 0.10186850587E+02 0.87560706513E+01 0.78426006722E+01 0.73641007856E+01 0.76094900844E+01
 0.76094900844E+01 0.73836133913E+01 0.72376904862E+01 0.77801192640E+01 0.87213416862E+01
 0.10134488466E+02 0.13788905855E+02 0.21168229199E+02 0.39757316771E+02 0.96446348742E+02
 0.21119500412E+03 0.38016984893E+03 0.56899563766E+03 0.72029290572E+03 0.77846976663E+03
 0.72029290572E+03 0.56899563766E+03 0.38016984893E+03 0.21119500412E+03 0.96446348742E+02
 0.39757316771E+02 0.21168229199E+02 0.13788905855E+02 0.10134488466E+02 0.87213416862E+01
 0.77801192640E+01 0.72376904862E+01 0.73836133913E+01 0.73641007856E+01 0.72376904862E+01
 0.72480446552E+01 0.78246461028E+01 0.87186035159E+01 0.10006710722E+02 0.13196390931E+02
 0.19721587925E+02 0.32949539484E+02 0.74237107701E+02 0.16241085570E+03 0.29595296676E+03
 0.44716078226E+03 0.56899563766E+03 0.61593522173E+03 0.56899563766E+03 0.44716078226E+03
 0.29595296676E+03 0.16241085570E+03 0.74237107701E+02 0.32949539484E+02 0.19721587925E+02
 0.13196390931E+02 0.10006710722E+02 0.87186035159E+01 0.78246461028E+01 0.72480446552E+01
 0.72376904862E+01 0.78426006722E+01 0.77801192640E+01 0.78246461028E+01 0.82329993462E+01
 0.88695728157E+01 0.98574375526E+01 0.12340697994E+02 0.17603061979E+02 0.25999193563E+02
 0.49372768439E+02 0.10443315769E+03 0.19285269875E+03 0.29595296676E+03 0.38016984893E+03
 0.41278822577E+03 0.38016984893E+03 0.29595296676E+03 0.19285269875E+03 0.10443315769E+03
 0.49372768439E+02 0.25999193563E+02 0.17603061979E+02 0.12340697994E+02 0.98574375526E+01
 0.88695728157E+01 0.82329993462E+01 0.78246461028E+01 0.77801192640E+01 0.87560706513E+01
 0.87213416862E+01 0.87186035159E+01 0.88695728157E+01 0.91562819574E+01 0.97513326347E+01
 0.11427828924E+02 0.15180037134E+02 0.21079429476E+02 0.31324254371E+02 0.57559458745E+02
 0.10443315769E+03 0.16241085570E+03 0.21119500412E+03 0.23032302414E+03 0.21119500412E+03
 0.16241085570E+03 0.10443315769E+03 0.57559458745E+02 0.31324254371E+02 0.21079429476E+02
 0.15180037134E+02 0.11427828924E+02 0.97513326347E+01 0.91562819574E+01 0.88695728157E+01
 0.87186035159E+01 0.87213416862E+01 0.10186850587E+02 0.10134488466E+02 0.10006710722E+02
 0.98574375526E+01 0.97513326347E+01 0.98846722189E+01 0.10739177439E+02 0.12980362519E+02
 0.16978106633E+02 0.22314378637E+02 0.31324254371E+02 0.49372768439E+02 0.74237107701E+02
 0.96446348742E+02 0.10538295692E+03 0.96446348742E+02 0.74237107701E+02 0.49372768439E+02
 0.31324254371E+02 0.22314378637E+02 0.16978106633E+02 0.12980362519E+02 0.10739177439E+02
 0.98846722189E+01 0.97513326347E+01 0.98574375526E+01 0.10006710722E+02 0.10134488466E+02
 0.13998859448E+02 0.13788905855E+02 0.13196390931E+02 0.12340697994E+02 0.11427828924E+02
 0.10739177439E+02 0.10623303149E+02 0.11472895231E+02 0.13598385610E+02 0.16978106633E+02
 0.21079429476E+02 0.25999193563E+02 0.32949539484E+02 0.39757316771E+02 0.42632004127E+02
 0.39757316771E+02 0.32949539484E+02 0.25999193563E+02 0.21079429476E+02 0.16978106633E+02
 0.13598385610E+02 0.11472895231E+02 0.10623303149E+02 0.10739177439E+02 0.11427828924E+02
 0.12340697994E+02 0.13196390931E+02 0.13788905855E+02 0.21719145489E+02 0.21168229199E+02
 0.19721587925E+02 0.17603061979E+02 0.15180037134E+02 0.12980362519E+02 0.11472895231E+02
 0.10941094113E+02 0.11472895231E+02 0.12980362519E+02 0.15180037134E+02 0.17603061979E+02
 0.19721587925E+02 0.21168229199E+02 0.21719145489E+02 0.21168229199E+02 0.19721587925E+02
 0.17603061979E+02 0.15180037134E+02 0.12980362519E+02 0.11472895231E+02 0.10941094113E+02
 0.11472895231E+02 0.12980362519E+02 0.15180037134E+02 0.17603061979E+02 0.19721587925E+02
 0.21168229199E+02 0.42632004127E+02 0.39757316771E+02 0.32949539484E+02 0.25999193563E+02
 0.21079429476E+02 0.16978106633E+02 0.13598385610E+02 0.11472895231E+02 0.10623303149E+02
 0.10739177439E+02 0.11427828924E+02 0.12340697994E+02 0.13196390931E+02 0.13788905855E+02
 0.13998859448E+02 0.13788905855E+02 0.13196390931E+02 0.12340697994E+02 0.11427828924E+02
 0.10739177439E+02 0.10623303149E+02 0.11472895231E+02 0.13598385610E+02 0.16978106633E+02
 0.21079429476E+02 0.25999193563E+02 0.32949539484E+02 0.39757316771E+02 0.10538295692E+03
 0.96446348742E+02 0.74237107701E+02 0.49372768439E+02 0.31324254371E+02 0.22314378637E+02
 0.16978106633E+02 0.12980362519E+02 0.10739177439E+02 0.98846722189E+01 0.97513326347E+01
 0.98574375526E+01 0.10006710722E+02 0.10134488466E+02 0.10186850587E+02 0.10134488466E+02
 0.10006710722E+02 0.98574375526E+01 0.97513326347E+01 0.98846722189E+01 0.10739177439E+02
 0.12980362519E+02 0.16978106633E+02 0.22314378637E+02 0.31324254371E+02 0.49372768439E+02
 0.74237107701E+02 0.96446348742E+02 0.23032302414E+03 0.21119500412E+03 0.16241085570E+03
 0.10443315769E+03 0.57559458745E+02 0.31324254371E+02 0.21079429476E+02 0.15180037134E+02
 0.11427828924E+02 0.97513326347E+01 0.91562819574E+01 0.88695728157E+01 0.87186035159E+01
 0.87213416862E+01 0.87560706513E+01 0.87213416862E+01 0.87186035159E+01 0.88695728157E+01
 0.91562819574E+01 0.97513326347E+01 0.11427828924E+02 0.15180037134E+02 0.21079429476E+02
 0.31324254371E+02 0.57559458745E+02 0.10443315769E+03 0.16241085570E+03 0.21119500412E+03
 0.41278822577E+03 0.38016984893E+03 0.29595296676E+03 0.19285269875E+03 0.10443315769E+03
 0.49372768439E+02 0.25999193563E+02 0.17603061979E+02 0.12340697994E+02 0.98574375526E+01
 0.88695728157E+01 0.82329993462E+01 0.78246461028E+01 0.77801192640E+01 0.78426006722E+01
 0.77801192640E+01 0.78246461028E+01 0.82329993462E+01 0.88695728157E+01 0.98574375526E+01
 0.12340697994E+02 0.17603061979E+02 0.25999193563E+02 0.49372768439E+02 0.10443315769E+03
 0.19285269875E+03 0.29595296676E+03 0.38016984893E+03 0.61593522173E+03 0.56899563766E+03
 0.44716078226E+03 0.29595296676E+03 0.16241085570E+03 0.74237107701E+02 0.32949539484E+02
 0.19721587925E+02 0.13196390931E+02 0.10006710722E+02 0.87186035159E+01 0.78246461028E+01
 0.72480446552E+01 0.72376904862E+01 0.73641007856E+01 0.72376904862E+01 0.72480446552E+01
 0.78246461028E+01 0.87186035159E+01 0.10006710722E+02 0.13196390931E+02 0.19721587925E+02
 0.32949539484E+02 0.74237107701E+02 0.16241085570E+03 0.29595296676E+03 0.44716078226E+03
 0.56899563766E+03 0.77846976663E+03 0.72029290572E+03 0.56899563766E+03 0.38016984893E+03
 0.21119500412E+03 0.96446348742E+02 0.39757316771E+02 0.21168229199E+02 0.13788905855E+02
 0.10134488466E+02 0.87213416862E+01 0.77801192640E+01 0.72376904862E+01 0.73836133913E+01
 0.76094900844E+01 0.73836133913E+01 0.72376904862E+01 0.77801192640E+01 0.87213416862E+01
 0.10134488466E+02 0.13788905855E+02 0.21168229199E+02 0.39757316771E+02 0.96446348742E+02
 0.21119500412E+03 0.38016984893E+03 0.56899563766E+03 0.72029290572E+03 0.77846976663E+03
 0.72029290572E+03 0.56899563766E+03 0.38016984893E+03 0.21119500412E+03 0.96446348742E+02
 0.39757316771E+02 0.21168229199E+02 0.13788905855E+02 0.10134488466E+02 0.87213416862E+01
 0.77801192640E+01 0.72376904862E+01 0.73836133913E+01 0.76094900844E+01 0.73836133913E+01
 0.72376904862E+01 0.77801192640E+01 0.87213416862E+01 0.10134488466E+02 0.13788905855E+02
 0.21168229199E+02 0.39757316771E+02 0.96446348742E+02 0.21119500412E+03 0.38016984893E+03
 0.56899563766E+03 0.72029290572E+03 0.72029290572E+03 0.66612778322E+03 0.52533979598E+03
 0.34991593466E+03 0.19356048406E+03 0.88308815526E+02 0.37198515345E+02 0.20656465251E+02
 0.13588540458E+02 0.10093486396E+02 0.87053652952E+01 0.77456470192E+01 0.71493398033E+01
 0.72060219364E+01 0.73836133913E+01 0.72060219364E+01 0.71493398033E+01 0.77456470192E+01
 0.87053652952E+01 0.10093486396E+02 0.13588540458E+02 0.20656465251E+02 0.37198515345E+02
 0.88308815526E+02 0.19356048406E+03 0.34991593466E+03 0.52533979598E+03 0.66612778322E+03
 0.56899563766E+03 0.52533979598E+03 0.41211711450E+03 0.27190173649E+03 0.14867817463E+03
 0.68154855022E+02 0.31162693042E+02 0.19263669984E+02 0.13022455414E+02 0.99898370051E+01
 0.87385968590E+01 0.78413632678E+01 0.72283965499E+01 0.71493398033E+01 0.72376904862E+01
 0.71493398033E+01 0.72283965499E+01 0.78413632678E+01 0.87385968590E+01 0.99898370051E+01
 0.13022455414E+02 0.19263669984E+02 0.31162693042E+02 0.68154855022E+02 0.14867817463E+03
 0.27190173649E+03 0.41211711450E+03 0.52533979598E+03 0.38016984893E+03 0.34991593466E+03
 0.27190173649E+03 0.17669939824E+03 0.95602421041E+02 0.45766769472E+02 0.25018702225E+02
 0.17201402995E+02 0.12203937723E+02 0.98602014607E+01 0.89112473042E+01 0.82766661086E+01
 0.78413632678E+01 0.77456470192E+01 0.77801192640E+01 0.77456470192E+01 0.78413632678E+01
 0.82766661086E+01 0.89112473042E+01 0.98602014607E+01 0.12203937723E+02 0.17201402995E+02
 0.25018702225E+02 0.45766769472E+02 0.95602421041E+02 0.17669939824E+03 0.27190173649E+03
 0.34991593466E+03 0.21119500412E+03 0.19356048406E+03 0.14867817463E+03 0.95602421041E+02
 0.53111033654E+02 0.29719292603E+02 0.20516642158E+02 0.14866544751E+02 0.11329911103E+02
 0.97606411861E+01 0.91973340664E+01 0.89112473042E+01 0.87385968590E+01 0.87053652952E+01
 0.87213416862E+01 0.87053652952E+01 0.87385968590E+01 0.89112473042E+01 0.91973340664E+01
 0.97606411861E+01 0.11329911103E+02 0.14866544751E+02 0.20516642158E+02 0.29719292603E+02
 0.53111033654E+02 0.95602421041E+02 0.14867817463E+03 0.19356048406E+03 0.96446348742E+02
 0.88308815526E+02 0.68154855022E+02 0.45766769472E+02 0.29719292603E+02 0.21678225863E+02
 0.16555453270E+02 0.12764779376E+02 0.10667790869E+02 0.98783483370E+01 0.97606411861E+01
 0.98602014607E+01 0.99898370051E+01 0.10093486396E+02 0.10134488466E+02 0.10093486396E+02
 0.99898370051E+01 0.98602014607E+01 0.97606411861E+01 0.98783483370E+01 0.10667790869E+02
 0.12764779376E+02 0.16555453270E+02 0.21678225863E+02 0.29719292603E+02 0.45766769472E+02
 0.68154855022E+02 0.88308815526E+02 0.39757316771E+02 0.37198515345E+02 0.31162693042E+02
 0.25018702225E+02 0.20516642158E+02 0.16555453270E+02 0.13334880752E+02 0.11332968350E+02
 0.10545266348E+02 0.10667790869E+02 0.11329911103E+02 0.12203937723E+02 0.13022455414E+02
 0.13588540458E+02 0.13788905855E+02 0.13588540458E+02 0.13022455414E+02 0.12203937723E+02
 0.11329911103E+02 0.10667790869E+02 0.10545266348E+02 0.11332968350E+02 0.13334880752E+02
 0.16555453270E+02 0.20516642158E+02 0.25018702225E+02 0.31162693042E+02 0.37198515345E+02
 0.21168229199E+02 0.20656465251E+02 0.19263669984E+02 0.17201402995E+02 0.14866544751E+02
 0.12764779376E+02 0.11332968350E+02 0.10829411250E+02 0.11332968350E+02 0.12764779376E+02
 0.14866544751E+02 0.17201402995E+02 0.19263669984E+02 0.20656465251E+02 0.21168229199E+02
 0.20656465251E+02 0.19263669984E+02 0.17201402995E+02 0.14866544751E+02 0.12764779376E+02
 0.11332968350E+02 0.10829411250E+02 0.11332968350E+02 0.12764779376E+02 0.14866544751E+02
 0.17201402995E+02 0.19263669984E+02 0.20656465251E+02 0.13788905855E+02 0.13588540458E+02
 0.13022455414E+02 0.12203937723E+02 0.11329911103E+02 0.10667790869E+02 0.10545266348E+02
 0.11332968350E+02 0.13334880752E+02 0.16555453270E+02 0.20516642158E+02 0.25018702225E+02
 0.31162693042E+02 0.37198515345E+02 0.39757316771E+02 0.37198515345E+02 0.31162693042E+02
 0.25018702225E+02 0.20516642158E+02 0.16555453270E+02 0.13334880752E+02 0.11332968350E+02
 0.10545266348E+02 0.10667790869E+02 0.11329911103E+02 0.12203937723E+02 0.13022455414E+02
 0.13588540458E+02 0.10134488466E+02 0.10093486396E+02 0.99898370051E+01 0.98602014607E+01
 0.97606411861E+01 0.98783483370E+01 0.10667790869E+02 0.12764779376E+02 0.16555453270E+02
 0.21678225863E+02 0.29719292603E+02 0.45766769472E+02 0.68154855022E+02 0.88308815526E+02
 0.96446348742E+02 0.88308815526E+02 0.68154855022E+02 0.45766769472E+02 0.29719292603E+02
 0.21678225863E+02 0.16555453270E+02 0.12764779376E+02 0.10667790869E+02 0.98783483370E+01
 0.97606411861E+01 0.98602014607E+01 0.99898370051E+01 0.10093486396E+02 0.87213416862E+01
 0.87053652952E+01 0.87385968590E+01 0.89112473042E+01 0.91973340664E+01 0.97606411861E+01
 0.11329911103E+02 0.14866544751E+02 0.20516642158E+02 0.29719292603E+02 0.53111033654E+02
 0.95602421041E+02 0.14867817463E+03 0.19356048406E+03 0.21119500412E+03 0.19356048406E+03
 0.14867817463E+03 0.95602421041E+02 0.53111033654E+02 0.29719292603E+02 0.20516642158E+02
 0.14866544751E+02 0.11329911103E+02 0.97606411861E+01 0.91973340664E+01 0.89112473042E+01
 0.87385968590E+01 0.87053652952E+01 0.77801192640E+01 0.77456470192E+01 0.78413632678E+01
 0.82766661086E+01 0.89112473042E+01 0.98602014607E+01 0.12203937723E+02 0.17201402995E+02
 0.25018702225E+02 0.45766769472E+02 0.95602421041E+02 0.17669939824E+03 0.27190173649E+03
 0.34991593466E+03 0.38016984893E+03 0.34991593466E+03 0.27190173649E+03 0.17669939824E+03
 0.95602421041E+02 0.45766769472E+02 0.25018702225E+02 0.17201402995E+02 0.12203937723E+02
 0.98602014607E+01 0.89112473042E+01 0.82766661086E+01 0.78413632678E+01 0.77456470192E+01
 0.72376904862E+01 0.71493398033E+01 0.72283965499E+01 0.78413632678E+01 0.87385968590E+01
 0.99898370051E+01 0.13022455414E+02 0.19263669984E+02 0.31162693042E+02 0.68154855022E+02
 0.14867817463E+03 0.27190173649E+03 0.41211711450E+03 0.52533979598E+03 0.56899563766E+03
 0.52533979598E+03 0.41211711450E+03 0.27190173649E+03 0.14867817463E+03 0.68154855022E+02
 0.31162693042E+02 0.19263669984E+02 0.13022455414E+02 0.99898370051E+01 0.87385968590E+01
 0.78413632678E+01 0.72283965499E+01 0.71493398033E+01 0.73836133913E+01 0.72060219364E+01
 0.71493398033E+01 0.77456470192E+01 0.87053652952E+01 0.10093486396E+02 0.13588540458E+02
 0.20656465251E+02 0.37198515345E+02 0.88308815526E+02 0.19356048406E+03 0.34991593466E+03
 0.52533979598E+03 0.66612778322E+03 0.72029290572E+03 0.66612778322E+03 0.52533979598E+03
 0.34991593466E+03 0.19356048406E+03 0.88308815526E+02 0.37198515345E+02 0.20656465251E+02
 0.13588540458E+02 0.10093486396E+02 0.87053652952E+01 0.77456470192E+01 0.71493398033E+01
 0.72060219364E+01 0.76094900844E+01 0.73836133913E+01 0.72376904862E+01 0.77801192640E+01
 0.87213416862E+01 0.10134488466E+02 0.13788905855E+02 0.21168229199E+02 0.39757316771E+02
 0.96446348742E+02 0.21119500412E+03 0.38016984893E+03 0.56899563766E+03 0.72029290572E+03
 0.77846976663E+03 0.72029290572E+03 0.56899563766E+03 0.38016984893E+03 0.21119500412E+03
 0.96446348742E+02 0.39757316771E+02 0.21168229199E+02 0.13788905855E+02 0.10134488466E+02
 0.87213416862E+01 0.77801192640E+01 0.72376904862E+01 0.73836133913E+01 0.73836133913E+01
 0.72060219364E+01 0.71493398033E+01 0.77456470192E+01 0.87053652952E+01 0.10093486396E+02
 0.13588540458E+02 0.20656465251E+02 0.37198515345E+02 0.88308815526E+02 0.19356048406E+03
 0.34991593466E+03 0.52533979598E+03 0.66612778322E+03 0.72029290572E+03 0.66612778322E+03
 0.52533979598E+03 0.34991593466E+03 0.19356048406E+03 0.88308815526E+02 0.37198515345E+02
 0.20656465251E+02 0.13588540458E+02 0.10093486396E+02 0.87053652952E+01 0.77456470192E+01
 0.71493398033E+01 0.72060219364E+01 0.72376904862E+01 0.71493398033E+01 0.72283965499E+01
 0.78413632678E+01 0.87385968590E+01 0.99898370051E+01 0.13022455414E+02 0.19263669984E+02
 0.31162693042E+02 0.68154855022E+02 0.14867817463E+03 0.27190173649E+03 0.41211711450E+03
 0.52533979598E+03 0.56899563766E+03 0.52533979598E+03 0.41211711450E+03 0.27190173649E+03
 0.14867817463E+03 0.68154855022E+02 0.31162693042E+02 0.19263669984E+02 0.13022455414E+02
 0.99898370051E+01 0.87385968590E+01 0.78413632678E+01 0.72283965499E+01 0.71493398033E+01
 0.77801192640E+01 0.77456470192E+01 0.78413632678E+01 0.82766661086E+01 0.89112473042E+01
 0.98602014607E+01 0.12203937723E+02 0.17201402995E+02 0.25018702225E+02 0.45766769472E+02
 0.95602421041E+02 0.17669939824E+03 0.27190173649E+03 0.34991593466E+03 0.38016984893E+03
 0.34991593466E+03 0.27190173649E+03 0.17669939824E+03 0.95602421041E+02 0.45766769472E+02
 0.25018702225E+02 0.17201402995E+02 0.12203937723E+02 0.98602014607E+01 0.89112473042E+01
 0.82766661086E+01 0.78413632678E+01 0.77456470192E+01 0.87213416862E+01 0.87053652952E+01
 0.87385968590E+01 0.89112473042E+01 0.91973340664E+01 0.97606411861E+01 0.11329911103E+02
 0.14866544751E+02 0.20516642158E+02 0.29719292603E+02 0.53111033654E+02 0.95602421041E+02
 0.14867817463E+03 0.19356048406E+03 0.21119500412E+03 0.19356048406E+03 0.14867817463E+03
 0.95602421041E+02 0.53111033654E+02 0.29719292603E+02 0.20516642158E+02 0.14866544751E+02
 0.11329911103E+02 0.97606411861E+01 0.91973340664E+01 0.89112473042E+01 0.87385968590E+01
 0.87053652952E+01 0.10134488466E+02 0.10093486396E+02 0.99898370051E+01 0.98602014607E+01
 0.97606411861E+01 0.98783483370E+01 0.10667790869E+02 0.12764779376E+02 0.16555453270E+02
 0.21678225863E+02 0.29719292603E+02 0.45766769472E+02 0.68154855022E+02 0.88308815526E+02
 0.96446348742E+02 0.88308815526E+02 0.68154855022E+02 0.45766769472E+02 0.29719292603E+02
 0.21678225863E+02 0.16555453270E+02 0.12764779376E+02 0.10667790869E+02 0.98783483370E+01
 0.97606411861E+01 0.98602014607E+01 0.99898370051E+01 0.10093486396E+02 0.13788905855E+02
 0.13588540458E+02 0.13022455414E+02 0.12203937723E+02 0.11329911103E+02 0.10667790869E+02
 0.10545266348E+02 0.11332968350E+02 0.13334880752E+02 0.16555453270E+02 0.20516642158E+02
 0.25018702225E+02 0.31162693042E+02 0.37198515345E+02 0.39757316771E+02 0.37198515345E+02
 0.31162693042E+02 0.25018702225E+02 0.20516642158E+02 0.16555453270E+02 0.13334880752E+02
 0.11332968350E+02 0.10545266348E+02 0.10667790869E+02 0.11329911103E+02 0.12203937723E+02
 0.13022455414E+02 0.13588540458E+02 0.21168229199E+02 0.20656465251E+02 0.19263669984E+02
 0.17201402995E+02 0.14866544751E+02 0.12764779376E+02 0.11332968350E+02 0.10829411250E+02
 0.11332968350E+02 0.12764779376E+02 0.14866544751E+02 0.17201402995E+02 0.19263669984E+02
 0.20656465251E+02 0.21168229199E+02 0.20656465251E+02 0.19263669984E+02 0.17201402995E+02
 0.14866544751E+02 0.12764779376E+02 0.11332968350E+02 0.10829411250E+02 0.11332968350E+02
 0.12764779376E+02 0.14866544751E+02 0.17201402995E+02 0.19263669984E+02 0.20656465251E+02
 0.39757316771E+02 0.37198515345E+02 0.31162693042E+02 0.25018702225E+02 0.20516642158E+02
 0.16555453270E+02 0.13334880752E+02 0.11332968350E+02 0.10545266348E+02 0.10667790869E+02
 0.11329911103E+02 0.12203937723E+02 0.13022455414E+02 0.13588540458E+02 0.13788905855E+02
 0.13588540458E+02 0.13022455414E+02 0.12203937723E+02 0.11329911103E+02 0.10667790869E+02
 0.10545266348E+02 0.11332968350E+02 0.13334880752E+02 0.16555453270E+02 0.20516642158E+02
 0.25018702225E+02 0.31162693042E+02 0.37198515345E+02 0.96446348742E+02 0.88308815526E+02
 0.68154855022E+02 0.45766769472E+02 0.29719292603E+02 0.21678225863E+02 0.16555453270E+02
 0.12764779376E+02 0.10667790869E+02 0.98783483370E+01 0.97606411861E+01 0.98602014607E+01
 0.99898370051E+01 0.10093486396E+02 0.10134488466E+02 0.10093486396E+02 0.99898370051E+01
 0.98602014607E+01 0.97606411861E+01 0.98783483370E+01 0.10667790869E+02 0.12764779376E+02
 0.16555453270E+02 0.21678225863E+02 0.29719292603E+02 0.45766769472E+02 0.68154855022E+02
 0.88308815526E+02 0.21119500412E+03 0.19356048406E+03 0.14867817463E+03 0.95602421041E+02
 0.53111033654E+02 0.29719292603E+02 0.20516642158E+02 0.14866544751E+02 0.11329911103E+02
 0.97606411861E+01 0.91973340664E+01 0.89112473042E+01 0.87385968590E+01 0.87053652952E+01
 0.87213416862E+01 0.87053652952E+01 0.87385968590E+01 0.89112473042E+01 0.91973340664E+01
 0.97606411861E+01 0.11329911103E+02 0.14866544751E+02 0.20516642158E+02 0.29719292603E+02
 0.53111033654E+02 0.95602421041E+02 0.14867817463E+03 0.19356048406E+03 0.38016984893E+03
 0.34991593466E+03 0.27190173649E+03 0.17669939824E+03 0.95602421041E+02 0.45766769472E+02
 0.25018702225E+02 0.17201402995E+02 0.12203937723E+02 0.98602014607E+01 0.89112473042E+01
 0.82766661086E+01 0.78413632678E+01 0.77456470192E+01 0.77801192640E+01 0.77456470192E+01
 0.78413632678E+01 0.82766661086E+01 0.89112473042E+01 0.98602014607E+01 0.12203937723E+02
 0.17201402995E+02 0.25018702225E+02 0.45766769472E+02 0.95602421041E+02 0.17669939824E+03
 0.27190173649E+03 0.34991593466E+03 0.56899563766E+03 0.52533979598E+03 0.41211711450E+03
 0.27190173649E+03 0.14867817463E+03 0.68154855022E+02 0.31162693042E+02 0.19263669984E+02
 0.13022455414E+02 0.99898370051E+01 0.87385968590E+01 0.78413632678E+01 0.72283965499E+01
 0.71493398033E+01 0.72376904862E+01 0.71493398033E+01 0.72283965499E+01 0.78413632678E+01
 0.87385968590E+01 0.99898370051E+01 0.13022455414E+02 0.19263669984E+02 0.31162693042E+02
 0.68154855022E+02 0.14867817463E+03 0.27190173649E+03 0.41211711450E+03 0.52533979598E+03
 0.72029290572E+03 0.66612778322E+03 0.52533979598E+03 0.34991593466E+03 0.19356048406E+03
 0.88308815526E+02 0.37198515345E+02 0.20656465251E+02 0.13588540458E+02 0.10093486396E+02
 0.87053652952E+01 0.77456470192E+01 0.71493398033E+01 0.72060219364E+01 0.73836133913E+01
 0.72060219364E+01 0.71493398033E+01 0.77456470192E+01 0.87053652952E+01 0.10093486396E+02
 0.13588540458E+02 0.20656465251E+02 0.37198515345E+02 0.88308815526E+02 0.19356048406E+03
 0.34991593466E+03 0.52533979598E+03 0.66612778322E+03 0.61593522173E+03 0.56899563766E+03
 0.44716078226E+03 0.29595296676E+03 0.16241085570E+03 0.74237107701E+02 0.32949539484E+02
 0.19721587925E+02 0.13196390931E+02 0.10006710722E+02 0.87186035159E+01 0.78246461028E+01
 0.72480446552E+01 0.72376904862E+01 0.73641007856E+01 0.72376904862E+01 0.72480446552E+01
 0.78246461028E+01 0.87186035159E+01 0.10006710722E+02 0.13196390931E+02 0.19721587925E+02
 0.32949539484E+02 0.74237107701E+02 0.16241085570E+03 0.29595296676E+03 0.44716078226E+03
 0.56899563766E+03 0.56899563766E+03 0.52533979598E+03 0.41211711450E+03 0.27190173649E+03
 0.14867817463E+03 0.68154855022E+02 0.31162693042E+02 0.19263669984E+02 0.13022455414E+02
 0.99898370051E+01 0.87385968590E+01 0.78413632678E+01 0.72283965499E+01 0.71493398033E+01
 0.72376904862E+01 0.71493398033E+01 0.72283965499E+01 0.78413632678E+01 0.87385968590E+01
 0.99898370051E+01 0.13022455414E+02 0.19263669984E+02 0.31162693042E+02 0.68154855022E+02
 0.14867817463E+03 0.27190173649E+03 0.41211711450E+03 0.52533979598E+03 0.44716078226E+03