    4    4    1    1
  0.1200752E+02  0.3635000E-09  0.3635000E-09  0.3635000E-09  0.5000000E-15
  1.000000000000000E-004
  CAR 
 unknown system                          
     44     10     30
 
  0.0000000E+00  0.0000000E+00  0.0000000E+00  0.8000000E-02
    1       -1.802495   1.000000
    2        2.524859   1.000000
    3        2.524859   1.000000
    4        2.524859   1.000000
    5        3.165778   1.000000
    6        3.165778   1.000000
    7        3.165778   1.000000
    8        4.363910   1.000000
    9        4.363910   1.000000
   10        4.363910   1.000000
   11        5.251440   1.000000
   12        5.251440   1.000000
   13        5.575905   1.000000
   14        5.575905   1.000000
   15        5.575905   1.000000
   16        5.683598   1.000000
   17        5.683598   1.000000
   18        5.683598   1.000000
   19        5.683598   1.000000
   20        5.683598   1.000000
   21        5.683598   1.000000
   22        8.944072  -0.000000
   23        8.944072  -0.000000
   24        8.944072  -0.000000
   25       14.294298   0.000000
   26       14.294298   0.000000
   27       14.294298   0.000000
   28       20.379338   0.000000
   29       20.379338   0.000000
   30       20.379338   0.000000
 
  0.2000000E+00  0.0000000E+00  0.0000000E+00  0.4800000E-01
    1       -1.325861   1.000000
    2        2.623342   1.000000
    3        2.735140   1.000000
    4        2.735140   1.000000
    5        3.292443   1.000000
    6        3.315652   1.000000
    7        3.315652   1.000000
    8        4.458690   1.000000
    9        4.513890   1.000000
   10        4.513890   1.000000
   11        5.034438   1.000000
   12        5.094990   1.000000
   13        5.094990   1.000000
   14        5.189690   1.000000
   15        5.439657   1.000000
   16        5.439657   1.000000
   17        5.529751   1.000000
   18        5.536380   1.000000
   19        5.536380   1.000000
   20        5.690992   1.000000
   21        5.690992   1.000000
   22        6.856287   1.028551
   23        9.978426  -0.000000
   24        9.978426  -0.000000
   25       14.488316   0.000000
   26       14.488316   0.000000
   27       17.385259   0.000000
   28       18.098314   0.000000
   29       18.098314   0.000000
   30       18.766939   0.000000
 
  0.4000000E+00  0.0000000E+00  0.0000000E+00  0.4800000E-01
    1        0.032399   1.000000
    2        1.820556   1.000000
    3        3.162208   1.000000
    4        3.162208   1.000000
    5        3.651987   1.000000
    6        3.651987   1.000000
    7        3.669667   1.000000
    8        4.085698   1.000000
    9        4.190623   1.000000
   10        4.190623   1.000000
   11        4.776003   1.000000
   12        4.776003   1.000000
   13        4.839448   1.000000
   14        4.962262   1.000000
   15        5.137261   1.000000
   16        5.137261   1.000000
   17        5.205538   1.000000
   18        5.205538   1.000000
   19        5.277442   1.000000
   20        5.412333   1.000000
   21        5.703992   1.000000
   22        5.703992   1.000000
   23       12.178865  -0.000000
   24       12.178865  -0.000000
   25       14.963556   0.000000
   26       14.963556   0.000000
   27       15.144234   0.000000
   28       15.144234   0.000000
   29       16.621030   0.000000
   30       16.621030   0.000000
 
  0.2000000E+00  0.2000000E+00  0.0000000E+00  0.9600000E-01
    1       -0.861408   1.000000
    2        2.767598   1.000000
    3        2.767598   1.000000
    4        2.909012   1.000000
    5        3.321742   1.000000
    6        3.351762   1.000000
    7        3.351762   1.000000
    8        4.232582   1.000000
    9        4.445308   1.000000
   10        4.516102   1.000000
   11        4.791676   1.000000
   12        4.823470   1.000000
   13        4.823470   1.000000
   14        4.958778   1.000000
   15        5.134001   1.000000
   16        5.268604   1.000000
   17        5.416869   1.000000
   18        5.416869   1.000000
   19        5.527128   1.000000
   20        5.527128   1.000000
   21        5.569515   1.000000
   22        7.787123  -0.000034
   23        7.787123  -0.000034
   24       10.827060  -0.000000
   25       14.460897   0.000000
   26       14.970672   0.000000
   27       17.716561   0.000000
   28       17.716561   0.000000
   29       18.679477   0.000000
   30       18.679477   0.000000
 
  0.4000000E+00  0.2000000E+00  0.0000000E+00  0.1920000E+00
    1        0.452661   1.000000
    2        2.138579   1.000000
    3        3.241487   1.000000
    4        3.361203   1.000000
    5        3.521805   1.000000
    6        3.624798   1.000000
    7        3.746990   1.000000
    8        4.026358   1.000000
    9        4.052522   1.000000
   10        4.198716   1.000000
   11        4.466791   1.000000
   12        4.570903   1.000000
   13        4.777147   1.000000
   14        4.968921   1.000000
   15        5.065227   1.000000
   16        5.122492   1.000000
   17        5.193314   1.000000
   18        5.238334   1.000000
   19        5.412468   1.000000
   20        5.517124   1.000000
   21        5.520668   1.000000
   22        5.949529   1.000000
   23        9.483905  -0.000000
   24       11.709384  -0.000000
   25       12.855804   0.000000
   26       15.513615   0.000000
   27       15.548099   0.000000
   28       17.009050   0.000000
   29       18.821614   0.000000
   30       20.283455   0.000000
 
  0.4000000E+00  0.4000000E+00  0.0000000E+00  0.9600000E-01
    1        1.581741   1.000000
    2        2.850415   1.000000
    3        2.850415   1.000000
    4        3.360950   1.000000
    5        3.748168   1.000000
    6        3.748168   1.000000
    7        3.788636   1.000000
    8        3.968413   1.000000
    9        4.016028   1.000000
   10        4.052222   1.000000
   11        4.052222   1.000000
   12        4.270482   1.000000
   13        4.844371   1.000000
   14        4.877380   1.000000
   15        4.953198   1.000000
   16        4.981428   1.000000
   17        4.981428   1.000000
   18        5.145998   1.000000
   19        5.145998   1.000000
   20        5.269126   1.000000
   21        5.911551   1.000000
   22        7.009829   0.963960
   23        7.009829   0.963960
   24        8.821399  -0.000000
   25       14.627840   0.000000
   26       16.492752   0.000000
   27       17.165602   0.000000
   28       17.165602   0.000000
   29       18.273125   0.000000
   30       18.273125   0.000000
 
  0.2000000E+00  0.2000000E+00  0.2000000E+00  0.6400000E-01
    1       -0.413991   1.000000
    2        2.989040   1.000000
    3        2.989040   1.000000
    4        2.989040   1.000000
    5        3.380995   1.000000
    6        3.380995   1.000000
    7        3.380995   1.000000
    8        4.189391   1.000000
    9        4.540633   1.000000
   10        4.540633   1.000000
   11        4.622281   1.000000
   12        4.622281   1.000000
   13        4.622281   1.000000
   14        5.085133   1.000000
   15        5.085133   1.000000
   16        5.085513   1.000000
   17        5.085513   1.000000
   18        5.085513   1.000000
   19        5.620047   1.000000
   20        5.620047   1.000000
   21        5.620047   1.000000
   22        8.415960  -0.000000
   23        8.415960  -0.000000
   24        8.415960  -0.000000
   25       15.286504   0.000000
   26       15.286504   0.000000
   27       15.286504   0.000000
   28       18.091140   0.000000
   29       18.091140   0.000000
   30       18.091140   0.000000
 
  0.4000000E+00  0.2000000E+00  0.2000000E+00  0.1920000E+00
    1        0.835355   1.000000
    2        2.361589   1.000000
    3        3.294388   1.000000
    4        3.294388   1.000000
    5        3.590039   1.000000
    6        3.590039   1.000000
    7        3.767745   1.000000
    8        4.086016   1.000000
    9        4.193110   1.000000
   10        4.193110   1.000000
   11        4.383746   1.000000
   12        4.550751   1.000000
   13        4.684248   1.000000
   14        4.909083   1.000000
   15        4.933828   1.000000
   16        4.933828   1.000000
   17        5.247615   1.000000
   18        5.356892   1.000000
   19        5.553237   1.000000
   20        5.553237   1.000000
   21        5.587557   1.000000
   22        6.142282   1.000000
   23        9.787885  -0.000000
   24        9.787885  -0.000000
   25       12.463951  -0.000000
   26       12.463951  -0.000000
   27       16.816007   0.000000
   28       19.126091   0.000000
   29       19.201089   0.000000
   30       19.201089   0.000000
 
  0.4000000E+00  0.4000000E+00  0.2000000E+00  0.1920000E+00
    1        1.775993   1.000000
    2        2.741387   1.000000
    3        2.741387   1.000000
    4        3.040245   1.000000
    5        3.964793   1.000000
    6        4.012590   1.000000
    7        4.012590   1.000000
    8        4.196670   1.000000
    9        4.298078   1.000000
   10        4.298078   1.000000
   11        4.347885   1.000000
   12        4.420398   1.000000
   13        4.582646   1.000000
   14        4.727266   1.000000
   15        4.734297   1.000000
   16        4.734297   1.000000
   17        5.225993   1.000000
   18        5.484260   1.000000
   19        5.484260   1.000000
   20        5.488593   1.000000
   21        5.801956   1.000000
   22        7.080721   0.782134
   23        7.080721   0.782134
   24        8.772880  -0.000000
   25       11.882941  -0.000000
   26       13.867966   0.000000
   27       13.867966   0.000000
   28       16.101275   0.000000
   29       20.417057   0.000000
   30       22.408770   0.000000
 
  0.4000000E+00  0.4000000E+00  0.4000000E+00  0.6400000E-01
    1        2.134505   1.000000
    2        2.518511   1.000000
    3        2.518511   1.000000
    4        2.518511   1.000000
    5        4.262061   1.000000
    6        4.262061   1.000000
    7        4.262061   1.000000
    8        4.382494   1.000000
    9        4.382494   1.000000
   10        4.527745   1.000000
   11        4.527745   1.000000
   12        4.527745   1.000000
   13        4.870110   1.000000
   14        4.870110   1.000000
   15        4.870110   1.000000
   16        5.163991   1.000000
   17        5.538244   1.000000
   18        5.538244   1.000000
   19        5.649560   1.000000
   20        5.649560   1.000000
   21        5.649560   1.000000
   22        7.237475   0.173001
   23        7.237475   0.173001
   24        7.237475   0.173001
   25       11.407307  -0.000000
   26       11.407307  -0.000000
   27       11.407307  -0.000000
   28       13.192473   0.000000
   29       25.698303   0.000000
   30       25.698303   0.000000
