unknown system                          
   1.00000000000000     
     3.635000    0.000000    0.000000
     0.000000    3.635000    0.000000
     0.000000    0.000000    3.635000
   Cu
     4
Direct
  0.000000  0.000000  0.000000
  0.500000  0.500000  0.000000
  0.500000  0.000000  0.500000
  0.000000  0.500000  0.500000
 
   28   28   28
  840.95      778.48      615.94      412.79      230.32      105.38      42.632      21.721      14.001      10.188    
  8.7562      7.8425      7.3650      7.6117      7.8912      7.6117      7.3650      7.8425      8.7562      10.188    
  14.001      21.721      42.632      105.38      230.32      412.79      615.94      778.48      778.48      720.30    
  569.00      380.17      211.19      96.445      39.757      21.170      13.791      10.136      8.7218      7.7804    
  7.2386      7.3854      7.6117      7.3854      7.2386      7.7804      8.7218      10.136      13.791      21.170    
  39.757      96.445      211.19      380.17      569.00      720.30      615.94      569.00      447.16      295.95    
  162.41      74.237      32.950      19.722      13.198      10.008      8.7199      7.8257      7.2490      7.2386    
  7.3650      7.2386      7.2490      7.8257      8.7199      10.008      13.198      19.722      32.950      74.237    
  162.41      295.95      447.16      569.00      412.79      380.17      295.95      192.85      104.43      49.374    
  25.999      17.603      12.341      9.8585      8.8713      8.2347      7.8257      7.7804      7.8425      7.7804    
  7.8257      8.2347      8.8713      9.8585      12.341      17.603      25.999      49.374      104.43      192.85    
  295.95      380.17      230.32      211.19      162.41      104.43      57.562      31.326      21.080      15.179    
  11.427      9.7518      9.1577      8.8713      8.7199      8.7218      8.7562      8.7218      8.7199      8.8713    
  9.1577      9.7518      11.427      15.179      21.080      31.326      57.562      104.43      162.41      211.19    
  105.38      96.445      74.237      49.374      31.326      22.315      16.978      12.980      10.738      9.8842    
  9.7518      9.8585      10.008      10.136      10.188      10.136      10.008      9.8585      9.7518      9.8842    
  10.738      12.980      16.978      22.315      31.326      49.374      74.237      96.445      42.632      39.757    
  32.950      25.999      21.080      16.978      13.598      11.472      10.622      10.738      11.427      12.341    
  13.198      13.791      14.001      13.791      13.198      12.341      11.427      10.738      10.622      11.472    
  13.598      16.978      21.080      25.999      32.950      39.757      21.721      21.170      19.722      17.603    
  15.179      12.980      11.472      10.940      11.472      12.980      15.179      17.603      19.722      21.170    
  21.721      21.170      19.722      17.603      15.179      12.980      11.472      10.940      11.472      12.980    
  15.179      17.603      19.722      21.170      14.001      13.791      13.198      12.341      11.427      10.738    
  10.622      11.472      13.598      16.978      21.080      25.999      32.950      39.757      42.632      39.757    
  32.950      25.999      21.080      16.978      13.598      11.472      10.622      10.738      11.427      12.341    
  13.198      13.791      10.188      10.136      10.008      9.8585      9.7518      9.8842      10.738      12.980    
  16.978      22.315      31.326      49.374      74.237      96.445      105.38      96.445      74.237      49.374    
  31.326      22.315      16.978      12.980      10.738      9.8842      9.7518      9.8585      10.008      10.136    
  8.7562      8.7218      8.7199      8.8713      9.1577      9.7518      11.427      15.179      21.080      31.326    
  57.562      104.43      162.41      211.19      230.32      211.19      162.41      104.43      57.562      31.326    
  21.080      15.179      11.427      9.7518      9.1577      8.8713      8.7199      8.7218      7.8425      7.7804    
  7.8257      8.2347      8.8713      9.8585      12.341      17.603      25.999      49.374      104.43      192.85    
  295.95      380.17      412.79      380.17      295.95      192.85      104.43      49.374      25.999      17.603    
  12.341      9.8585      8.8713      8.2347      7.8257      7.7804      7.3650      7.2386      7.2490      7.8257    
  8.7199      10.008      13.198      19.722      32.950      74.237      162.41      295.95      447.16      569.00    
  615.94      569.00      447.16      295.95      162.41      74.237      32.950      19.722      13.198      10.008    
  8.7199      7.8257      7.2490      7.2386      7.6117      7.3854      7.2386      7.7804      8.7218      10.136    
  13.791      21.170      39.757      96.445      211.19      380.17      569.00      720.30      778.48      720.30    
  569.00      380.17      211.19      96.445      39.757      21.170      13.791      10.136      8.7218      7.7804    
  7.2386      7.3854      7.8912      7.6117      7.3650      7.8425      8.7562      10.188      14.001      21.721    
  42.632      105.38      230.32      412.79      615.94      778.48      840.95      778.48      615.94      412.79    
  230.32      105.38      42.632      21.721      14.001      10.188      8.7562      7.8425      7.3650      7.6117    
  7.6117      7.3854      7.2386      7.7804      8.7218      10.136      13.791      21.170      39.757      96.445    
  211.19      380.17      569.00      720.30      778.48      720.30      569.00      380.17      211.19      96.445    
  39.757      21.170      13.791      10.136      8.7218      7.7804      7.2386      7.3854      7.3650      7.2386    
  7.2490      7.8257      8.7199      10.008      13.198      19.722      32.950      74.237      162.41      295.95    
  447.16      569.00      615.94      569.00      447.16      295.95      162.41      74.237      32.950      19.722    
  13.198      10.008      8.7199      7.8257      7.2490      7.2386      7.8425      7.7804      7.8257      8.2347    
  8.8713      9.8585      12.341      17.603      25.999      49.374      104.43      192.85      295.95      380.17    
  412.79      380.17      295.95      192.85      104.43      49.374      25.999      17.603      12.341      9.8585    
  8.8713      8.2347      7.8257      7.7804      8.7562      8.7218      8.7199      8.8713      9.1577      9.7518    
  11.427      15.179      21.080      31.326      57.562      104.43      162.41      211.19      230.32      211.19    
  162.41      104.43      57.562      31.326      21.080      15.179      11.427      9.7518      9.1577      8.8713    
  8.7199      8.7218      10.188      10.136      10.008      9.8585      9.7518      9.8842      10.738      12.980    
  16.978      22.315      31.326      49.374      74.237      96.445      105.38      96.445      74.237      49.374    
  31.326      22.315      16.978      12.980      10.738      9.8842      9.7518      9.8585      10.008      10.136    
  14.001      13.791      13.198      12.341      11.427      10.738      10.622      11.472      13.598      16.978    
  21.080      25.999      32.950      39.757      42.632      39.757      32.950      25.999      21.080      16.978    
  13.598      11.472      10.622      10.738      11.427      12.341      13.198      13.791      21.721      21.170    
  19.722      17.603      15.179      12.980      11.472      10.940      11.472      12.980      15.179      17.603    
  19.722      21.170      21.721      21.170      19.722      17.603      15.179      12.980      11.472      10.940    
  11.472      12.980      15.179      17.603      19.722      21.170      42.632      39.757      32.950      25.999    
  21.080      16.978      13.598      11.472      10.622      10.738      11.427      12.341      13.198      13.791    
  14.001      13.791      13.198      12.341      11.427      10.738      10.622      11.472      13.598      16.978    
  21.080      25.999      32.950      39.757      105.38      96.445      74.237      49.374      31.326      22.315    
  16.978      12.980      10.738      9.8842      9.7518      9.8585      10.008      10.136      10.188      10.136    
  10.008      9.8585      9.7518      9.8842      10.738      12.980      16.978      22.315      31.326      49.374    
  74.237      96.445      230.32      211.19      162.41      104.43      57.562      31.326      21.080      15.179    
  11.427      9.7518      9.1577      8.8713      8.7199      8.7218      8.7562      8.7218      8.7199      8.8713    
  9.1577      9.7518      11.427      15.179      21.080      31.326      57.562      104.43      162.41      211.19    
  412.79      380.17      295.95      192.85      104.43      49.374      25.999      17.603      12.341      9.8585    
  8.8713      8.2347      7.8257      7.7804      7.8425      7.7804      7.8257      8.2347      8.8713      9.8585    
  12.341      17.603      25.999      49.374      104.43      192.85      295.95      380.17      615.94      569.00    
  447.16      295.95      162.41      74.237      32.950      19.722      13.198      10.008      8.7199      7.8257    
  7.2490      7.2386      7.3650      7.2386      7.2490      7.8257      8.7199      10.008      13.198      19.722    
  32.950      74.237      162.41      295.95      447.16      569.00      778.48      720.30      569.00      380.17    
  211.19      96.445      39.757      21.170      13.791      10.136      8.7218      7.7804      7.2386      7.3854    
  7.6117      7.3854      7.2386      7.7804      8.7218      10.136      13.791      21.170      39.757      96.445    
  211.19      380.17      569.00      720.30      778.48      720.30      569.00      380.17      211.19      96.445    
  39.757      21.170      13.791      10.136      8.7218      7.7804      7.2386      7.3854      7.6117      7.3854    
  7.2386      7.7804      8.7218      10.136      13.791      21.170      39.757      96.445      211.19      380.17    
  569.00      720.30      720.30      666.13      525.34      349.92      193.56      88.308      37.198      20.658    
  13.590      10.095      8.7061      7.7462      7.1503      7.2075      7.3854      7.2075      7.1503      7.7462    
  8.7061      10.095      13.590      20.658      37.198      88.308      193.56      349.92      525.34      666.13    
  569.00      525.34      412.12      271.90      148.68      68.155      31.163      19.264      13.023      9.9911    
  8.7399      7.8426      7.2295      7.1503      7.2386      7.1503      7.2295      7.8426      8.7399      9.9911    
  13.023      19.264      31.163      68.155      148.68      271.90      412.12      525.34      380.17      349.92    
  271.90      176.70      95.604      45.768      25.019      17.201      12.204      9.8612      8.9129      8.2784    
  7.8426      7.7462      7.7804      7.7462      7.8426      8.2784      8.9129      9.8612      12.204      17.201    
  25.019      45.768      95.604      176.70      271.90      349.92      211.19      193.56      148.68      95.604    
  53.113      29.720      20.517      14.866      11.329      9.7610      9.1986      8.9129      8.7399      8.7061    
  8.7218      8.7061      8.7399      8.9129      9.1986      9.7610      11.329      14.866      20.517      29.720    
  53.113      95.604      148.68      193.56      96.445      88.308      68.155      45.768      29.720      21.679    
  16.555      12.764      10.667      9.8779      9.7610      9.8612      9.9911      10.095      10.136      10.095    
  9.9911      9.8612      9.7610      9.8779      10.667      12.764      16.555      21.679      29.720      45.768    
  68.155      88.308      39.757      37.198      31.163      25.019      20.517      16.555      13.334      11.332    
  10.544      10.667      11.329      12.204      13.023      13.590      13.791      13.590      13.023      12.204    
  11.329      10.667      10.544      11.332      13.334      16.555      20.517      25.019      31.163      37.198    
  21.170      20.658      19.264      17.201      14.866      12.764      11.332      10.829      11.332      12.764    
  14.866      17.201      19.264      20.658      21.170      20.658      19.264      17.201      14.866      12.764    
  11.332      10.829      11.332      12.764      14.866      17.201      19.264      20.658      13.791      13.590    
  13.023      12.204      11.329      10.667      10.544      11.332      13.334      16.555      20.517      25.019    
  31.163      37.198      39.757      37.198      31.163      25.019      20.517      16.555      13.334      11.332    
  10.544      10.667      11.329      12.204      13.023      13.590      10.136      10.095      9.9911      9.8612    
  9.7610      9.8779      10.667      12.764      16.555      21.679      29.720      45.768      68.155      88.308    
  96.445      88.308      68.155      45.768      29.720      21.679      16.555      12.764      10.667      9.8779    
  9.7610      9.8612      9.9911      10.095      8.7218      8.7061      8.7399      8.9129      9.1986      9.7610    
  11.329      14.866      20.517      29.720      53.113      95.604      148.68      193.56      211.19      193.56    
  148.68      95.604      53.113      29.720      20.517      14.866      11.329      9.7610      9.1986      8.9129    
  8.7399      8.7061      7.7804      7.7462      7.8426      8.2784      8.9129      9.8612      12.204      17.201    
  25.019      45.768      95.604      176.70      271.90      349.92      380.17      349.92      271.90      176.70    
  95.604      45.768      25.019      17.201      12.204      9.8612      8.9129      8.2784      7.8426      7.7462    
  7.2386      7.1503      7.2295      7.8426      8.7399      9.9911      13.023      19.264      31.163      68.155    
  148.68      271.90      412.12      525.34      569.00      525.34      412.12      271.90      148.68      68.155    
  31.163      19.264      13.023      9.9911      8.7399      7.8426      7.2295      7.1503      7.3854      7.2075    
  7.1503      7.7462      8.7061      10.095      13.590      20.658      37.198      88.308      193.56      349.92    
  525.34      666.13      720.30      666.13      525.34      349.92      193.56      88.308      37.198      20.658    
  13.590      10.095      8.7061      7.7462      7.1503      7.2075      7.6117      7.3854      7.2386      7.7804    
  8.7218      10.136      13.791      21.170      39.757      96.445      211.19      380.17      569.00      720.30    
  778.48      720.30      569.00      380.17      211.19      96.445      39.757      21.170      13.791      10.136    
  8.7218      7.7804      7.2386      7.3854      7.3854      7.2075      7.1503      7.7462      8.7061      10.095    
  13.590      20.658      37.198      88.308      193.56      349.92      525.34      666.13      720.30      666.13    
  525.34      349.92      193.56      88.308      37.198      20.658      13.590      10.095      8.7061      7.7462    
  7.1503      7.2075      7.2386      7.1503      7.2295      7.8426      8.7399      9.9911      13.023      19.264    
  31.163      68.155      148.68      271.90      412.12      525.34      569.00      525.34      412.12      271.90    
  148.68      68.155      31.163      19.264      13.023      9.9911      8.7399      7.8426      7.2295      7.1503    
  7.7804      7.7462      7.8426      8.2784      8.9129      9.8612      12.204      17.201      25.019      45.768    
  95.604      176.70      271.90      349.92      380.17      349.92      271.90      176.70      95.604      45.768    
  25.019      17.201      12.204      9.8612      8.9129      8.2784      7.8426      7.7462      8.7218      8.7061    
  8.7399      8.9129      9.1986      9.7610      11.329      14.866      20.517      29.720      53.113      95.604    
  148.68      193.56      211.19      193.56      148.68      95.604      53.113      29.720      20.517      14.866    
  11.329      9.7610      9.1986      8.9129      8.7399      8.7061      10.136      10.095      9.9911      9.8612    
  9.7610      9.8779      10.667      12.764      16.555      21.679      29.720      45.768      68.155      88.308    
  96.445      88.308      68.155      45.768      29.720      21.679      16.555      12.764      10.667      9.8779    
  9.7610      9.8612      9.9911      10.095      13.791      13.590      13.023      12.204      11.329      10.667    
  10.544      11.332      13.334      16.555      20.517      25.019      31.163      37.198      39.757      37.198    
  31.163      25.019      20.517      16.555      13.334      11.332      10.544      10.667      11.329      12.204    
  13.023      13.590      21.170      20.658      19.264      17.201      14.866      12.764      11.332      10.829    
  11.332      12.764      14.866      17.201      19.264      20.658      21.170      20.658      19.264      17.201    
  14.866      12.764      11.332      10.829      11.332      12.764      14.866      17.201      19.264      20.658    
  39.757      37.198      31.163      25.019      20.517      16.555      13.334      11.332      10.544      10.667    
  11.329      12.204      13.023      13.590      13.791      13.590      13.023      12.204      11.329      10.667    
  10.544      11.332      13.334      16.555      20.517      25.019      31.163      37.198      96.445      88.308    
  68.155      45.768      29.720      21.679      16.555      12.764      10.667      9.8779      9.7610      9.8612    
  9.9911      10.095      10.136      10.095      9.9911      9.8612      9.7610      9.8779      10.667      12.764    
  16.555      21.679      29.720      45.768      68.155      88.308      211.19      193.56      148.68      95.604    
  53.113      29.720      20.517      14.866      11.329      9.7610      9.1986      8.9129      8.7399      8.7061    
  8.7218      8.7061      8.7399      8.9129      9.1986      9.7610      11.329      14.866      20.517      29.720    
  53.113      95.604      148.68      193.56      380.17      349.92      271.90      176.70      95.604      45.768    
  25.019      17.201      12.204      9.8612      8.9129      8.2784      7.8426      7.7462      7.7804      7.7462    
  7.8426      8.2784      8.9129      9.8612      12.204      17.201      25.019      45.768      95.604      176.70    
  271.90      349.92      569.00      525.34      412.12      271.90      148.68      68.155      31.163      19.264    
  13.023      9.9911      8.7399      7.8426      7.2295      7.1503      7.2386      7.1503      7.2295      7.8426    
  8.7399      9.9911      13.023      19.264      31.163      68.155      148.68      271.90      412.12      525.34    
  720.30      666.13      525.34      349.92      193.56      88.308      37.198      20.658      13.590      10.095    
  8.7061      7.7462      7.1503      7.2075      7.3854      7.2075      7.1503      7.7462      8.7061      10.095    
  13.590      20.658      37.198      88.308      193.56      349.92      525.34      666.13      615.94      569.00    
  447.16      295.95      162.41      74.237      32.950      19.722      13.198      10.008      8.7199      7.8257    
  7.2490      7.2386      7.3650      7.2386      7.2490      7.8257      8.7199      10.008      13.198      19.722    
  32.950      74.237      162.41      295.95      447.16      569.00      569.00      525.34      412.12      271.90    
  148.68      68.155      31.163      19.264      13.023      9.9911      8.7399      7.8426      7.2295      7.1503    
  7.2386      7.1503      7.2295      7.8426      8.7399      9.9911      13.023      19.264      31.163      68.155    
  148.68      271.90      412.12      525.34      447.16      412.12      321.50      210.16      113.97      53.261    
  26.981      17.971      12.531      9.9389      8.8363      8.0167      7.4082      7.2295      7.2490      7.2295    
  7.4082      8.0167      8.8363      9.9389      12.531      17.971      26.981      53.261      113.97      210.16    
  321.50      412.12      295.95      271.90      210.16      135.65      73.619      37.123      22.672      16.091    
  11.820      9.8528      9.0333      8.4569      8.0167      7.8426      7.8257      7.8426      8.0167      8.4569    
  9.0333      9.8528      11.820      16.091      22.672      37.123      73.619      135.65      210.16      271.90    
  162.41      148.68      113.97      73.619      42.343      25.949      18.957      14.021      11.062      9.7710    
  9.2968      9.0333      8.8363      8.7399      8.7199      8.7399      8.8363      9.0333      9.2968      9.7710    
  11.062      14.021      18.957      25.949      42.343      73.619      113.97      148.68      74.237      68.155    
  53.261      37.123      25.949      19.973      15.417      12.198      10.481      9.8547      9.7710      9.8528    
  9.9389      9.9911      10.008      9.9911      9.9389      9.8528      9.7710      9.8547      10.481      12.198    
  15.417      19.973      25.949      37.123      53.261      68.155      32.950      31.163      26.981      22.672    
  18.957      15.417      12.644      10.976      10.349      10.481      11.062      11.820      12.531      13.023    
  13.198      13.023      12.531      11.820      11.062      10.481      10.349      10.976      12.644      15.417    
  18.957      22.672      26.981      31.163      19.722      19.264      17.971      16.091      14.021      12.198    
  10.976      10.549      10.976      12.198      14.021      16.091      17.971      19.264      19.722      19.264    
  17.971      16.091      14.021      12.198      10.976      10.549      10.976      12.198      14.021      16.091    
  17.971      19.264      13.198      13.023      12.531      11.820      11.062      10.481      10.349      10.976    
  12.644      15.417      18.957      22.672      26.981      31.163      32.950      31.163      26.981      22.672    
  18.957      15.417      12.644      10.976      10.349      10.481      11.062      11.820      12.531      13.023    
  10.008      9.9911      9.9389      9.8528      9.7710      9.8547      10.481      12.198      15.417      19.973    
  25.949      37.123      53.261      68.155      74.237      68.155      53.261      37.123      25.949      19.973    
  15.417      12.198      10.481      9.8547      9.7710      9.8528      9.9389      9.9911      8.7199      8.7399    
  8.8363      9.0333      9.2968      9.7710      11.062      14.021      18.957      25.949      42.343      73.619    
  113.97      148.68      162.41      148.68      113.97      73.619      42.343      25.949      18.957      14.021    
  11.062      9.7710      9.2968      9.0333      8.8363      8.7399      7.8257      7.8426      8.0167      8.4569    
  9.0333      9.8528      11.820      16.091      22.672      37.123      73.619      135.65      210.16      271.90    
  295.95      271.90      210.16      135.65      73.619      37.123      22.672      16.091      11.820      9.8528    
  9.0333      8.4569      8.0167      7.8426      7.2490      7.2295      7.4082      8.0167      8.8363      9.9389    
  12.531      17.971      26.981      53.261      113.97      210.16      321.50      412.12      447.16      412.12    
  321.50      210.16      113.97      53.261      26.981      17.971      12.531      9.9389      8.8363      8.0167    
  7.4082      7.2295      7.2386      7.1503      7.2295      7.8426      8.7399      9.9911      13.023      19.264    
  31.163      68.155      148.68      271.90      412.12      525.34      569.00      525.34      412.12      271.90    
  148.68      68.155      31.163      19.264      13.023      9.9911      8.7399      7.8426      7.2295      7.1503    
  7.3650      7.2386      7.2490      7.8257      8.7199      10.008      13.198      19.722      32.950      74.237    
  162.41      295.95      447.16      569.00      615.94      569.00      447.16      295.95      162.41      74.237    
  32.950      19.722      13.198      10.008      8.7199      7.8257      7.2490      7.2386      7.2386      7.1503    
  7.2295      7.8426      8.7399      9.9911      13.023      19.264      31.163      68.155      148.68      271.90    
  412.12      525.34      569.00      525.34      412.12      271.90      148.68      68.155      31.163      19.264    
  13.023      9.9911      8.7399      7.8426      7.2295      7.1503      7.2490      7.2295      7.4082      8.0167    
  8.8363      9.9389      12.531      17.971      26.981      53.261      113.97      210.16      321.50      412.12    
  447.16      412.12      321.50      210.16      113.97      53.261      26.981      17.971      12.531      9.9389    
  8.8363      8.0167      7.4082      7.2295      7.8257      7.8426      8.0167      8.4569      9.0333      9.8528    
  11.820      16.091      22.672      37.123      73.619      135.65      210.16      271.90      295.95      271.90    
  210.16      135.65      73.619      37.123      22.672      16.091      11.820      9.8528      9.0333      8.4569    
  8.0167      7.8426      8.7199      8.7399      8.8363      9.0333      9.2968      9.7710      11.062      14.021    
  18.957      25.949      42.343      73.619      113.97      148.68      162.41      148.68      113.97      73.619    
  42.343      25.949      18.957      14.021      11.062      9.7710      9.2968      9.0333      8.8363      8.7399    
  10.008      9.9911      9.9389      9.8528      9.7710      9.8547      10.481      12.198      15.417      19.973    
  25.949      37.123      53.261      68.155      74.237      68.155      53.261      37.123      25.949      19.973    
  15.417      12.198      10.481      9.8547      9.7710      9.8528      9.9389      9.9911      13.198      13.023    
  12.531      11.820      11.062      10.481      10.349      10.976      12.644      15.417      18.957      22.672    
  26.981      31.163      32.950      31.163      26.981      22.672      18.957      15.417      12.644      10.976    
  10.349      10.481      11.062      11.820      12.531      13.023      19.722      19.264      17.971      16.091    
  14.021      12.198      10.976      10.549      10.976      12.198      14.021      16.091      17.971      19.264    
  19.722      19.264      17.971      16.091      14.021      12.198      10.976      10.549      10.976      12.198    
  14.021      16.091      17.971      19.264      32.950      31.163      26.981      22.672      18.957      15.417    
  12.644      10.976      10.349      10.481      11.062      11.820      12.531      13.023      13.198      13.023    
  12.531      11.820      11.062      10.481      10.349      10.976      12.644      15.417      18.957      22.672    
  26.981      31.163      74.237      68.155      53.261      37.123      25.949      19.973      15.417      12.198    
  10.481      9.8547      9.7710      9.8528      9.9389      9.9911      10.008      9.9911      9.9389      9.8528    
  9.7710      9.8547      10.481      12.198      15.417      19.973      25.949      37.123      53.261      68.155    
  162.41      148.68      113.97      73.619      42.343      25.949      18.957      14.021      11.062      9.7710    
  9.2968      9.0333      8.8363      8.7399      8.7199      8.7399      8.8363      9.0333      9.2968      9.7710    
  11.062      14.021      18.957      25.949      42.343      73.619      113.97      148.68      295.95      271.90    
  210.16      135.65      73.619      37.123      22.672      16.091      11.820      9.8528      9.0333      8.4569    
  8.0167      7.8426      7.8257      7.8426      8.0167      8.4569      9.0333      9.8528      11.820      16.091    
  22.672      37.123      73.619      135.65      210.16      271.90      447.16      412.12      321.50      210.16    
  113.97      53.261      26.981      17.971      12.531      9.9389      8.8363      8.0167      7.4082      7.2295    
  7.2490      7.2295      7.4082      8.0167      8.8363      9.9389      12.531      17.971      26.981      53.261    
  113.97      210.16      321.50      412.12      569.00      525.34      412.12      271.90      148.68      68.155    
  31.163      19.264      13.023      9.9911      8.7399      7.8426      7.2295      7.1503      7.2386      7.1503    
  7.2295      7.8426      8.7399      9.9911      13.023      19.264      31.163      68.155      148.68      271.90    
  412.12      525.34      412.79      380.17      295.95      192.85      104.43      49.374      25.999      17.603    
  12.341      9.8585      8.8713      8.2347      7.8257      7.7804      7.8425      7.7804      7.8257      8.2347    
  8.8713      9.8585      12.341      17.603      25.999      49.374      104.43      192.85      295.95      380.17    
  380.17      349.92      271.90      176.70      95.604      45.768      25.019      17.201      12.204      9.8612    
  8.9129      8.2784      7.8426      7.7462      7.7804      7.7462      7.8426      8.2784      8.9129      9.8612    
  12.204      17.201      25.019      45.768      95.604      176.70      271.90      349.92      295.95      271.90    
  210.16      135.65      73.619      37.123      22.672      16.091      11.820      9.8528      9.0333      8.4569    
  8.0167      7.8426      7.8257      7.8426      8.0167      8.4569      9.0333      9.8528      11.820      16.091    
  22.672      37.123      73.619      135.65      210.16      271.90      192.85      176.70      135.65      87.300    
  48.929      28.136      19.856      14.536      11.273      9.8105      9.2059      8.7929      8.4569      8.2784    