unknown system                          
   1.00000000000000     
     3.635000    0.000000    0.000000
     0.000000    3.635000    0.000000
     0.000000    0.000000    3.635000
   Cu
     4
Direct
  0.000000  0.000000  0.000000
  0.500000  0.500000  0.000000
  0.500000  0.000000  0.500000
  0.000000  0.500000  0.500000
 
   28   28   28
 0.84094676714E+03 0.77847645148E+03 0.61593815594E+03 0.41278729871E+03 0.23032013699E+03
 0.10538064451E+03 0.42631765694E+02 0.21720737094E+02 0.14000922992E+02 0.10188075511E+02
 0.87562038664E+01 0.78425324994E+01 0.73649865537E+01 0.76117149326E+01 0.78912457814E+01
 0.76117149326E+01 0.73649865537E+01 0.78425324994E+01 0.87562038664E+01 0.10188075511E+02
 0.14000922992E+02 0.21720737094E+02 0.42631765694E+02 0.10538064451E+03 0.23032013699E+03
 0.41278729871E+03 0.61593815594E+03 0.77847645148E+03 0.77847645148E+03 0.72029839857E+03
 0.56899821241E+03 0.38016937573E+03 0.21119291723E+03 0.96444615424E+02 0.39757151991E+02
 0.21169532507E+02 0.13790706810E+02 0.10135773144E+02 0.87218383552E+01 0.77804090539E+01
 0.72385889831E+01 0.73854163005E+01 0.76117149326E+01 0.73854163005E+01 0.72385889831E+01
 0.77804090539E+01 0.87218383552E+01 0.10135773144E+02 0.13790706810E+02 0.21169532507E+02
 0.39757151991E+02 0.96444615424E+02 0.21119291723E+03 0.38016937573E+03 0.56899821241E+03
 0.72029839857E+03 0.61593815594E+03 0.56899821241E+03 0.44716242524E+03 0.29595351297E+03
 0.16241063715E+03 0.74236738738E+02 0.32949541698E+02 0.19722178576E+02 0.13197500013E+02
 0.10008038860E+02 0.87198699922E+01 0.78257408457E+01 0.72490032347E+01 0.72385889831E+01
 0.73649865537E+01 0.72385889831E+01 0.72490032347E+01 0.78257408457E+01 0.87198699922E+01
 0.10008038860E+02 0.13197500013E+02 0.19722178576E+02 0.32949541698E+02 0.74236738738E+02
 0.16241063715E+03 0.29595351297E+03 0.44716242524E+03 0.56899821241E+03 0.41278729871E+03
 0.38016937573E+03 0.29595351297E+03 0.19285409252E+03 0.10443467746E+03 0.49373698885E+02
 0.25999333167E+02 0.17602873607E+02 0.12340931098E+02 0.98585192068E+01 0.88713145112E+01
 0.82347412238E+01 0.78257408457E+01 0.77804090539E+01 0.78425324994E+01 0.77804090539E+01
 0.78257408457E+01 0.82347412238E+01 0.88713145112E+01 0.98585192068E+01 0.12340931098E+02
 0.17602873607E+02 0.25999333167E+02 0.49373698885E+02 0.10443467746E+03 0.19285409252E+03
 0.29595351297E+03 0.38016937573E+03 0.23032013699E+03 0.21119291723E+03 0.16241063715E+03
 0.10443467746E+03 0.57561580586E+02 0.31325677622E+02 0.21079565023E+02 0.15179331519E+02
 0.11427290945E+02 0.97517552496E+01 0.91576994870E+01 0.88713145112E+01 0.87198699922E+01
 0.87218383552E+01 0.87562038664E+01 0.87218383552E+01 0.87198699922E+01 0.88713145112E+01
 0.91576994870E+01 0.97517552496E+01 0.11427290945E+02 0.15179331519E+02 0.21079565023E+02
 0.31325677622E+02 0.57561580586E+02 0.10443467746E+03 0.16241063715E+03 0.21119291723E+03
 0.10538064451E+03 0.96444615424E+02 0.74236738738E+02 0.49373698885E+02 0.31325677622E+02
 0.22315320253E+02 0.16978053584E+02 0.12979503584E+02 0.10738189871E+02 0.98842454281E+01
 0.97517552496E+01 0.98585192068E+01 0.10008038860E+02 0.10135773144E+02 0.10188075511E+02
 0.10135773144E+02 0.10008038860E+02 0.98585192068E+01 0.97517552496E+01 0.98842454281E+01
 0.10738189871E+02 0.12979503584E+02 0.16978053584E+02 0.22315320253E+02 0.31325677622E+02
 0.49373698885E+02 0.74236738738E+02 0.96444615424E+02 0.42631765694E+02 0.39757151991E+02
 0.32949541698E+02 0.25999333167E+02 0.21079565023E+02 0.16978053584E+02 0.13597985179E+02
 0.11472103640E+02 0.10622257842E+02 0.10738189871E+02 0.11427290945E+02 0.12340931098E+02
 0.13197500013E+02 0.13790706810E+02 0.14000922992E+02 0.13790706810E+02 0.13197500013E+02
 0.12340931098E+02 0.11427290945E+02 0.10738189871E+02 0.10622257842E+02 0.11472103640E+02
 0.13597985179E+02 0.16978053584E+02 0.21079565023E+02 0.25999333167E+02 0.32949541698E+02
 0.39757151991E+02 0.21720737094E+02 0.21169532507E+02 0.19722178576E+02 0.17602873607E+02
 0.15179331519E+02 0.12979503584E+02 0.11472103640E+02 0.10940360871E+02 0.11472103640E+02
 0.12979503584E+02 0.15179331519E+02 0.17602873607E+02 0.19722178576E+02 0.21169532507E+02
 0.21720737094E+02 0.21169532507E+02 0.19722178576E+02 0.17602873607E+02 0.15179331519E+02
 0.12979503584E+02 0.11472103640E+02 0.10940360871E+02 0.11472103640E+02 0.12979503584E+02
 0.15179331519E+02 0.17602873607E+02 0.19722178576E+02 0.21169532507E+02 0.14000922992E+02
 0.13790706810E+02 0.13197500013E+02 0.12340931098E+02 0.11427290945E+02 0.10738189871E+02
 0.10622257842E+02 0.11472103640E+02 0.13597985179E+02 0.16978053584E+02 0.21079565023E+02
 0.25999333167E+02 0.32949541698E+02 0.39757151991E+02 0.42631765694E+02 0.39757151991E+02
 0.32949541698E+02 0.25999333167E+02 0.21079565023E+02 0.16978053584E+02 0.13597985179E+02
 0.11472103640E+02 0.10622257842E+02 0.10738189871E+02 0.11427290945E+02 0.12340931098E+02
 0.13197500013E+02 0.13790706810E+02 0.10188075511E+02 0.10135773144E+02 0.10008038860E+02
 0.98585192068E+01 0.97517552496E+01 0.98842454281E+01 0.10738189871E+02 0.12979503584E+02
 0.16978053584E+02 0.22315320253E+02 0.31325677622E+02 0.49373698885E+02 0.74236738738E+02
 0.96444615424E+02 0.10538064451E+03 0.96444615424E+02 0.74236738738E+02 0.49373698885E+02
 0.31325677622E+02 0.22315320253E+02 0.16978053584E+02 0.12979503584E+02 0.10738189871E+02
 0.98842454281E+01 0.97517552496E+01 0.98585192068E+01 0.10008038860E+02 0.10135773144E+02
 0.87562038664E+01 0.87218383552E+01 0.87198699922E+01 0.88713145112E+01 0.91576994870E+01
 0.97517552496E+01 0.11427290945E+02 0.15179331519E+02 0.21079565023E+02 0.31325677622E+02
 0.57561580586E+02 0.10443467746E+03 0.16241063715E+03 0.21119291723E+03 0.23032013699E+03
 0.21119291723E+03 0.16241063715E+03 0.10443467746E+03 0.57561580586E+02 0.31325677622E+02
 0.21079565023E+02 0.15179331519E+02 0.11427290945E+02 0.97517552496E+01 0.91576994870E+01
 0.88713145112E+01 0.87198699922E+01 0.87218383552E+01 0.78425324994E+01 0.77804090539E+01
 0.78257408457E+01 0.82347412238E+01 0.88713145112E+01 0.98585192068E+01 0.12340931098E+02
 0.17602873607E+02 0.25999333167E+02 0.49373698885E+02 0.10443467746E+03 0.19285409252E+03
 0.29595351297E+03 0.38016937573E+03 0.41278729871E+03 0.38016937573E+03 0.29595351297E+03
 0.19285409252E+03 0.10443467746E+03 0.49373698885E+02 0.25999333167E+02 0.17602873607E+02
 0.12340931098E+02 0.98585192068E+01 0.88713145112E+01 0.82347412238E+01 0.78257408457E+01
 0.77804090539E+01 0.73649865537E+01 0.72385889831E+01 0.72490032347E+01 0.78257408457E+01
 0.87198699922E+01 0.10008038860E+02 0.13197500013E+02 0.19722178576E+02 0.32949541698E+02
 0.74236738738E+02 0.16241063715E+03 0.29595351297E+03 0.44716242524E+03 0.56899821241E+03
 0.61593815594E+03 0.56899821241E+03 0.44716242524E+03 0.29595351297E+03 0.16241063715E+03
 0.74236738738E+02 0.32949541698E+02 0.19722178576E+02 0.13197500013E+02 0.10008038860E+02
 0.87198699922E+01 0.78257408457E+01 0.72490032347E+01 0.72385889831E+01 0.76117149326E+01
 0.73854163005E+01 0.72385889831E+01 0.77804090539E+01 0.87218383552E+01 0.10135773144E+02
 0.13790706810E+02 0.21169532507E+02 0.39757151991E+02 0.96444615424E+02 0.21119291723E+03
 0.38016937573E+03 0.56899821241E+03 0.72029839857E+03 0.77847645148E+03 0.72029839857E+03
 0.56899821241E+03 0.38016937573E+03 0.21119291723E+03 0.96444615424E+02 0.39757151991E+02
 0.21169532507E+02 0.13790706810E+02 0.10135773144E+02 0.87218383552E+01 0.77804090539E+01
 0.72385889831E+01 0.73854163005E+01 0.78912457814E+01 0.76117149326E+01 0.73649865537E+01
 0.78425324994E+01 0.87562038664E+01 0.10188075511E+02 0.14000922992E+02 0.21720737094E+02
 0.42631765694E+02 0.10538064451E+03 0.23032013699E+03 0.41278729871E+03 0.61593815594E+03
 0.77847645148E+03 0.84094676714E+03 0.77847645148E+03 0.61593815594E+03 0.41278729871E+03
 0.23032013699E+03 0.10538064451E+03 0.42631765694E+02 0.21720737094E+02 0.14000922992E+02
 0.10188075511E+02 0.87562038664E+01 0.78425324994E+01 0.73649865537E+01 0.76117149326E+01
 0.76117149326E+01 0.73854163005E+01 0.72385889831E+01 0.77804090539E+01 0.87218383552E+01
 0.10135773144E+02 0.13790706810E+02 0.21169532507E+02 0.39757151991E+02 0.96444615424E+02
 0.21119291723E+03 0.38016937573E+03 0.56899821241E+03 0.72029839857E+03 0.77847645148E+03
 0.72029839857E+03 0.56899821241E+03 0.38016937573E+03 0.21119291723E+03 0.96444615424E+02
 0.39757151991E+02 0.21169532507E+02 0.13790706810E+02 0.10135773144E+02 0.87218383552E+01
 0.77804090539E+01 0.72385889831E+01 0.73854163005E+01 0.73649865537E+01 0.72385889831E+01
 0.72490032347E+01 0.78257408457E+01 0.87198699922E+01 0.10008038860E+02 0.13197500013E+02
 0.19722178576E+02 0.32949541698E+02 0.74236738738E+02 0.16241063715E+03 0.29595351297E+03
 0.44716242524E+03 0.56899821241E+03 0.61593815594E+03 0.56899821241E+03 0.44716242524E+03
 0.29595351297E+03 0.16241063715E+03 0.74236738738E+02 0.32949541698E+02 0.19722178576E+02
 0.13197500013E+02 0.10008038860E+02 0.87198699922E+01 0.78257408457E+01 0.72490032347E+01
 0.72385889831E+01 0.78425324994E+01 0.77804090539E+01 0.78257408457E+01 0.82347412238E+01
 0.88713145112E+01 0.98585192068E+01 0.12340931098E+02 0.17602873607E+02 0.25999333167E+02
 0.49373698885E+02 0.10443467746E+03 0.19285409252E+03 0.29595351297E+03 0.38016937573E+03
 0.41278729871E+03 0.38016937573E+03 0.29595351297E+03 0.19285409252E+03 0.10443467746E+03
 0.49373698885E+02 0.25999333167E+02 0.17602873607E+02 0.12340931098E+02 0.98585192068E+01
 0.88713145112E+01 0.82347412238E+01 0.78257408457E+01 0.77804090539E+01 0.87562038664E+01
 0.87218383552E+01 0.87198699922E+01 0.88713145112E+01 0.91576994870E+01 0.97517552496E+01
 0.11427290945E+02 0.15179331519E+02 0.21079565023E+02 0.31325677622E+02 0.57561580586E+02
 0.10443467746E+03 0.16241063715E+03 0.21119291723E+03 0.23032013699E+03 0.21119291723E+03
 0.16241063715E+03 0.10443467746E+03 0.57561580586E+02 0.31325677622E+02 0.21079565023E+02
 0.15179331519E+02 0.11427290945E+02 0.97517552496E+01 0.91576994870E+01 0.88713145112E+01
 0.87198699922E+01 0.87218383552E+01 0.10188075511E+02 0.10135773144E+02 0.10008038860E+02
 0.98585192068E+01 0.97517552496E+01 0.98842454281E+01 0.10738189871E+02 0.12979503584E+02
 0.16978053584E+02 0.22315320253E+02 0.31325677622E+02 0.49373698885E+02 0.74236738738E+02
 0.96444615424E+02 0.10538064451E+03 0.96444615424E+02 0.74236738738E+02 0.49373698885E+02
 0.31325677622E+02 0.22315320253E+02 0.16978053584E+02 0.12979503584E+02 0.10738189871E+02
 0.98842454281E+01 0.97517552496E+01 0.98585192068E+01 0.10008038860E+02 0.10135773144E+02
 0.14000922992E+02 0.13790706810E+02 0.13197500013E+02 0.12340931098E+02 0.11427290945E+02
 0.10738189871E+02 0.10622257842E+02 0.11472103640E+02 0.13597985179E+02 0.16978053584E+02
 0.21079565023E+02 0.25999333167E+02 0.32949541698E+02 0.39757151991E+02 0.42631765694E+02
 0.39757151991E+02 0.32949541698E+02 0.25999333167E+02 0.21079565023E+02 0.16978053584E+02
 0.13597985179E+02 0.11472103640E+02 0.10622257842E+02 0.10738189871E+02 0.11427290945E+02
 0.12340931098E+02 0.13197500013E+02 0.13790706810E+02 0.21720737094E+02 0.21169532507E+02
 0.19722178576E+02 0.17602873607E+02 0.15179331519E+02 0.12979503584E+02 0.11472103640E+02
 0.10940360871E+02 0.11472103640E+02 0.12979503584E+02 0.15179331519E+02 0.17602873607E+02
 0.19722178576E+02 0.21169532507E+02 0.21720737094E+02 0.21169532507E+02 0.19722178576E+02
 0.17602873607E+02 0.15179331519E+02 0.12979503584E+02 0.11472103640E+02 0.10940360871E+02
 0.11472103640E+02 0.12979503584E+02 0.15179331519E+02 0.17602873607E+02 0.19722178576E+02
 0.21169532507E+02 0.42631765694E+02 0.39757151991E+02 0.32949541698E+02 0.25999333167E+02
 0.21079565023E+02 0.16978053584E+02 0.13597985179E+02 0.11472103640E+02 0.10622257842E+02
 0.10738189871E+02 0.11427290945E+02 0.12340931098E+02 0.13197500013E+02 0.13790706810E+02
 0.14000922992E+02 0.13790706810E+02 0.13197500013E+02 0.12340931098E+02 0.11427290945E+02
 0.10738189871E+02 0.10622257842E+02 0.11472103640E+02 0.13597985179E+02 0.16978053584E+02
 0.21079565023E+02 0.25999333167E+02 0.32949541698E+02 0.39757151991E+02 0.10538064451E+03
 0.96444615424E+02 0.74236738738E+02 0.49373698885E+02 0.31325677622E+02 0.22315320253E+02
 0.16978053584E+02 0.12979503584E+02 0.10738189871E+02 0.98842454281E+01 0.97517552496E+01
 0.98585192068E+01 0.10008038860E+02 0.10135773144E+02 0.10188075511E+02 0.10135773144E+02
 0.10008038860E+02 0.98585192068E+01 0.97517552496E+01 0.98842454281E+01 0.10738189871E+02
 0.12979503584E+02 0.16978053584E+02 0.22315320253E+02 0.31325677622E+02 0.49373698885E+02
 0.74236738738E+02 0.96444615424E+02 0.23032013699E+03 0.21119291723E+03 0.16241063715E+03
 0.10443467746E+03 0.57561580586E+02 0.31325677622E+02 0.21079565023E+02 0.15179331519E+02
 0.11427290945E+02 0.97517552496E+01 0.91576994870E+01 0.88713145112E+01 0.87198699922E+01
 0.87218383552E+01 0.87562038664E+01 0.87218383552E+01 0.87198699922E+01 0.88713145112E+01
 0.91576994870E+01 0.97517552496E+01 0.11427290945E+02 0.15179331519E+02 0.21079565023E+02
 0.31325677622E+02 0.57561580586E+02 0.10443467746E+03 0.16241063715E+03 0.21119291723E+03
 0.41278729871E+03 0.38016937573E+03 0.29595351297E+03 0.19285409252E+03 0.10443467746E+03
 0.49373698885E+02 0.25999333167E+02 0.17602873607E+02 0.12340931098E+02 0.98585192068E+01
 0.88713145112E+01 0.82347412238E+01 0.78257408457E+01 0.77804090539E+01 0.78425324994E+01
 0.77804090539E+01 0.78257408457E+01 0.82347412238E+01 0.88713145112E+01 0.98585192068E+01
 0.12340931098E+02 0.17602873607E+02 0.25999333167E+02 0.49373698885E+02 0.10443467746E+03
 0.19285409252E+03 0.29595351297E+03 0.38016937573E+03 0.61593815594E+03 0.56899821241E+03
 0.44716242524E+03 0.29595351297E+03 0.16241063715E+03 0.74236738738E+02 0.32949541698E+02
 0.19722178576E+02 0.13197500013E+02 0.10008038860E+02 0.87198699922E+01 0.78257408457E+01
 0.72490032347E+01 0.72385889831E+01 0.73649865537E+01 0.72385889831E+01 0.72490032347E+01
 0.78257408457E+01 0.87198699922E+01 0.10008038860E+02 0.13197500013E+02 0.19722178576E+02
 0.32949541698E+02 0.74236738738E+02 0.16241063715E+03 0.29595351297E+03 0.44716242524E+03
 0.56899821241E+03 0.77847645148E+03 0.72029839857E+03 0.56899821241E+03 0.38016937573E+03
 0.21119291723E+03 0.96444615424E+02 0.39757151991E+02 0.21169532507E+02 0.13790706810E+02
 0.10135773144E+02 0.87218383552E+01 0.77804090539E+01 0.72385889831E+01 0.73854163005E+01
 0.76117149326E+01 0.73854163005E+01 0.72385889831E+01 0.77804090539E+01 0.87218383552E+01
 0.10135773144E+02 0.13790706810E+02 0.21169532507E+02 0.39757151991E+02 0.96444615424E+02
 0.21119291723E+03 0.38016937573E+03 0.56899821241E+03 0.72029839857E+03 0.77847645148E+03
 0.72029839857E+03 0.56899821241E+03 0.38016937573E+03 0.21119291723E+03 0.96444615424E+02
 0.39757151991E+02 0.21169532507E+02 0.13790706810E+02 0.10135773144E+02 0.87218383552E+01
 0.77804090539E+01 0.72385889831E+01 0.73854163005E+01 0.76117149326E+01 0.73854163005E+01
 0.72385889831E+01 0.77804090539E+01 0.87218383552E+01 0.10135773144E+02 0.13790706810E+02
 0.21169532507E+02 0.39757151991E+02 0.96444615424E+02 0.21119291723E+03 0.38016937573E+03
 0.56899821241E+03 0.72029839857E+03 0.72029839857E+03 0.66613235942E+03 0.52534210910E+03
 0.34991583726E+03 0.19355903794E+03 0.88307535963E+02 0.37198391735E+02 0.20657513727E+02
 0.13590102327E+02 0.10094791263E+02 0.87061376474E+01 0.77462318832E+01 0.71502862342E+01
 0.72075491346E+01 0.73854163005E+01 0.72075491346E+01 0.71502862342E+01 0.77462318832E+01
 0.87061376474E+01 0.10094791263E+02 0.13590102327E+02 0.20657513727E+02 0.37198391735E+02
 0.88307535963E+02 0.19355903794E+03 0.34991583726E+03 0.52534210910E+03 0.66613235942E+03
 0.56899821241E+03 0.52534210910E+03 0.41211872652E+03 0.27190246819E+03 0.14867821114E+03
 0.68154635799E+02 0.31162656449E+02 0.19264087887E+02 0.13023388511E+02 0.99911005159E+01
 0.87399361537E+01 0.78426005477E+01 0.72294723264E+01 0.71502862342E+01 0.72385889831E+01
 0.71502862342E+01 0.72294723264E+01 0.78426005477E+01 0.87399361537E+01 0.99911005159E+01
 0.13023388511E+02 0.19264087887E+02 0.31162656449E+02 0.68154635799E+02 0.14867821114E+03
 0.27190246819E+03 0.41211872652E+03 0.52534210910E+03 0.38016937573E+03 0.34991583726E+03
 0.27190246819E+03 0.17670077522E+03 0.95603798366E+02 0.45767534584E+02 0.25018717271E+02
 0.17201128630E+02 0.12204077088E+02 0.98611610647E+01 0.89128785495E+01 0.82783911819E+01
 0.78426005477E+01 0.77462318832E+01 0.77804090539E+01 0.77462318832E+01 0.78426005477E+01
 0.82783911819E+01 0.89128785495E+01 0.98611610647E+01 0.12204077088E+02 0.17201128630E+02
 0.25018717271E+02 0.45767534584E+02 0.95603798366E+02 0.17670077522E+03 0.27190246819E+03
 0.34991583726E+03 0.21119291723E+03 0.19355903794E+03 0.14867821114E+03 0.95603798366E+02
 0.53112797179E+02 0.29720378990E+02 0.20516603635E+02 0.14865804731E+02 0.11329352794E+02
 0.97609599504E+01 0.91985831391E+01 0.89128785495E+01 0.87399361537E+01 0.87061376474E+01
 0.87218383552E+01 0.87061376474E+01 0.87399361537E+01 0.89128785495E+01 0.91985831391E+01
 0.97609599504E+01 0.11329352794E+02 0.14865804731E+02 0.20516603635E+02 0.29720378990E+02
 0.53112797179E+02 0.95603798366E+02 0.14867821114E+03 0.19355903794E+03 0.96444615424E+02
 0.88307535963E+02 0.68154635799E+02 0.45767534584E+02 0.29720378990E+02 0.21678853197E+02
 0.16555231733E+02 0.12763892244E+02 0.10666821243E+02 0.98778903998E+01 0.97609599504E+01
 0.98611610647E+01 0.99911005159E+01 0.10094791263E+02 0.10135773144E+02 0.10094791263E+02
 0.99911005159E+01 0.98611610647E+01 0.97609599504E+01 0.98778903998E+01 0.10666821243E+02
 0.12763892244E+02 0.16555231733E+02 0.21678853197E+02 0.29720378990E+02 0.45767534584E+02
 0.68154635799E+02 0.88307535963E+02 0.39757151991E+02 0.37198391735E+02 0.31162656449E+02
 0.25018717271E+02 0.20516603635E+02 0.16555231733E+02 0.13334363723E+02 0.11332130488E+02
 0.10544228259E+02 0.10666821243E+02 0.11329352794E+02 0.12204077088E+02 0.13023388511E+02
 0.13590102327E+02 0.13790706810E+02 0.13590102327E+02 0.13023388511E+02 0.12204077088E+02
 0.11329352794E+02 0.10666821243E+02 0.10544228259E+02 0.11332130488E+02 0.13334363723E+02
 0.16555231733E+02 0.20516603635E+02 0.25018717271E+02 0.31162656449E+02 0.37198391735E+02
 0.21169532507E+02 0.20657513727E+02 0.19264087887E+02 0.17201128630E+02 0.14865804731E+02
 0.12763892244E+02 0.11332130488E+02 0.10828620851E+02 0.11332130488E+02 0.12763892244E+02
 0.14865804731E+02 0.17201128630E+02 0.19264087887E+02 0.20657513727E+02 0.21169532507E+02
 0.20657513727E+02 0.19264087887E+02 0.17201128630E+02 0.14865804731E+02 0.12763892244E+02
 0.11332130488E+02 0.10828620851E+02 0.11332130488E+02 0.12763892244E+02 0.14865804731E+02
 0.17201128630E+02 0.19264087887E+02 0.20657513727E+02 0.13790706810E+02 0.13590102327E+02
 0.13023388511E+02 0.12204077088E+02 0.11329352794E+02 0.10666821243E+02 0.10544228259E+02
 0.11332130488E+02 0.13334363723E+02 0.16555231733E+02 0.20516603635E+02 0.25018717271E+02
 0.31162656449E+02 0.37198391735E+02 0.39757151991E+02 0.37198391735E+02 0.31162656449E+02
 0.25018717271E+02 0.20516603635E+02 0.16555231733E+02 0.13334363723E+02 0.11332130488E+02
 0.10544228259E+02 0.10666821243E+02 0.11329352794E+02 0.12204077088E+02 0.13023388511E+02
 0.13590102327E+02 0.10135773144E+02 0.10094791263E+02 0.99911005159E+01 0.98611610647E+01
 0.97609599504E+01 0.98778903998E+01 0.10666821243E+02 0.12763892244E+02 0.16555231733E+02
 0.21678853197E+02 0.29720378990E+02 0.45767534584E+02 0.68154635799E+02 0.88307535963E+02
 0.96444615424E+02 0.88307535963E+02 0.68154635799E+02 0.45767534584E+02 0.29720378990E+02
 0.21678853197E+02 0.16555231733E+02 0.12763892244E+02 0.10666821243E+02 0.98778903998E+01
 0.97609599504E+01 0.98611610647E+01 0.99911005159E+01 0.10094791263E+02 0.87218383552E+01
 0.87061376474E+01 0.87399361537E+01 0.89128785495E+01 0.91985831391E+01 0.97609599504E+01
 0.11329352794E+02 0.14865804731E+02 0.20516603635E+02 0.29720378990E+02 0.53112797179E+02
 0.95603798366E+02 0.14867821114E+03 0.19355903794E+03 0.21119291723E+03 0.19355903794E+03
 0.14867821114E+03 0.95603798366E+02 0.53112797179E+02 0.29720378990E+02 0.20516603635E+02
 0.14865804731E+02 0.11329352794E+02 0.97609599504E+01 0.91985831391E+01 0.89128785495E+01
 0.87399361537E+01 0.87061376474E+01 0.77804090539E+01 0.77462318832E+01 0.78426005477E+01
 0.82783911819E+01 0.89128785495E+01 0.98611610647E+01 0.12204077088E+02 0.17201128630E+02
 0.25018717271E+02 0.45767534584E+02 0.95603798366E+02 0.17670077522E+03 0.27190246819E+03
 0.34991583726E+03 0.38016937573E+03 0.34991583726E+03 0.27190246819E+03 0.17670077522E+03
 0.95603798366E+02 0.45767534584E+02 0.25018717271E+02 0.17201128630E+02 0.12204077088E+02
 0.98611610647E+01 0.89128785495E+01 0.82783911819E+01 0.78426005477E+01 0.77462318832E+01
 0.72385889831E+01 0.71502862342E+01 0.72294723264E+01 0.78426005477E+01 0.87399361537E+01
 0.99911005159E+01 0.13023388511E+02 0.19264087887E+02 0.31162656449E+02 0.68154635799E+02
 0.14867821114E+03 0.27190246819E+03 0.41211872652E+03 0.52534210910E+03 0.56899821241E+03
 0.52534210910E+03 0.41211872652E+03 0.27190246819E+03 0.14867821114E+03 0.68154635799E+02
 0.31162656449E+02 0.19264087887E+02 0.13023388511E+02 0.99911005159E+01 0.87399361537E+01
 0.78426005477E+01 0.72294723264E+01 0.71502862342E+01 0.73854163005E+01 0.72075491346E+01
 0.71502862342E+01 0.77462318832E+01 0.87061376474E+01 0.10094791263E+02 0.13590102327E+02
 0.20657513727E+02 0.37198391735E+02 0.88307535963E+02 0.19355903794E+03 0.34991583726E+03
 0.52534210910E+03 0.66613235942E+03 0.72029839857E+03 0.66613235942E+03 0.52534210910E+03
 0.34991583726E+03 0.19355903794E+03 0.88307535963E+02 0.37198391735E+02 0.20657513727E+02
 0.13590102327E+02 0.10094791263E+02 0.87061376474E+01 0.77462318832E+01 0.71502862342E+01
 0.72075491346E+01 0.76117149326E+01 0.73854163005E+01 0.72385889831E+01 0.77804090539E+01
 0.87218383552E+01 0.10135773144E+02 0.13790706810E+02 0.21169532507E+02 0.39757151991E+02
 0.96444615424E+02 0.21119291723E+03 0.38016937573E+03 0.56899821241E+03 0.72029839857E+03
 0.77847645148E+03 0.72029839857E+03 0.56899821241E+03 0.38016937573E+03 0.21119291723E+03
 0.96444615424E+02 0.39757151991E+02 0.21169532507E+02 0.13790706810E+02 0.10135773144E+02
 0.87218383552E+01 0.77804090539E+01 0.72385889831E+01 0.73854163005E+01 0.73854163005E+01
 0.72075491346E+01 0.71502862342E+01 0.77462318832E+01 0.87061376474E+01 0.10094791263E+02
 0.13590102327E+02 0.20657513727E+02 0.37198391735E+02 0.88307535963E+02 0.19355903794E+03
 0.34991583726E+03 0.52534210910E+03 0.66613235942E+03 0.72029839857E+03 0.66613235942E+03
 0.52534210910E+03 0.34991583726E+03 0.19355903794E+03 0.88307535963E+02 0.37198391735E+02
 0.20657513727E+02 0.13590102327E+02 0.10094791263E+02 0.87061376474E+01 0.77462318832E+01
 0.71502862342E+01 0.72075491346E+01 0.72385889831E+01 0.71502862342E+01 0.72294723264E+01
 0.78426005477E+01 0.87399361537E+01 0.99911005159E+01 0.13023388511E+02 0.19264087887E+02
 0.31162656449E+02 0.68154635799E+02 0.14867821114E+03 0.27190246819E+03 0.41211872652E+03
 0.52534210910E+03 0.56899821241E+03 0.52534210910E+03 0.41211872652E+03 0.27190246819E+03
 0.14867821114E+03 0.68154635799E+02 0.31162656449E+02 0.19264087887E+02 0.13023388511E+02
 0.99911005159E+01 0.87399361537E+01 0.78426005477E+01 0.72294723264E+01 0.71502862342E+01
 0.77804090539E+01 0.77462318832E+01 0.78426005477E+01 0.82783911819E+01 0.89128785495E+01
 0.98611610647E+01 0.12204077088E+02 0.17201128630E+02 0.25018717271E+02 0.45767534584E+02
 0.95603798366E+02 0.17670077522E+03 0.27190246819E+03 0.34991583726E+03 0.38016937573E+03
 0.34991583726E+03 0.27190246819E+03 0.17670077522E+03 0.95603798366E+02 0.45767534584E+02
 0.25018717271E+02 0.17201128630E+02 0.12204077088E+02 0.98611610647E+01 0.89128785495E+01
 0.82783911819E+01 0.78426005477E+01 0.77462318832E+01 0.87218383552E+01 0.87061376474E+01
 0.87399361537E+01 0.89128785495E+01 0.91985831391E+01 0.97609599504E+01 0.11329352794E+02
 0.14865804731E+02 0.20516603635E+02 0.29720378990E+02 0.53112797179E+02 0.95603798366E+02
 0.14867821114E+03 0.19355903794E+03 0.21119291723E+03 0.19355903794E+03 0.14867821114E+03
 0.95603798366E+02 0.53112797179E+02 0.29720378990E+02 0.20516603635E+02 0.14865804731E+02
 0.11329352794E+02 0.97609599504E+01 0.91985831391E+01 0.89128785495E+01 0.87399361537E+01
 0.87061376474E+01 0.10135773144E+02 0.10094791263E+02 0.99911005159E+01 0.98611610647E+01
 0.97609599504E+01 0.98778903998E+01 0.10666821243E+02 0.12763892244E+02 0.16555231733E+02
 0.21678853197E+02 0.29720378990E+02 0.45767534584E+02 0.68154635799E+02 0.88307535963E+02
 0.96444615424E+02 0.88307535963E+02 0.68154635799E+02 0.45767534584E+02 0.29720378990E+02
 0.21678853197E+02 0.16555231733E+02 0.12763892244E+02 0.10666821243E+02 0.98778903998E+01
 0.97609599504E+01 0.98611610647E+01 0.99911005159E+01 0.10094791263E+02 0.13790706810E+02
 0.13590102327E+02 0.13023388511E+02 0.12204077088E+02 0.11329352794E+02 0.10666821243E+02
 0.10544228259E+02 0.11332130488E+02 0.13334363723E+02 0.16555231733E+02 0.20516603635E+02
 0.25018717271E+02 0.31162656449E+02 0.37198391735E+02 0.39757151991E+02 0.37198391735E+02
 0.31162656449E+02 0.25018717271E+02 0.20516603635E+02 0.16555231733E+02 0.13334363723E+02
 0.11332130488E+02 0.10544228259E+02 0.10666821243E+02 0.11329352794E+02 0.12204077088E+02
 0.13023388511E+02 0.13590102327E+02 0.21169532507E+02 0.20657513727E+02 0.19264087887E+02
 0.17201128630E+02 0.14865804731E+02 0.12763892244E+02 0.11332130488E+02 0.10828620851E+02
 0.11332130488E+02 0.12763892244E+02 0.14865804731E+02 0.17201128630E+02 0.19264087887E+02
 0.20657513727E+02 0.21169532507E+02 0.20657513727E+02 0.19264087887E+02 0.17201128630E+02
 0.14865804731E+02 0.12763892244E+02 0.11332130488E+02 0.10828620851E+02 0.11332130488E+02
 0.12763892244E+02 0.14865804731E+02 0.17201128630E+02 0.19264087887E+02 0.20657513727E+02
 0.39757151991E+02 0.37198391735E+02 0.31162656449E+02 0.25018717271E+02 0.20516603635E+02
 0.16555231733E+02 0.13334363723E+02 0.11332130488E+02 0.10544228259E+02 0.10666821243E+02
 0.11329352794E+02 0.12204077088E+02 0.13023388511E+02 0.13590102327E+02 0.13790706810E+02
 0.13590102327E+02 0.13023388511E+02 0.12204077088E+02 0.11329352794E+02 0.10666821243E+02
 0.10544228259E+02 0.11332130488E+02 0.13334363723E+02 0.16555231733E+02 0.20516603635E+02
 0.25018717271E+02 0.31162656449E+02 0.37198391735E+02 0.96444615424E+02 0.88307535963E+02
 0.68154635799E+02 0.45767534584E+02 0.29720378990E+02 0.21678853197E+02 0.16555231733E+02
 0.12763892244E+02 0.10666821243E+02 0.98778903998E+01 0.97609599504E+01 0.98611610647E+01
 0.99911005159E+01 0.10094791263E+02 0.10135773144E+02 0.10094791263E+02 0.99911005159E+01
 0.98611610647E+01 0.97609599504E+01 0.98778903998E+01 0.10666821243E+02 0.12763892244E+02
 0.16555231733E+02 0.21678853197E+02 0.29720378990E+02 0.45767534584E+02 0.68154635799E+02
 0.88307535963E+02 0.21119291723E+03 0.19355903794E+03 0.14867821114E+03 0.95603798366E+02
 0.53112797179E+02 0.29720378990E+02 0.20516603635E+02 0.14865804731E+02 0.11329352794E+02
 0.97609599504E+01 0.91985831391E+01 0.89128785495E+01 0.87399361537E+01 0.87061376474E+01
 0.87218383552E+01 0.87061376474E+01 0.87399361537E+01 0.89128785495E+01 0.91985831391E+01
 0.97609599504E+01 0.11329352794E+02 0.14865804731E+02 0.20516603635E+02 0.29720378990E+02
 0.53112797179E+02 0.95603798366E+02 0.14867821114E+03 0.19355903794E+03 0.38016937573E+03
 0.34991583726E+03 0.27190246819E+03 0.17670077522E+03 0.95603798366E+02 0.45767534584E+02
 0.25018717271E+02 0.17201128630E+02 0.12204077088E+02 0.98611610647E+01 0.89128785495E+01
 0.82783911819E+01 0.78426005477E+01 0.77462318832E+01 0.77804090539E+01 0.77462318832E+01
 0.78426005477E+01 0.82783911819E+01 0.89128785495E+01 0.98611610647E+01 0.12204077088E+02
 0.17201128630E+02 0.25018717271E+02 0.45767534584E+02 0.95603798366E+02 0.17670077522E+03
 0.27190246819E+03 0.34991583726E+03 0.56899821241E+03 0.52534210910E+03 0.41211872652E+03
 0.27190246819E+03 0.14867821114E+03 0.68154635799E+02 0.31162656449E+02 0.19264087887E+02
 0.13023388511E+02 0.99911005159E+01 0.87399361537E+01 0.78426005477E+01 0.72294723264E+01
 0.71502862342E+01 0.72385889831E+01 0.71502862342E+01 0.72294723264E+01 0.78426005477E+01
 0.87399361537E+01 0.99911005159E+01 0.13023388511E+02 0.19264087887E+02 0.31162656449E+02
 0.68154635799E+02 0.14867821114E+03 0.27190246819E+03 0.41211872652E+03 0.52534210910E+03
 0.72029839857E+03 0.66613235942E+03 0.52534210910E+03 0.34991583726E+03 0.19355903794E+03
 0.88307535963E+02 0.37198391735E+02 0.20657513727E+02 0.13590102327E+02 0.10094791263E+02
 0.87061376474E+01 0.77462318832E+01 0.71502862342E+01 0.72075491346E+01 0.73854163005E+01
 0.72075491346E+01 0.71502862342E+01 0.77462318832E+01 0.87061376474E+01 0.10094791263E+02
 0.13590102327E+02 0.20657513727E+02 0.37198391735E+02 0.88307535963E+02 0.19355903794E+03
 0.34991583726E+03 0.52534210910E+03 0.66613235942E+03 0.61593815594E+03 0.56899821241E+03
 0.44716242524E+03 0.29595351297E+03 0.16241063715E+03 0.74236738738E+02 0.32949541698E+02
 0.19722178576E+02 0.13197500013E+02 0.10008038860E+02 0.87198699922E+01 0.78257408457E+01
 0.72490032347E+01 0.72385889831E+01 0.73649865537E+01 0.72385889831E+01 0.72490032347E+01
 0.78257408457E+01 0.87198699922E+01 0.10008038860E+02 0.13197500013E+02 0.19722178576E+02
 0.32949541698E+02 0.74236738738E+02 0.16241063715E+03 0.29595351297E+03 0.44716242524E+03
 0.56899821241E+03 0.56899821241E+03 0.52534210910E+03 0.41211872652E+03 0.27190246819E+03
 0.14867821114E+03 0.68154635799E+02 0.31162656449E+02 0.19264087887E+02 0.13023388511E+02
 0.99911005159E+01 0.87399361537E+01 0.78426005477E+01 0.72294723264E+01 0.71502862342E+01
 0.72385889831E+01 0.71502862342E+01 0.72294723264E+01 0.78426005477E+01 0.87399361537E+01
 0.99911005159E+01 0.13023388511E+02 0.19264087887E+02 0.31162656449E+02 0.68154635799E+02
 0.14867821114E+03 0.27190246819E+03 0.41211872652E+03 0.52534210910E+03 0.44716242524E+03