   4   4   0   0
  0.1200752E+02  0.3635000E-09  0.3635000E-09  0.3635000E-09  0.5000000E-15
  1.000000000000000E-004
  CAR 
 unknown system                          
     27.69836091     -3.80246591  301      7.15238358      1.00000000
     -3.802  0.0000E+00  0.0000E+00
     -3.697  0.0000E+00  0.0000E+00
     -3.592  0.0000E+00  0.0000E+00
     -3.487 -0.5404E-31 -0.5674E-32
     -3.382 -0.2672E-27 -0.2807E-28
     -3.277 -0.7582E-24 -0.7965E-25
     -3.172 -0.1233E-20 -0.1296E-21
     -3.067 -0.1149E-17 -0.1207E-18
     -2.962 -0.5952E-15 -0.6261E-16
     -2.857 -0.1797E-12 -0.1893E-13
     -2.752 -0.3090E-10 -0.3264E-11
     -2.647 -0.3009E-08 -0.3192E-09
     -2.542 -0.1647E-06 -0.1762E-07
     -2.437 -0.5012E-05 -0.5438E-06
     -2.332 -0.8286E-04 -0.9245E-05
     -2.227 -0.7093E-03 -0.8373E-04
     -2.122 -0.2719E-02 -0.3692E-03
     -2.017 -0.1250E-02 -0.5005E-03
     -1.912  0.2046E-01  0.1648E-02
     -1.807  0.5572E-01  0.7499E-02
     -1.702  0.5072E-01  0.1282E-01
     -1.597  0.4092E-02  0.1325E-01
     -1.492  0.3179E-01  0.1659E-01
     -1.387  0.2251E+00  0.4023E-01
     -1.282  0.3799E+00  0.8012E-01
     -1.177  0.2357E+00  0.1049E+00
     -1.072  0.4528E-01  0.1096E+00
     -0.967  0.2438E+00  0.1352E+00
     -0.862  0.6834E+00  0.2070E+00
     -0.757  0.6846E+00  0.2789E+00
     -0.652  0.2497E+00  0.3051E+00
     -0.547  0.9777E-01  0.3154E+00
     -0.442  0.3652E+00  0.3537E+00
     -0.337  0.4906E+00  0.4052E+00
     -0.232  0.2395E+00  0.4304E+00
     -0.127  0.6156E-01  0.4368E+00
     -0.022  0.2116E+00  0.4590E+00
      0.083  0.3427E+00  0.4950E+00
      0.188  0.1744E+00  0.5133E+00
      0.293  0.2059E+00  0.5350E+00
      0.398  0.9422E+00  0.6339E+00
      0.503  0.1495E+01  0.7909E+00
      0.608  0.9675E+00  0.8925E+00
      0.713  0.5830E+00  0.9537E+00
      0.818  0.1207E+01  0.1080E+01
      0.923  0.1450E+01  0.1233E+01
      1.028  0.6777E+00  0.1304E+01
      1.133  0.2160E-01  0.1306E+01
      1.238 -0.1031E+00  0.1295E+01
      1.343 -0.7317E-01  0.1288E+01
      1.448  0.8391E-01  0.1297E+01
      1.553  0.5332E+00  0.1352E+01
      1.658  0.1222E+01  0.1481E+01
      1.763  0.1898E+01  0.1680E+01
      1.868  0.1787E+01  0.1868E+01
      1.973  0.1021E+01  0.1975E+01
      2.078  0.1199E+01  0.2101E+01
      2.183  0.1992E+01  0.2310E+01
      2.288  0.2078E+01  0.2528E+01
      2.393  0.2044E+01  0.2743E+01
      2.498  0.2274E+01  0.2981E+01
      2.603  0.2968E+01  0.3293E+01
      2.708  0.5074E+01  0.3826E+01
      2.813  0.6977E+01  0.4559E+01
      2.918  0.6268E+01  0.5217E+01
      3.023  0.4423E+01  0.5681E+01
      3.128  0.3945E+01  0.6095E+01
      3.233  0.6779E+01  0.6807E+01
      3.338  0.1082E+02  0.7943E+01
      3.443  0.1056E+02  0.9052E+01
      3.548  0.8198E+01  0.9913E+01
      3.653  0.8306E+01  0.1078E+02
      3.758  0.8224E+01  0.1165E+02
      3.863  0.6843E+01  0.1237E+02
      3.968  0.8678E+01  0.1328E+02
      4.073  0.1359E+02  0.1471E+02
      4.178  0.1651E+02  0.1644E+02
      4.283  0.1666E+02  0.1819E+02
      4.388  0.1554E+02  0.1982E+02
      4.493  0.1483E+02  0.2138E+02
      4.598  0.1456E+02  0.2291E+02
      4.703  0.1422E+02  0.2440E+02
      4.808  0.1515E+02  0.2599E+02
      4.913  0.1668E+02  0.2774E+02
      5.018  0.1722E+02  0.2955E+02
      5.123  0.1739E+02  0.3138E+02
      5.228  0.1652E+02  0.3311E+02
      5.333  0.1429E+02  0.3461E+02
      5.438  0.1609E+02  0.3630E+02
      5.543  0.2104E+02  0.3851E+02
      5.648  0.1893E+02  0.4050E+02
      5.753  0.1023E+02  0.4157E+02
      5.858  0.4224E+01  0.4201E+02
      5.963  0.2713E+01  0.4230E+02
      6.068  0.2376E+01  0.4255E+02
      6.173  0.1877E+01  0.4275E+02
      6.278  0.1053E+01  0.4286E+02
      6.383  0.2163E+00  0.4288E+02
      6.488 -0.9776E-01  0.4287E+02
      6.593 -0.1029E+00  0.4286E+02
      6.698 -0.1045E+00  0.4285E+02
      6.803  0.5964E-01  0.4285E+02
      6.908  0.1087E+01  0.4297E+02
      7.013  0.3339E+01  0.4332E+02
      7.118  0.4947E+01  0.4384E+02
      7.223  0.4064E+01  0.4426E+02
      7.328  0.1963E+01  0.4447E+02
      7.433  0.4027E+00  0.4451E+02
      7.538 -0.1680E+00  0.4450E+02
      7.643  0.1535E+00  0.4451E+02
      7.748  0.1087E+01  0.4463E+02
      7.853  0.1550E+01  0.4479E+02
      7.958  0.8709E+00  0.4488E+02
      8.063  0.6293E-01  0.4489E+02
      8.168 -0.1517E+00  0.4487E+02
      8.273  0.2177E+00  0.4489E+02
      8.378  0.1083E+01  0.4501E+02
      8.483  0.1445E+01  0.4516E+02
      8.588  0.8864E+00  0.4525E+02
      8.693  0.1021E+01  0.4536E+02
      8.798  0.2088E+01  0.4558E+02
      8.903  0.2091E+01  0.4580E+02
      9.008  0.8963E+00  0.4589E+02
      9.113  0.3710E-01  0.4590E+02
      9.218 -0.1588E+00  0.4588E+02
      9.323  0.1036E+00  0.4589E+02
      9.428  0.8697E+00  0.4598E+02
      9.533  0.1406E+01  0.4613E+02
      9.638  0.1433E+01  0.4628E+02
      9.743  0.2289E+01  0.4652E+02
      9.848  0.3215E+01  0.4686E+02
      9.953  0.2434E+01  0.4711E+02
     10.058  0.1026E+01  0.4722E+02
     10.163  0.2184E+00  0.4724E+02
     10.268 -0.4597E-01  0.4724E+02
     10.373 -0.5586E-01  0.4723E+02
     10.478 -0.3962E-01  0.4723E+02
     10.583 -0.3655E-01  0.4723E+02
     10.688  0.1405E+00  0.4724E+02
     10.793  0.5776E+00  0.4730E+02
     10.898  0.7688E+00  0.4738E+02
     11.003  0.3930E+00  0.4742E+02
     11.108 -0.3065E-01  0.4742E+02
     11.213 -0.2295E-01  0.4742E+02
     11.318  0.6205E+00  0.4748E+02
     11.423  0.1393E+01  0.4763E+02
     11.528  0.1320E+01  0.4777E+02
     11.633  0.1120E+01  0.4788E+02
     11.738  0.1719E+01  0.4806E+02
     11.843  0.2220E+01  0.4830E+02
     11.948  0.1827E+01  0.4849E+02
     12.053  0.9641E+00  0.4859E+02
     12.158  0.5474E+00  0.4865E+02
     12.263  0.6653E+00  0.4872E+02
     12.368  0.1535E+01  0.4888E+02
     12.473  0.2884E+01  0.4918E+02
     12.578  0.2575E+01  0.4945E+02
     12.683  0.1011E+01  0.4956E+02
     12.788  0.7747E+00  0.4964E+02
     12.893  0.1398E+01  0.4979E+02
     12.998  0.1107E+01  0.4990E+02
     13.103  0.4814E+00  0.4995E+02
     13.208  0.4225E+00  0.5000E+02
     13.313  0.3837E+00  0.5004E+02
     13.418  0.1064E+00  0.5005E+02
     13.523 -0.1205E+00  0.5004E+02
     13.628 -0.1510E+00  0.5002E+02
     13.733  0.6123E+00  0.5009E+02
     13.838  0.2378E+01  0.5034E+02
     13.943  0.3059E+01  0.5066E+02
     14.048  0.1566E+01  0.5082E+02
     14.153  0.1087E+00  0.5083E+02
     14.258 -0.6305E-01  0.5083E+02
     14.363  0.5791E+00  0.5089E+02
     14.468  0.1528E+01  0.5105E+02
     14.573  0.1902E+01  0.5125E+02
     14.678  0.1284E+01  0.5138E+02
     14.783  0.5376E+00  0.5144E+02
     14.888  0.7162E+00  0.5151E+02
     14.993  0.1485E+01  0.5167E+02
     15.098  0.1735E+01  0.5185E+02
     15.203  0.1712E+01  0.5203E+02
     15.308  0.1841E+01  0.5222E+02
     15.413  0.2153E+01  0.5245E+02
     15.518  0.2933E+01  0.5276E+02
     15.623  0.2828E+01  0.5306E+02
     15.728  0.1199E+01  0.5318E+02
     15.833 -0.4929E-01  0.5318E+02
     15.938 -0.1507E-02  0.5318E+02
     16.043  0.8933E+00  0.5327E+02
     16.148  0.1526E+01  0.5343E+02
     16.253  0.9955E+00  0.5353E+02
     16.358  0.3128E+00  0.5357E+02
     16.463  0.5566E+00  0.5363E+02
     16.568  0.1135E+01  0.5374E+02
     16.673  0.1367E+01  0.5389E+02
     16.778  0.1573E+01  0.5405E+02
     16.883  0.1892E+01  0.5425E+02
     16.988  0.2148E+01  0.5448E+02
     17.093  0.2384E+01  0.5473E+02
     17.198  0.2180E+01  0.5496E+02
     17.303  0.1338E+01  0.5510E+02
     17.408  0.5189E+00  0.5515E+02
     17.513  0.2130E+00  0.5517E+02
     17.618  0.6135E+00  0.5524E+02
     17.723  0.1354E+01  0.5538E+02
     17.828  0.1218E+01  0.5551E+02
     17.933  0.6626E+00  0.5558E+02
     18.038  0.1363E+01  0.5572E+02
     18.143  0.2621E+01  0.5600E+02
     18.248  0.2733E+01  0.5628E+02
     18.353  0.1728E+01  0.5647E+02
     18.458  0.5336E+00  0.5652E+02
     18.563  0.3538E+00  0.5656E+02
     18.668  0.1570E+01  0.5672E+02
     18.773  0.2747E+01  0.5701E+02
     18.878  0.2332E+01  0.5726E+02
     18.983  0.1279E+01  0.5739E+02
     19.088  0.2136E+01  0.5762E+02
     19.193  0.4139E+01  0.5805E+02
     19.298  0.3716E+01  0.5844E+02
     19.403  0.1300E+01  0.5858E+02
     19.508 -0.8041E-01  0.5857E+02
     19.613 -0.1759E+00  0.5855E+02
     19.718 -0.4827E-01  0.5854E+02
     19.823 -0.1524E-01  0.5854E+02
     19.928 -0.5297E-01  0.5854E+02
     20.033 -0.1118E+00  0.5853E+02
     20.138  0.1553E+00  0.5854E+02
     20.243  0.1237E+01  0.5867E+02
     20.348  0.2553E+01  0.5894E+02
     20.453  0.2629E+01  0.5922E+02
     20.558  0.1356E+01  0.5936E+02
     20.663  0.1997E+00  0.5938E+02
     20.768 -0.1143E+00  0.5937E+02
     20.873 -0.5783E-01  0.5936E+02
     20.978 -0.1070E-01  0.5936E+02
     21.083 -0.9863E-03  0.5936E+02
     21.188 -0.4871E-04  0.5936E+02
     21.293 -0.1328E-05  0.5936E+02
     21.398 -0.2032E-07  0.5936E+02
     21.503 -0.5670E-08  0.5936E+02
     21.608 -0.4201E-06  0.5936E+02
     21.713 -0.1798E-04  0.5936E+02
     21.818 -0.4243E-03  0.5936E+02
     21.923 -0.5360E-02  0.5936E+02
     22.028 -0.3367E-01  0.5936E+02
     22.133 -0.7953E-01  0.5935E+02
     22.238  0.1102E+00  0.5936E+02
     22.343  0.8800E+00  0.5945E+02
     22.448  0.1554E+01  0.5961E+02
     22.553  0.1112E+01  0.5973E+02
     22.658  0.2490E+00  0.5976E+02
     22.763 -0.7260E-01  0.5975E+02
     22.868 -0.4681E-01  0.5975E+02
     22.973 -0.9100E-02  0.5974E+02
     23.078 -0.8494E-03  0.5974E+02
     23.183 -0.4191E-04  0.5974E+02
     23.288 -0.1134E-05  0.5974E+02
     23.393 -0.1713E-07  0.5974E+02
     23.498 -0.1459E-09  0.5974E+02
     23.603 -0.7048E-12  0.5974E+02
     23.708 -0.1624E-14  0.5974E+02
     23.813  0.0000E+00  0.5974E+02
     23.918  0.0000E+00  0.5974E+02
     24.023 -0.1974E-29  0.5974E+02
     24.128 -0.9263E-26  0.5974E+02
     24.233 -0.2494E-22  0.5974E+02
     24.338 -0.3849E-19  0.5974E+02
     24.443 -0.3401E-16  0.5974E+02
     24.548 -0.1665E-13  0.5974E+02
     24.653 -0.4784E-11  0.5974E+02
     24.758 -0.7800E-09  0.5974E+02
     24.863 -0.7196E-07  0.5974E+02
     24.968 -0.3730E-05  0.5974E+02
     25.073 -0.1073E-03  0.5974E+02
     25.178 -0.1671E-02  0.5974E+02
     25.283 -0.1338E-01  0.5974E+02
     25.388 -0.4667E-01  0.5974E+02
     25.493 -0.5344E-02  0.5974E+02
     25.598  0.3835E+00  0.5978E+02
     25.703  0.9537E+00  0.5988E+02
     25.808  0.9149E+00  0.5997E+02
     25.913  0.3293E+00  0.6001E+02
     26.018 -0.1992E-01  0.6001E+02
     26.123 -0.4350E-01  0.6000E+02
     26.228 -0.1135E-01  0.6000E+02
     26.333 -0.1326E-02  0.6000E+02
     26.438 -0.8018E-04  0.6000E+02
     26.543 -0.2636E-05  0.6000E+02
     26.648 -0.4814E-07  0.6000E+02
     26.753 -0.4944E-09  0.6000E+02
     26.858 -0.2875E-11  0.6000E+02
     26.963 -0.9744E-14  0.6000E+02
     27.068  0.0000E+00  0.6000E+02
     27.173  0.0000E+00  0.6000E+02
     27.278  0.0000E+00  0.6000E+02
     27.383  0.0000E+00  0.6000E+02
     27.488  0.0000E+00  0.6000E+02
     27.593  0.0000E+00  0.6000E+02
     27.698  0.0000E+00  0.6000E+02
