    4    4    1    1
  0.1200752E+02  0.3635000E-09  0.3635000E-09  0.3635000E-09  0.5000000E-15
  1.000000000000000E-004
  CAR 
 unknown system                          
     44     10     30
 
  0.0000000E+00  0.0000000E+00  0.0000000E+00  0.8000000E-02
    1       -1.802466   1.000000
    2        2.525054   1.000000
    3        2.525054   1.000000
    4        2.525054   1.000000
    5        3.165990   1.000000
    6        3.165990   1.000000
    7        3.165990   1.000000
    8        4.364159   1.000000
    9        4.364159   1.000000
   10        4.364159   1.000000
   11        5.251734   1.000000
   12        5.251734   1.000000
   13        5.576213   1.000000
   14        5.576213   1.000000
   15        5.576213   1.000000
   16        5.683883   1.000000
   17        5.683883   1.000000
   18        5.683883   1.000000
   19        5.683883   1.000000
   20        5.683883   1.000000
   21        5.683883   1.000000
   22        8.944124  -0.000000
   23        8.944124  -0.000000
   24        8.944124  -0.000000
   25       14.294420   0.000000
   26       14.294420   0.000000
   27       14.294420   0.000000
   28       20.379373   0.000000
   29       20.379373   0.000000
   30       20.379373   0.000000
 
  0.2000000E+00  0.0000000E+00  0.0000000E+00  0.4800000E-01
    1       -1.325832   1.000000
    2        2.623511   1.000000
    3        2.735341   1.000000
    4        2.735341   1.000000
    5        3.292657   1.000000
    6        3.315864   1.000000
    7        3.315864   1.000000
    8        4.458929   1.000000
    9        4.514141   1.000000
   10        4.514141   1.000000
   11        5.034727   1.000000
   12        5.095241   1.000000
   13        5.095241   1.000000
   14        5.189985   1.000000
   15        5.439959   1.000000
   16        5.439959   1.000000
   17        5.530058   1.000000
   18        5.536659   1.000000
   19        5.536659   1.000000
   20        5.691277   1.000000
   21        5.691277   1.000000
   22        6.856391   1.028535
   23        9.978510  -0.000000
   24        9.978510  -0.000000
   25       14.488432   0.000000
   26       14.488432   0.000000
   27       17.385356   0.000000
   28       18.098394   0.000000
   29       18.098394   0.000000
   30       18.766982   0.000000
 
  0.4000000E+00  0.0000000E+00  0.0000000E+00  0.4800000E-01
    1        0.032432   1.000000
    2        1.820627   1.000000
    3        3.162421   1.000000
    4        3.162421   1.000000
    5        3.652204   1.000000
    6        3.652204   1.000000
    7        3.669888   1.000000
    8        4.085928   1.000000
    9        4.190851   1.000000
   10        4.190851   1.000000
   11        4.776259   1.000000
   12        4.776259   1.000000
   13        4.839722   1.000000
   14        4.962483   1.000000
   15        5.137551   1.000000
   16        5.137551   1.000000
   17        5.205804   1.000000
   18        5.205804   1.000000
   19        5.277741   1.000000
   20        5.412636   1.000000
   21        5.704278   1.000000
   22        5.704278   1.000000
   23       12.178968  -0.000000
   24       12.178968  -0.000000
   25       14.963656   0.000000
   26       14.963656   0.000000
   27       15.144333   0.000000
   28       15.144333   0.000000
   29       16.621089   0.000000
   30       16.621089   0.000000
 
  0.2000000E+00  0.2000000E+00  0.0000000E+00  0.9600000E-01
    1       -0.861378   1.000000
    2        2.767778   1.000000
    3        2.767778   1.000000
    4        2.909220   1.000000
    5        3.321954   1.000000
    6        3.351978   1.000000
    7        3.351978   1.000000
    8        4.232823   1.000000
    9        4.445563   1.000000
   10        4.516355   1.000000
   11        4.791917   1.000000
   12        4.823710   1.000000
   13        4.823710   1.000000
   14        4.959068   1.000000
   15        5.134294   1.000000
   16        5.268903   1.000000
   17        5.417166   1.000000
   18        5.417166   1.000000
   19        5.527408   1.000000
   20        5.527408   1.000000
   21        5.569798   1.000000
   22        7.787263  -0.000034
   23        7.787263  -0.000034
   24       10.827158  -0.000000
   25       14.461005   0.000000
   26       14.970752   0.000000
   27       17.716654   0.000000
   28       17.716654   0.000000
   29       18.679562   0.000000
   30       18.679562   0.000000
 
  0.4000000E+00  0.2000000E+00  0.0000000E+00  0.1920000E+00
    1        0.452697   1.000000
    2        2.138659   1.000000
    3        3.241687   1.000000
    4        3.361418   1.000000
    5        3.522018   1.000000
    6        3.625019   1.000000
    7        3.747210   1.000000
    8        4.026589   1.000000
    9        4.052744   1.000000
   10        4.198941   1.000000
   11        4.467035   1.000000
   12        4.571162   1.000000
   13        4.777405   1.000000
   14        4.969199   1.000000
   15        5.065517   1.000000
   16        5.122782   1.000000
   17        5.193581   1.000000
   18        5.238619   1.000000
   19        5.412756   1.000000
   20        5.517405   1.000000
   21        5.520948   1.000000
   22        5.949781   1.000000
   23        9.484038  -0.000000
   24       11.709492  -0.000000
   25       12.855912   0.000000
   26       15.513700   0.000000
   27       15.548204   0.000000
   28       17.009115   0.000000
   29       18.821693   0.000000
   30       20.283552   0.000000
 
  0.4000000E+00  0.4000000E+00  0.0000000E+00  0.9600000E-01
    1        1.581794   1.000000
    2        2.850530   1.000000
    3        2.850530   1.000000
    4        3.361122   1.000000
    5        3.748393   1.000000
    6        3.748393   1.000000
    7        3.788867   1.000000
    8        3.968641   1.000000
    9        4.016252   1.000000
   10        4.052467   1.000000
   11        4.052467   1.000000
   12        4.270738   1.000000
   13        4.844634   1.000000
   14        4.877662   1.000000
   15        4.953482   1.000000
   16        4.981711   1.000000
   17        4.981711   1.000000
   18        5.146268   1.000000
   19        5.146268   1.000000
   20        5.269400   1.000000
   21        5.911823   1.000000
   22        7.010039   0.963899
   23        7.010039   0.963899
   24        8.821549  -0.000000
   25       14.627953   0.000000
   26       16.492823   0.000000
   27       17.165712   0.000000
   28       17.165712   0.000000
   29       18.273182   0.000000
   30       18.273182   0.000000
 
  0.2000000E+00  0.2000000E+00  0.2000000E+00  0.6400000E-01
    1       -0.413959   1.000000
    2        2.989226   1.000000
    3        2.989226   1.000000
    4        2.989226   1.000000
    5        3.381211   1.000000
    6        3.381211   1.000000
    7        3.381211   1.000000
    8        4.189626   1.000000
    9        4.540889   1.000000
   10        4.540889   1.000000
   11        4.622512   1.000000
   12        4.622512   1.000000
   13        4.622512   1.000000
   14        5.085422   1.000000
   15        5.085422   1.000000
   16        5.085799   1.000000
   17        5.085799   1.000000
   18        5.085799   1.000000
   19        5.620338   1.000000
   20        5.620338   1.000000
   21        5.620338   1.000000
   22        8.416102  -0.000000
   23        8.416102  -0.000000
   24        8.416102  -0.000000
   25       15.286589   0.000000
   26       15.286589   0.000000
   27       15.286589   0.000000
   28       18.091227   0.000000
   29       18.091227   0.000000
   30       18.091227   0.000000
 
  0.4000000E+00  0.2000000E+00  0.2000000E+00  0.1920000E+00
    1        0.835397   1.000000
    2        2.361686   1.000000
    3        3.294588   1.000000
    4        3.294588   1.000000
    5        3.590254   1.000000
    6        3.590254   1.000000
    7        3.767962   1.000000
    8        4.086240   1.000000
    9        4.193337   1.000000
   10        4.193337   1.000000
   11        4.383990   1.000000
   12        4.551010   1.000000
   13        4.684506   1.000000
   14        4.909351   1.000000
   15        4.934109   1.000000
   16        4.934109   1.000000
   17        5.247886   1.000000
   18        5.357184   1.000000
   19        5.553523   1.000000
   20        5.553523   1.000000
   21        5.587850   1.000000
   22        6.142508   1.000000
   23        9.788011  -0.000000
   24        9.788011  -0.000000
   25       12.464059  -0.000000
   26       12.464059  -0.000000
   27       16.816094   0.000000
   28       19.126176   0.000000
   29       19.201170   0.000000
   30       19.201170   0.000000
 
  0.4000000E+00  0.4000000E+00  0.2000000E+00  0.1920000E+00
    1        1.776068   1.000000
    2        2.741534   1.000000
    3        2.741534   1.000000
    4        3.040428   1.000000
    5        3.965019   1.000000
    6        4.012805   1.000000
    7        4.012805   1.000000
    8        4.196868   1.000000
    9        4.298313   1.000000
   10        4.298313   1.000000
   11        4.348107   1.000000
   12        4.420655   1.000000
   13        4.582910   1.000000
   14        4.727538   1.000000
   15        4.734563   1.000000
   16        4.734563   1.000000
   17        5.226275   1.000000
   18        5.484545   1.000000
   19        5.484545   1.000000
   20        5.488879   1.000000
   21        5.802226   1.000000
   22        7.080910   0.782084
   23        7.080910   0.782084
   24        8.773010  -0.000000
   25       11.883066  -0.000000
   26       13.868070   0.000000
   27       13.868070   0.000000
   28       16.101370   0.000000
   29       20.417132   0.000000
   30       22.408838   0.000000
 
  0.4000000E+00  0.4000000E+00  0.4000000E+00  0.6400000E-01
    1        2.134636   1.000000
    2        2.518682   1.000000
    3        2.518682   1.000000
    4        2.518682   1.000000
    5        4.262315   1.000000
    6        4.262315   1.000000
    7        4.262315   1.000000
    8        4.382756   1.000000
    9        4.382756   1.000000
   10        4.528007   1.000000
   11        4.528007   1.000000
   12        4.528007   1.000000
   13        4.870322   1.000000
   14        4.870322   1.000000
   15        4.870322   1.000000
   16        5.164094   1.000000
   17        5.538533   1.000000
   18        5.538533   1.000000
   19        5.649850   1.000000
   20        5.649850   1.000000
   21        5.649850   1.000000
   22        7.237597   0.173166
   23        7.237597   0.173166
   24        7.237597   0.173166
   25       11.407446  -0.000000
   26       11.407446  -0.000000
   27       11.407446  -0.000000
   28       13.192588   0.000000
   29       25.698361   0.000000
   30       25.698361   0.000000
