       N       E                     dE             d eps       ncg     rms          rms(c)
DAV:   1     0.233853517971E+03    0.23385E+03   -0.11987E+04   616   0.114E+03
DAV:   2    -0.446005552909E+01   -0.23831E+03   -0.22835E+03   606   0.275E+02
DAV:   3    -0.163990243250E+02   -0.11939E+02   -0.11652E+02   666   0.842E+01
DAV:   4    -0.165097579212E+02   -0.11073E+00   -0.11068E+00   672   0.948E+00
DAV:   5    -0.165104664063E+02   -0.70849E-03   -0.70847E-03   642   0.631E-01    0.172E+01
DAV:   6    -0.136791201479E+02    0.28313E+01   -0.37876E+01   642   0.926E+01    0.878E+00
DAV:   7    -0.118883458053E+02    0.17908E+01   -0.60685E+00   666   0.357E+01    0.359E-01
DAV:   8    -0.118785429535E+02    0.98029E-02   -0.64340E-02   740   0.264E+00    0.655E-01
DAV:   9    -0.118707284615E+02    0.78145E-02   -0.11202E-02   648   0.160E+00    0.875E-02
DAV:  10    -0.118706458900E+02    0.82571E-04   -0.43689E-04   698   0.266E-01    0.296E-02
DAV:  11    -0.118706343567E+02    0.11533E-04   -0.27287E-05   712   0.673E-02    0.616E-03
DAV:  12    -0.118706326379E+02    0.17188E-05   -0.13611E-06   472   0.129E-02    0.108E-03
DAV:  13    -0.118706324872E+02    0.15076E-06   -0.19326E-07   324   0.303E-03
   1 F= -.11870632E+02 E0= -.11864355E+02  d E =-.188328E-01
