 vasp.6.2.0 18Jan21 (build Mar 17 2021 09:06:54) complex                        
  
 executed on             LinuxIFC date 2021.08.03  10:19:42
 serial version


--------------------------------------------------------------------------------------------------------


 INCAR:
   ENCUT = 220.000000
   SIGMA = 0.200000
   EDIFF = 1.00e-06
   GGA = PE
   PREC = normal
   IBRION = -1
   ICHARG = 1
   ISMEAR = 1
   KPAR = 1
   NBANDS = 30
   NSW = 0
   NCORE = 1
   LCHARG = .TRUE.

 POTCAR:    PAW_PBE Cu 22Jun2005                  
 POTCAR:    PAW_PBE Cu 22Jun2005                  
   SHA256 =  0e71e558f37a4e8407882b4609ceaae59938afaad9ced71dfe8490308a0ab630 Cu/POTCAR             
   COPYR  = (c) Copyright 22Jun2005 Georg Kresse                                                    
   COPYR  = This file is part of the software VASP. Any use, copying, and all other rights are regul
   COPYR  = If you do not have a valid VASP license, you may not use, copy or distribute this file. 
   VRHFIN =Cu: d10 p1                                                                               
   LEXCH  = PE                                                                                      
   EATOM  =  1390.9808 eV,  102.2342 Ry                                                             
                                                                                                    
   TITEL  = PAW_PBE Cu 22Jun2005                                                                    
   LULTRA =        F    use ultrasoft PP ?                                                          
   IUNSCR =        1    unscreen: 0-lin 1-nonlin 2-no                                               
   RPACOR =    2.000    partial core radius                                                         
   POMASS =   63.546; ZVAL   =   11.000    mass and valenz                                          
   RCORE  =    2.300    outmost cutoff radius                                                       
   RWIGS  =    2.200; RWIGS  =    1.164    wigner-seitz radius (au A)                               
   ENMAX  =  295.446; ENMIN  =  221.585 eV                                                          
   ICORE  =        3    local potential                                                             
   LCOR   =        T    correct aug charges                                                         
   LPAW   =        T    paw PP                                                                      
   EAUG   =  586.980                                                                                
   DEXC   =    0.000                                                                                
   RMAX   =    2.344    core radius for proj-oper                                                   
   RAUG   =    1.300    factor for augmentation sphere                                              
   RDEP   =    2.302    radius for radial grids                                                     
   RDEPT  =    1.771    core radius for aug-charge                                                  
                                                                                                    
   Atomic configuration                                                                             
    9 entries                                                                                       
     n  l   j            E        occ.                                                              
     1  0  0.50     -8850.2468   2.0000                                                             
     2  0  0.50     -1062.3498   2.0000                                                             
     2  1  1.50      -916.8226   6.0000                                                             
     3  0  0.50      -114.6929   2.0000                                                             
     3  1  1.50       -72.1325   6.0000                                                             
     3  2  2.50        -5.0394  10.0000                                                             
     4  0  0.50        -4.6097   1.0000                                                             
     4  1  0.50        -4.0817   0.0000                                                             
     4  3  2.50        -1.3606   0.0000                                                             
   Description                                                                                      
     l       E           TYP  RCUT    TYP  RCUT                                                     
     2     -5.0393973     23  2.200                                                                 
     2     10.8846608     23  2.200                                                                 
     0     -4.6097109     23  2.200                                                                 
     0      8.2520465     23  2.200                                                                 
     1     -2.7211652     23  2.200                                                                 
     1     21.7055443     23  2.200                                                                 
     3      2.7211652     23  2.300                                                                 
  local pseudopotential read in
  partial core-charges read in
  partial kinetic energy density read in
  atomic valenz-charges read in
  non local Contribution for L=           2  read in
    real space projection operators read in
  non local Contribution for L=           2  read in
    real space projection operators read in
  non local Contribution for L=           0  read in
    real space projection operators read in
  non local Contribution for L=           0  read in
    real space projection operators read in
  non local Contribution for L=           1  read in
    real space projection operators read in
  non local Contribution for L=           1  read in
    real space projection operators read in
    PAW grid and wavefunctions read in
 
   number of l-projection  operators is LMAX  =           6
   number of lm-projection operators is LMMAX =          18
 
  PAW_PBE Cu 22Jun2005                  :
 energy of atom  1       EATOM=-1390.9808
 kinetic energy error for atom=    0.9098 (will be added to EATOM!!)
 
 
 POSCAR: Cu
  positions in cartesian coordinates
  No initial velocities read in
 exchange correlation table for  LEXCH =        8
   RHO(1)=    0.500       N(1)  =     2000
   RHO(2)=  100.500       N(2)  =     4000
 


--------------------------------------------------------------------------------------------------------


 ion  position               nearest neighbor table
   1  0.000  0.000  0.000-   2 2.57   3 2.57   4 2.57   3 2.57   4 2.57   2 2.57   4 2.57   4 2.57
                             2 2.57   3 2.57   3 2.57   2 2.57
   2  0.500  0.500  0.000-   1 2.57   3 2.57   4 2.57   3 2.57   4 2.57   1 2.57   3 2.57   3 2.57
                             1 2.57   4 2.57   4 2.57   1 2.57
   3  0.500  0.000  0.500-   1 2.57   2 2.57   4 2.57   1 2.57   2 2.57   2 2.57   4 2.57   2 2.57
                             1 2.57   4 2.57   1 2.57   4 2.57
   4  0.000  0.500  0.500-   1 2.57   2 2.57   3 2.57   1 2.57   2 2.57   1 2.57   3 2.57   1 2.57
                             2 2.57   3 2.57   2 2.57   3 2.57
 
  LATTYP: Found a simple cubic cell.
 ALAT       =     3.6350000000
  
  Lattice vectors:
  
 A1 = (   3.6350000000,   0.0000000000,   0.0000000000)
 A2 = (   0.0000000000,   3.6350000000,   0.0000000000)
 A3 = (   0.0000000000,   0.0000000000,   3.6350000000)


Analysis of symmetry for initial positions (statically):
=====================================================================
 Subroutine PRICEL returns following result:
 
  LATTYP: Found a face centered cubic cell.
 ALAT       =     3.6350000000
  
  Lattice vectors:
  
 A1 = (   1.8175000000,  -1.8175000000,   0.0000000000)
 A2 = (   1.8175000000,   0.0000000000,   1.8175000000)
 A3 = (   0.0000000000,  -1.8175000000,   1.8175000000)
 
   4 primitive cells build up your supercell.
 

 Routine SETGRP: Setting up the symmetry group for a 
 simple cubic supercell.


 Subroutine GETGRP returns: Found 48 space group operations
 (whereof 48 operations were pure point group operations)
 out of a pool of 48 trial point group operations.


The static configuration has the point symmetry O_h .


Analysis of symmetry for dynamics (positions and initial velocities):
=====================================================================
 Subroutine PRICEL returns following result:
 
  LATTYP: Found a face centered cubic cell.
 ALAT       =     3.6350000000
  
  Lattice vectors:
  
 A1 = (   1.8175000000,  -1.8175000000,   0.0000000000)
 A2 = (   1.8175000000,   0.0000000000,   1.8175000000)
 A3 = (   0.0000000000,  -1.8175000000,   1.8175000000)
 
   4 primitive cells build up your supercell.
 

 Routine SETGRP: Setting up the symmetry group for a 
 simple cubic supercell.


 Subroutine GETGRP returns: Found 48 space group operations
 (whereof 48 operations were pure point group operations)
 out of a pool of 48 trial point group operations.


The dynamic configuration has the point symmetry O_h .


 Subroutine INISYM returns: Found 48 space group operations
 (whereof 48 operations are pure point group operations),
 and found     4 'primitive' translations


----------------------------------------------------------------------------------------

                                     Primitive cell                                     

  volume of cell :      12.0075

  direct lattice vectors                    reciprocal lattice vectors
     1.817500000 -1.817500000  0.000000000     0.275103164 -0.275103164 -0.275103164
     1.817500000  0.000000000  1.817500000     0.275103164  0.275103164  0.275103164
     0.000000000 -1.817500000  1.817500000    -0.275103164 -0.275103164  0.275103164

  length of vectors
     2.570333150  2.570333150  2.570333150     0.476492657  0.476492657  0.476492657

  position of ions in fractional coordinates (direct lattice)
     0.000000000  0.000000000  0.000000000

  ion indices of the primitive-cell ions
   primitive index   ion index
                 1           1

----------------------------------------------------------------------------------------

 
 
 KPOINTS: KPOINTS created by Atomic Simulation Env

Automatic generation of k-mesh.
 Grid dimensions read from file:
 generate k-points for:    5    5    5

 Generating k-lattice:

  Cartesian coordinates                     Fractional coordinates (reciprocal lattice)
     0.055020633  0.000000000  0.000000000     0.200000000  0.000000000  0.000000000
     0.000000000  0.055020633  0.000000000     0.000000000  0.200000000  0.000000000
     0.000000000  0.000000000  0.055020633     0.000000000  0.000000000  0.200000000

  Length of vectors
     0.055020633  0.055020633  0.055020633

  Shift w.r.t. Gamma in fractional coordinates (k-lattice)
     0.000000000  0.000000000  0.000000000

 
 Subroutine IBZKPT returns following result:
 ===========================================
 
 Found     10 irreducible k-points:
 
 Following reciprocal coordinates:
            Coordinates               Weight
  0.000000  0.000000  0.000000      1.000000
  0.200000  0.000000  0.000000      6.000000
  0.400000  0.000000  0.000000      6.000000
  0.200000  0.200000  0.000000     12.000000
  0.400000  0.200000  0.000000     24.000000
  0.400000  0.400000  0.000000     12.000000
  0.200000  0.200000  0.200000      8.000000
  0.400000  0.200000  0.200000     24.000000
  0.400000  0.400000  0.200000     24.000000
  0.400000  0.400000  0.400000      8.000000
 
 Following cartesian coordinates:
            Coordinates               Weight
  0.000000  0.000000  0.000000      1.000000
  0.055021  0.000000  0.000000      6.000000
  0.110041  0.000000  0.000000      6.000000
  0.055021  0.055021  0.000000     12.000000
  0.110041  0.055021  0.000000     24.000000
  0.110041  0.110041  0.000000     12.000000
  0.055021  0.055021  0.055021      8.000000
  0.110041  0.055021  0.055021     24.000000
  0.110041  0.110041  0.055021     24.000000
  0.110041  0.110041  0.110041      8.000000
 


--------------------------------------------------------------------------------------------------------




 Dimension of arrays:
   k-points           NKPTS =     10   k-points in BZ     NKDIM =     10   number of bands    NBANDS=     30
   number of dos      NEDOS =    301   number of ions     NIONS =      4
   non local maximal  LDIM  =      6   non local SUM 2l+1 LMDIM =     18
   total plane-waves  NPLWV =   2744
   max r-space proj   IRMAX =      1   max aug-charges    IRDMAX=   1854
   dimension x,y,z NGX =    14 NGY =   14 NGZ =   14
   dimension x,y,z NGXF=    28 NGYF=   28 NGZF=   28
   support grid    NGXF=    28 NGYF=   28 NGZF=   28
   ions per type =               4
   NGX,Y,Z   is equivalent  to a cutoff of   6.40,  6.40,  6.40 a.u.
   NGXF,Y,Z  is equivalent  to a cutoff of  12.81, 12.81, 12.81 a.u.

 SYSTEM =  unknown system                          
 POSCAR =  Cu                                      

 Startparameter for this run:
   NWRITE =      2    write-flag & timer
   PREC   = normal    normal or accurate (medium, high low for compatibility)
   ISTART =      0    job   : 0-new  1-cont  2-samecut
   ICHARG =      1    charge: 1-file 2-atom 10-const
   ISPIN  =      1    spin polarized calculation?
   LNONCOLLINEAR =      F non collinear calculations
   LSORBIT =      F    spin-orbit coupling
   INIWAV =      1    electr: 0-lowe 1-rand  2-diag
   LASPH  =      F    aspherical Exc in radial PAW
   METAGGA=      F    non-selfconsistent MetaGGA calc.

 Electronic Relaxation 1
   ENCUT  =  220.0 eV  16.17 Ry    4.02 a.u.   4.40  4.40  4.40*2*pi/ulx,y,z
   ENINI  =  220.0     initial cutoff
   ENAUG  =  587.0 eV  augmentation charge cutoff
   NELM   =     60;   NELMIN=  2; NELMDL= -5     # of ELM steps 
   EDIFF  = 0.1E-05   stopping-criterion for ELM
   LREAL  =      F    real-space projection
   NLSPLINE    = F    spline interpolate recip. space projectors
   LCOMPAT=      F    compatible to vasp.4.4
   GGA_COMPAT  = T    GGA compatible to vasp.4.4-vasp.4.6
   LMAXPAW     = -100 max onsite density
   LMAXMIX     =    2 max onsite mixed and CHGCAR
   VOSKOWN=      0    Vosko Wilk Nusair interpolation
   ROPT   =    0.00000
 Ionic relaxation
   EDIFFG = 0.1E-04   stopping-criterion for IOM
   NSW    =      0    number of steps for IOM
   NBLOCK =      1;   KBLOCK =      1    inner block; outer block 
   IBRION =     -1    ionic relax: 0-MD 1-quasi-New 2-CG
   NFREE  =      0    steps in history (QN), initial steepest desc. (CG)
   ISIF   =      2    stress and relaxation
   IWAVPR =      0    prediction:  0-non 1-charg 2-wave 3-comb
   ISYM   =      2    0-nonsym 1-usesym 2-fastsym
   LCORR  =      T    Harris-Foulkes like correction to forces

   POTIM  = 0.5000    time-step for ionic-motion
   TEIN   =    0.0    initial temperature
   TEBEG  =    0.0;   TEEND  =   0.0 temperature during run
   SMASS  =  -3.00    Nose mass-parameter (am)
   estimated Nose-frequenzy (Omega)   =  0.10E-29 period in steps = 0.13E+47 mass=  -0.302E-27a.u.
   SCALEE = 1.0000    scale energy and forces
   NPACO  =    256;   APACO  = 16.0  distance and # of slots for P.C.
   PSTRESS=    0.0 pullay stress

  Mass of Ions in am
   POMASS =  63.55
  Ionic Valenz
   ZVAL   =  11.00
  Atomic Wigner-Seitz radii
   RWIGS  =  -1.00
  virtual crystal weights 
   VCA    =   1.00
   NELECT =      44.0000    total number of electrons
   NUPDOWN=      -1.0000    fix difference up-down

 DOS related values:
   EMIN   =  10.00;   EMAX   =-10.00  energy-range for DOS
   EFERMI =   0.00
   ISMEAR =     1;   SIGMA  =   0.20  broadening in eV -4-tet -1-fermi 0-gaus

 Electronic relaxation 2 (details)
   IALGO  =     38    algorithm
   LDIAG  =      T    sub-space diagonalisation (order eigenvalues)
   LSUBROT=      F    optimize rotation matrix (better conditioning)
   TURBO    =      0    0=normal 1=particle mesh
   IRESTART =      0    0=no restart 2=restart with 2 vectors
   NREBOOT  =      0    no. of reboots
   NMIN     =      0    reboot dimension
   EREF     =   0.00    reference energy to select bands
   IMIX   =      4    mixing-type and parameters
     AMIX     =   0.40;   BMIX     =  1.00
     AMIX_MAG =   1.60;   BMIX_MAG =  1.00
     AMIN     =   0.10
     WC   =   100.;   INIMIX=   1;  MIXPRE=   1;  MAXMIX= -45

 Intra band minimization:
   WEIMIN = 0.0000     energy-eigenvalue tresh-hold
   EBREAK =  0.83E-08  absolut break condition
   DEPER  =   0.30     relativ break condition  

   TIME   =   0.40     timestep for ELM

  volume/ion in A,a.u.               =      12.01        81.03
  Fermi-wavevector in a.u.,A,eV,Ry     =   1.589967  3.004601 34.395439  2.527993
  Thomas-Fermi vector in A             =   2.688734
 
 Write flags
   LWAVE        =      T    write WAVECAR
   LDOWNSAMPLE  =      F    k-point downsampling of WAVECAR
   LCHARG       =      T    write CHGCAR
   LVTOT        =      F    write LOCPOT, total local potential
   LVHAR        =      F    write LOCPOT, Hartree potential only
   LELF         =      F    write electronic localiz. function (ELF)
   LORBIT       =      0    0 simple, 1 ext, 2 COOP (PROOUT), +10 PAW based schemes


 Dipole corrections
   LMONO  =      F    monopole corrections only (constant potential shift)
   LDIPOL =      F    correct potential (dipole corrections)
   IDIPOL =      0    1-x, 2-y, 3-z, 4-all directions 
   EPSILON=  1.0000000 bulk dielectric constant

 Exchange correlation treatment:
   GGA     =    PE    GGA type
   LEXCH   =     8    internal setting for exchange type
   VOSKOWN=      0    Vosko Wilk Nusair interpolation
   LHFCALC =     F    Hartree Fock is set to
   LHFONE  =     F    Hartree Fock one center treatment
   AEXX    =    0.0000 exact exchange contribution

 Linear response parameters
   LEPSILON=     F    determine dielectric tensor
   LRPA    =     F    only Hartree local field effects (RPA)
   LNABLA  =     F    use nabla operator in PAW spheres
   LVEL    =     F    velocity operator in full k-point grid
   LINTERFAST=   F  fast interpolation
   KINTER  =     0    interpolate to denser k-point grid
   CSHIFT  =0.1000    complex shift for real part using Kramers Kronig
   OMEGAMAX=  -1.0    maximum frequency
   DEG_THRESHOLD= 0.2000000E-02 threshold for treating states as degnerate
   RTIME   =   -0.100 relaxation time in fs
  (WPLASMAI=    0.000 imaginary part of plasma frequency in eV, 0.658/RTIME)
   DFIELD  = 0.0000000 0.0000000 0.0000000 field for delta impulse in time
 
 Orbital magnetization related:
   ORBITALMAG=     F  switch on orbital magnetization
   LCHIMAG   =     F  perturbation theory with respect to B field
   DQ        =  0.001000  dq finite difference perturbation B field
   LLRAUG    =     F  two centre corrections for induced B field



--------------------------------------------------------------------------------------------------------


 Static calculation
 charge density and potential will be updated during run
 non-spin polarized calculation
 Variant of blocked Davidson
 Davidson routine will perform the subspace rotation
 perform sub-space diagonalisation
    after iterative eigenvector-optimisation
 modified Broyden-mixing scheme, WC =      100.0
 initial mixing is a Kerker type mixing with AMIX =  0.4000 and BMIX =      1.0000
 Hartree-type preconditioning will be used
 using additional bands            8
 reciprocal scheme for non local part
 use partial core corrections
 calculate Harris-corrections to forces 
   (improved forces if not selfconsistent)
 use gradient corrections 
 use of overlap-Matrix (Vanderbilt PP)
 Methfessel and Paxton  Order N= 1 SIGMA  =   0.20


--------------------------------------------------------------------------------------------------------


  energy-cutoff  :      220.00
  volume of cell :       48.03
      direct lattice vectors                 reciprocal lattice vectors
     3.635000000  0.000000000  0.000000000     0.275103164  0.000000000  0.000000000
     0.000000000  3.635000000  0.000000000     0.000000000  0.275103164  0.000000000
     0.000000000  0.000000000  3.635000000     0.000000000  0.000000000  0.275103164

  length of vectors
     3.635000000  3.635000000  3.635000000     0.275103164  0.275103164  0.275103164


 
 k-points in units of 2pi/SCALE and weight: KPOINTS created by Atomic Simulation Env
   0.00000000  0.00000000  0.00000000       0.008
   0.05502063  0.00000000  0.00000000       0.048
   0.11004127  0.00000000  0.00000000       0.048
   0.05502063  0.05502063  0.00000000       0.096
   0.11004127  0.05502063  0.00000000       0.192
   0.11004127  0.11004127  0.00000000       0.096
   0.05502063  0.05502063  0.05502063       0.064
   0.11004127  0.05502063  0.05502063       0.192
   0.11004127  0.11004127  0.05502063       0.192
   0.11004127  0.11004127  0.11004127       0.064
 
 k-points in reciprocal lattice and weights: KPOINTS created by Atomic Simulation Env
   0.00000000  0.00000000  0.00000000       0.008
   0.20000000  0.00000000  0.00000000       0.048
   0.40000000  0.00000000  0.00000000       0.048
   0.20000000  0.20000000  0.00000000       0.096
   0.40000000  0.20000000  0.00000000       0.192
   0.40000000  0.40000000  0.00000000       0.096
   0.20000000  0.20000000  0.20000000       0.064
   0.40000000  0.20000000  0.20000000       0.192
   0.40000000  0.40000000  0.20000000       0.192
   0.40000000  0.40000000  0.40000000       0.064
 
 position of ions in fractional coordinates (direct lattice) 
   0.00000000  0.00000000  0.00000000
   0.50000000  0.50000000  0.00000000
   0.50000000  0.00000000  0.50000000
   0.00000000  0.50000000  0.50000000
 
 position of ions in cartesian coordinates  (Angst):
   0.00000000  0.00000000  0.00000000
   1.81750000  1.81750000  0.00000000
   1.81750000  0.00000000  1.81750000
   0.00000000  1.81750000  1.81750000
 


--------------------------------------------------------------------------------------------------------


 k-point   1 :   0.0000 0.0000 0.0000  plane waves:     365
 k-point   2 :   0.2000 0.0000 0.0000  plane waves:     357
 k-point   3 :   0.4000 0.0000 0.0000  plane waves:     352
 k-point   4 :   0.2000 0.2000 0.0000  plane waves:     370
 k-point   5 :   0.4000 0.2000 0.0000  plane waves:     354
 k-point   6 :   0.4000 0.4000 0.0000  plane waves:     358
 k-point   7 :   0.2000 0.2000 0.2000  plane waves:     365
 k-point   8 :   0.4000 0.2000 0.2000  plane waves:     351
 k-point   9 :   0.4000 0.4000 0.2000  plane waves:     349
 k-point  10 :   0.4000 0.4000 0.4000  plane waves:     353

 maximum number of plane-waves:       370
 maximum index in each direction: 
   IXMAX=    4   IYMAX=    4   IZMAX=    4
   IXMIN=   -4   IYMIN=   -4   IZMIN=   -4


 total amount of memory used by VASP MPI-rank0    33955. kBytes
=======================================================================

   base      :      30000. kBytes
   nonl-proj :        556. kBytes
   grid      :       1216. kBytes
   one-center:         62. kBytes
   wavefun   :       2121. kBytes
 
     INWAV:  cpu time    0.0000: real time    0.0000
 Broyden mixing: mesh for mixing (old mesh)
   NGX =  9   NGY =  9   NGZ =  9
  (NGX  = 28   NGY  = 28   NGZ  = 28)
  gives a total of    729 points

 initial charge density was supplied:
 charge density of overlapping atoms calculated
 number of electron      44.0000000 magnetization 
 keeping initial charge density in first step


--------------------------------------------------------------------------------------------------------


 Maximum index for augmentation-charges         1575 (set IRDMAX)


--------------------------------------------------------------------------------------------------------


 First call to EWALD:  gamma=   0.488
 Maximum number of real-space cells 3x 3x 3
 Maximum number of reciprocal cells 3x 3x 3

    FEWALD:  cpu time    0.0009: real time    0.0009


--------------------------------------- Iteration      1(   1)  ---------------------------------------


    POTLOK:  cpu time    0.0050: real time    0.0050
    SETDIJ:  cpu time    0.0036: real time    0.0036
     EDDAV:  cpu time    0.1161: real time    0.1343
       DOS:  cpu time    0.0008: real time    0.0008
    --------------------------------------------
      LOOP:  cpu time    0.1255: real time    0.1437

 eigenvalue-minimisations  :   616
 total energy-change (2. order) : 0.2338535E+03  (-0.1198685E+04)
 number of electron      44.0000000 magnetization 
 augmentation part       44.0000000 magnetization 

 Free energy of the ion-electron system (eV)
  ---------------------------------------------------
  alpha Z        PSCENC =       243.62337785
  Ewald energy   TEWEN  =     -4395.34838493
  -Hartree energ DENC   =     -1460.68397360
  -exchange      EXHF   =         0.00000000
  -V(xc)+E(xc)   XCENC  =       182.95482720
  PAW double counting   =      4912.82663951    -5336.19386850
  entropy T*S    EENTRO =        -0.01350532
  eigenvalues    EBANDS =       526.40439554
  atomic energy  EATOM  =      5560.28401022
  Solvation  Ediel_sol  =         0.00000000
  ---------------------------------------------------
  free energy    TOTEN  =       233.85351797 eV

  energy without entropy =      233.86702329  energy(sigma->0) =      233.85801974


--------------------------------------------------------------------------------------------------------




--------------------------------------- Iteration      1(   2)  ---------------------------------------


     EDDAV:  cpu time    0.0763: real time    0.0763
       DOS:  cpu time    0.0008: real time    0.0008
    --------------------------------------------
      LOOP:  cpu time    0.0771: real time    0.0771

 eigenvalue-minimisations  :   606
 total energy-change (2. order) :-0.2383136E+03  (-0.2283487E+03)
 number of electron      44.0000000 magnetization 
 augmentation part       44.0000000 magnetization 

 Free energy of the ion-electron system (eV)
  ---------------------------------------------------
  alpha Z        PSCENC =       243.62337785
  Ewald energy   TEWEN  =     -4395.34838493
  -Hartree energ DENC   =     -1460.68397360
  -exchange      EXHF   =         0.00000000
  -V(xc)+E(xc)   XCENC  =       182.95482720
  PAW double counting   =      4912.82663951    -5336.19386850
  entropy T*S    EENTRO =        -0.00803738
  eigenvalues    EBANDS =       288.08535410
  atomic energy  EATOM  =      5560.28401022
  Solvation  Ediel_sol  =         0.00000000
  ---------------------------------------------------
  free energy    TOTEN  =        -4.46005553 eV

  energy without entropy =       -4.45201815  energy(sigma->0) =       -4.45737640


--------------------------------------------------------------------------------------------------------




--------------------------------------- Iteration      1(   3)  ---------------------------------------


     EDDAV:  cpu time    0.0818: real time    0.0818
       DOS:  cpu time    0.0008: real time    0.0008
    --------------------------------------------
      LOOP:  cpu time    0.0826: real time    0.0826

 eigenvalue-minimisations  :   666
 total energy-change (2. order) :-0.1193897E+02  (-0.1165169E+02)
 number of electron      44.0000000 magnetization 
 augmentation part       44.0000000 magnetization 

 Free energy of the ion-electron system (eV)
  ---------------------------------------------------
  alpha Z        PSCENC =       243.62337785
  Ewald energy   TEWEN  =     -4395.34838493
  -Hartree energ DENC   =     -1460.68397360
  -exchange      EXHF   =         0.00000000
  -V(xc)+E(xc)   XCENC  =       182.95482720
  PAW double counting   =      4912.82663951    -5336.19386850
  entropy T*S    EENTRO =        -0.02120764
  eigenvalues    EBANDS =       276.15955557
  atomic energy  EATOM  =      5560.28401022
  Solvation  Ediel_sol  =         0.00000000
  ---------------------------------------------------
  free energy    TOTEN  =       -16.39902433 eV

  energy without entropy =      -16.37781668  energy(sigma->0) =      -16.39195511


--------------------------------------------------------------------------------------------------------




--------------------------------------- Iteration      1(   4)  ---------------------------------------


     EDDAV:  cpu time    0.0852: real time    0.0852
       DOS:  cpu time    0.0009: real time    0.0009
    --------------------------------------------
      LOOP:  cpu time    0.0860: real time    0.0860

 eigenvalue-minimisations  :   672
 total energy-change (2. order) :-0.1107336E+00  (-0.1106795E+00)
 number of electron      44.0000000 magnetization 
 augmentation part       44.0000000 magnetization 

 Free energy of the ion-electron system (eV)
  ---------------------------------------------------
  alpha Z        PSCENC =       243.62337785
  Ewald energy   TEWEN  =     -4395.34838493
  -Hartree energ DENC   =     -1460.68397360
  -exchange      EXHF   =         0.00000000
  -V(xc)+E(xc)   XCENC  =       182.95482720
  PAW double counting   =      4912.82663951    -5336.19386850
  entropy T*S    EENTRO =        -0.02144141
  eigenvalues    EBANDS =       276.04905574
  atomic energy  EATOM  =      5560.28401022
  Solvation  Ediel_sol  =         0.00000000
  ---------------------------------------------------
  free energy    TOTEN  =       -16.50975792 eV

  energy without entropy =      -16.48831651  energy(sigma->0) =      -16.50261079


--------------------------------------------------------------------------------------------------------




--------------------------------------- Iteration      1(   5)  ---------------------------------------


     EDDAV:  cpu time    0.0790: real time    0.0790
       DOS:  cpu time    0.0008: real time    0.0008
    CHARGE:  cpu time    0.0070: real time    0.0070
    MIXING:  cpu time    0.0002: real time    0.0002
    --------------------------------------------
      LOOP:  cpu time    0.0870: real time    0.0870

 eigenvalue-minimisations  :   642
 total energy-change (2. order) :-0.7084851E-03  (-0.7084747E-03)
 number of electron      44.0004214 magnetization 
 augmentation part       25.5351699 magnetization 

 Broyden mixing:
  rms(total) = 0.17230E+01    rms(broyden)= 0.17225E+01
  rms(prec ) = 0.39395E+01
  weight for this iteration     100.00

 Free energy of the ion-electron system (eV)
  ---------------------------------------------------
  alpha Z        PSCENC =       243.62337785
  Ewald energy   TEWEN  =     -4395.34838493
  -Hartree energ DENC   =     -1460.68397360
  -exchange      EXHF   =         0.00000000
  -V(xc)+E(xc)   XCENC  =       182.95482720
  PAW double counting   =      4912.82663951    -5336.19386850
  entropy T*S    EENTRO =        -0.02144274
  eigenvalues    EBANDS =       276.04834858
  atomic energy  EATOM  =      5560.28401022
  Solvation  Ediel_sol  =         0.00000000
  ---------------------------------------------------
  free energy    TOTEN  =       -16.51046641 eV

  energy without entropy =      -16.48902367  energy(sigma->0) =      -16.50331883


--------------------------------------------------------------------------------------------------------




--------------------------------------- Iteration      1(   6)  ---------------------------------------


    POTLOK:  cpu time    0.0049: real time    0.0049
    SETDIJ:  cpu time    0.0036: real time    0.0036
     EDDAV:  cpu time    0.0782: real time    0.0782
       DOS:  cpu time    0.0008: real time    0.0008
    CHARGE:  cpu time    0.0070: real time    0.0070
    MIXING:  cpu time    0.0002: real time    0.0002
    --------------------------------------------
      LOOP:  cpu time    0.0947: real time    0.0947

 eigenvalue-minimisations  :   642
 total energy-change (2. order) : 0.2831346E+01  (-0.3787617E+01)
 number of electron      44.0004695 magnetization 
 augmentation part       29.2567625 magnetization 

 Broyden mixing:
  rms(total) = 0.87832E+00    rms(broyden)= 0.87763E+00
  rms(prec ) = 0.19665E+01
  weight for this iteration     100.00

 eigenvalues of (default mixing * dielectric matrix)
  average eigenvalue GAMMA=   0.6624
  0.6624

 Free energy of the ion-electron system (eV)
  ---------------------------------------------------
  alpha Z        PSCENC =       243.62337785
  Ewald energy   TEWEN  =     -4395.34838493
  -Hartree energ DENC   =     -1338.25593338
  -exchange      EXHF   =         0.00000000
  -V(xc)+E(xc)   XCENC  =       176.76656570
  PAW double counting   =      5005.56939150    -5399.00267475
  entropy T*S    EENTRO =         0.00276204
  eigenvalues    EBANDS =       132.68176561
  atomic energy  EATOM  =      5560.28401022
  Solvation  Ediel_sol  =         0.00000000
  ---------------------------------------------------
  free energy    TOTEN  =       -13.67912015 eV

  energy without entropy =      -13.68188218  energy(sigma->0) =      -13.68004083


--------------------------------------------------------------------------------------------------------




--------------------------------------- Iteration      1(   7)  ---------------------------------------


    POTLOK:  cpu time    0.0048: real time    0.0048
    SETDIJ:  cpu time    0.0036: real time    0.0036
     EDDAV:  cpu time    0.0805: real time    0.0805
       DOS:  cpu time    0.0008: real time    0.0008
    CHARGE:  cpu time    0.0070: real time    0.0070
    MIXING:  cpu time    0.0002: real time    0.0002
    --------------------------------------------
      LOOP:  cpu time    0.0969: real time    0.0969

 eigenvalue-minimisations  :   666
 total energy-change (2. order) : 0.1790774E+01  (-0.6068508E+00)
 number of electron      44.0004519 magnetization 
 augmentation part       27.9548274 magnetization 

 Broyden mixing:
  rms(total) = 0.35936E-01    rms(broyden)= 0.35313E-01
  rms(prec ) = 0.65166E-01
  weight for this iteration     100.00

 eigenvalues of (default mixing * dielectric matrix)
  average eigenvalue GAMMA=   1.0295
  1.4042  0.6547

 Free energy of the ion-electron system (eV)
  ---------------------------------------------------
  alpha Z        PSCENC =       243.62337785
  Ewald energy   TEWEN  =     -4395.34838493
  -Hartree energ DENC   =     -1378.13076181
  -exchange      EXHF   =         0.00000000
  -V(xc)+E(xc)   XCENC  =       178.78212720
  PAW double counting   =      5117.39234909    -5529.05804865
  entropy T*S    EENTRO =        -0.01878421
  eigenvalues    EBANDS =       190.58576944
  atomic energy  EATOM  =      5560.28401022
  Solvation  Ediel_sol  =         0.00000000
  ---------------------------------------------------
  free energy    TOTEN  =       -11.88834581 eV

  energy without entropy =      -11.86956159  energy(sigma->0) =      -11.88208440


--------------------------------------------------------------------------------------------------------




--------------------------------------- Iteration      1(   8)  ---------------------------------------


    POTLOK:  cpu time    0.0048: real time    0.0048
    SETDIJ:  cpu time    0.0036: real time    0.0036
     EDDAV:  cpu time    0.0866: real time    0.0866
       DOS:  cpu time    0.0008: real time    0.0008
    CHARGE:  cpu time    0.0069: real time    0.0069
    MIXING:  cpu time    0.0003: real time    0.0003
    --------------------------------------------
      LOOP:  cpu time    0.1029: real time    0.1029

 eigenvalue-minimisations  :   740
 total energy-change (2. order) : 0.9802852E-02  (-0.6433975E-02)
 number of electron      44.0004504 magnetization 
 augmentation part       27.8612324 magnetization 

 Broyden mixing:
  rms(total) = 0.65534E-01    rms(broyden)= 0.65500E-01
  rms(prec ) = 0.14759E+00
  weight for this iteration     100.00

 eigenvalues of (default mixing * dielectric matrix)
  average eigenvalue GAMMA=   1.3421
  0.6928  0.9489  2.3845

 Free energy of the ion-electron system (eV)
  ---------------------------------------------------
  alpha Z        PSCENC =       243.62337785
  Ewald energy   TEWEN  =     -4395.34838493
  -Hartree energ DENC   =     -1376.73630342
  -exchange      EXHF   =         0.00000000
  -V(xc)+E(xc)   XCENC  =       178.70891078
  PAW double counting   =      5231.06273226    -5647.27407936
  entropy T*S    EENTRO =        -0.02236698
  eigenvalues    EBANDS =       193.82356063
  atomic energy  EATOM  =      5560.28401022
  Solvation  Ediel_sol  =         0.00000000
  ---------------------------------------------------
  free energy    TOTEN  =       -11.87854295 eV

  energy without entropy =      -11.85617598  energy(sigma->0) =      -11.87108729


--------------------------------------------------------------------------------------------------------




--------------------------------------- Iteration      1(   9)  ---------------------------------------


    POTLOK:  cpu time    0.0048: real time    0.0048
    SETDIJ:  cpu time    0.0036: real time    0.0036
     EDDAV:  cpu time    0.0777: real time    0.0777
       DOS:  cpu time    0.0008: real time    0.0008
    CHARGE:  cpu time    0.0071: real time    0.0071
    MIXING:  cpu time    0.0002: real time    0.0002
    --------------------------------------------
      LOOP:  cpu time    0.0941: real time    0.0941

 eigenvalue-minimisations  :   648
 total energy-change (2. order) : 0.7814492E-02  (-0.1120184E-02)
 number of electron      44.0004514 magnetization 
 augmentation part       27.9380985 magnetization 

 Broyden mixing:
  rms(total) = 0.87462E-02    rms(broyden)= 0.87361E-02
  rms(prec ) = 0.20303E-01
  weight for this iteration     100.00

 eigenvalues of (default mixing * dielectric matrix)
  average eigenvalue GAMMA=   1.3487
  2.5388  0.7050  0.8468  1.3044

 Free energy of the ion-electron system (eV)
  ---------------------------------------------------
  alpha Z        PSCENC =       243.62337785
  Ewald energy   TEWEN  =     -4395.34838493
  -Hartree energ DENC   =     -1370.57687030
  -exchange      EXHF   =         0.00000000
  -V(xc)+E(xc)   XCENC  =       178.39616894
  PAW double counting   =      5336.09697755    -5755.14968186
  entropy T*S    EENTRO =        -0.01824842
  eigenvalues    EBANDS =       190.82192250
  atomic energy  EATOM  =      5560.28401022
  Solvation  Ediel_sol  =         0.00000000
  ---------------------------------------------------
  free energy    TOTEN  =       -11.87072846 eV

  energy without entropy =      -11.85248004  energy(sigma->0) =      -11.86464565


--------------------------------------------------------------------------------------------------------




--------------------------------------- Iteration      1(  10)  ---------------------------------------


    POTLOK:  cpu time    0.0048: real time    0.0048
    SETDIJ:  cpu time    0.0035: real time    0.0035
     EDDAV:  cpu time    0.0844: real time    0.0844
       DOS:  cpu time    0.0008: real time    0.0008
    CHARGE:  cpu time    0.0070: real time    0.0070
    MIXING:  cpu time    0.0002: real time    0.0002
    --------------------------------------------
      LOOP:  cpu time    0.1008: real time    0.1008

 eigenvalue-minimisations  :   698
 total energy-change (2. order) : 0.8257148E-04  (-0.4368866E-04)
 number of electron      44.0004513 magnetization 
 augmentation part       27.9295143 magnetization 

 Broyden mixing:
  rms(total) = 0.29554E-02    rms(broyden)= 0.29551E-02
  rms(prec ) = 0.69807E-02
  weight for this iteration     100.00

 eigenvalues of (default mixing * dielectric matrix)
  average eigenvalue GAMMA=   1.4857
  2.6698  2.2199  0.9194  0.9194  0.7000

 Free energy of the ion-electron system (eV)
  ---------------------------------------------------
  alpha Z        PSCENC =       243.62337785
  Ewald energy   TEWEN  =     -4395.34838493
  -Hartree energ DENC   =     -1370.85739461
  -exchange      EXHF   =         0.00000000
  -V(xc)+E(xc)   XCENC  =       178.40942226
  PAW double counting   =      5337.10198299    -5756.23418689
  entropy T*S    EENTRO =        -0.01866583
  eigenvalues    EBANDS =       191.16919306
  atomic energy  EATOM  =      5560.28401022
  Solvation  Ediel_sol  =         0.00000000
  ---------------------------------------------------
  free energy    TOTEN  =       -11.87064589 eV

  energy without entropy =      -11.85198006  energy(sigma->0) =      -11.86442395


--------------------------------------------------------------------------------------------------------




--------------------------------------- Iteration      1(  11)  ---------------------------------------


    POTLOK:  cpu time    0.0048: real time    0.0048
    SETDIJ:  cpu time    0.0035: real time    0.0035
     EDDAV:  cpu time    0.0851: real time    0.0851
       DOS:  cpu time    0.0008: real time    0.0008
    CHARGE:  cpu time    0.0073: real time    0.0073
    MIXING:  cpu time    0.0003: real time    0.0003
    --------------------------------------------
      LOOP:  cpu time    0.1018: real time    0.1018

 eigenvalue-minimisations  :   712
 total energy-change (2. order) : 0.1153329E-04  (-0.2728721E-05)
 number of electron      44.0004513 magnetization 
 augmentation part       27.9268100 magnetization 

 Broyden mixing:
  rms(total) = 0.61605E-03    rms(broyden)= 0.61525E-03
  rms(prec ) = 0.14187E-02
  weight for this iteration     100.00

 eigenvalues of (default mixing * dielectric matrix)
  average eigenvalue GAMMA=   1.4660
  2.6550  2.4458  0.7011  0.8828  0.9732  1.1383

 Free energy of the ion-electron system (eV)
  ---------------------------------------------------
  alpha Z        PSCENC =       243.62337785
  Ewald energy   TEWEN  =     -4395.34838493
  -Hartree energ DENC   =     -1371.05170002
  -exchange      EXHF   =         0.00000000
  -V(xc)+E(xc)   XCENC  =       178.41798106
  PAW double counting   =      5335.98691404    -5755.04971902
  entropy T*S    EENTRO =        -0.01879406
  eigenvalues    EBANDS =       191.28568050
  atomic energy  EATOM  =      5560.28401022
  Solvation  Ediel_sol  =         0.00000000
  ---------------------------------------------------
  free energy    TOTEN  =       -11.87063436 eV

  energy without entropy =      -11.85184030  energy(sigma->0) =      -11.86436967


--------------------------------------------------------------------------------------------------------




--------------------------------------- Iteration      1(  12)  ---------------------------------------


    POTLOK:  cpu time    0.0049: real time    0.0049
    SETDIJ:  cpu time    0.0035: real time    0.0035
     EDDAV:  cpu time    0.0629: real time    0.0629
       DOS:  cpu time    0.0008: real time    0.0008
    CHARGE:  cpu time    0.0071: real time    0.0071
    MIXING:  cpu time    0.0003: real time    0.0003
    --------------------------------------------
      LOOP:  cpu time    0.0795: real time    0.0795

 eigenvalue-minimisations  :   472
 total energy-change (2. order) : 0.1718752E-05  (-0.1361142E-06)
 number of electron      44.0004513 magnetization 
 augmentation part       27.9261912 magnetization 

 Broyden mixing:
  rms(total) = 0.10760E-03    rms(broyden)= 0.10688E-03
  rms(prec ) = 0.25079E-03
  weight for this iteration     100.00

 eigenvalues of (default mixing * dielectric matrix)
  average eigenvalue GAMMA=   1.5755
  2.7458  2.5002  2.2094  0.7011  0.9950  0.9950  0.8823

 Free energy of the ion-electron system (eV)
  ---------------------------------------------------
  alpha Z        PSCENC =       243.62337785
  Ewald energy   TEWEN  =     -4395.34838493
  -Hartree energ DENC   =     -1371.08744059
  -exchange      EXHF   =         0.00000000
  -V(xc)+E(xc)   XCENC  =       178.41977980
  PAW double counting   =      5335.57926692    -5754.63253383
  entropy T*S    EENTRO =        -0.01882666
  eigenvalues    EBANDS =       191.31011858
  atomic energy  EATOM  =      5560.28401022
  Solvation  Ediel_sol  =         0.00000000
  ---------------------------------------------------
  free energy    TOTEN  =       -11.87063264 eV

  energy without entropy =      -11.85180598  energy(sigma->0) =      -11.86435708


--------------------------------------------------------------------------------------------------------




--------------------------------------- Iteration      1(  13)  ---------------------------------------


    POTLOK:  cpu time    0.0048: real time    0.0048
    SETDIJ:  cpu time    0.0035: real time    0.0035
     EDDAV:  cpu time    0.0524: real time    0.0524
       DOS:  cpu time    0.0008: real time    0.0008
    --------------------------------------------
      LOOP:  cpu time    0.0615: real time    0.0615

 eigenvalue-minimisations  :   324
 total energy-change (2. order) : 0.1507569E-06  (-0.1932554E-07)
 number of electron      44.0004513 magnetization 
 augmentation part       27.9261912 magnetization 

 Free energy of the ion-electron system (eV)
  ---------------------------------------------------
  alpha Z        PSCENC =       243.62337785
  Ewald energy   TEWEN  =     -4395.34838493
  -Hartree energ DENC   =     -1371.09422297
  -exchange      EXHF   =         0.00000000
  -V(xc)+E(xc)   XCENC  =       178.42010904
  PAW double counting   =      5335.52277051    -5754.57428421
  entropy T*S    EENTRO =        -0.01883283
  eigenvalues    EBANDS =       191.31482483
  atomic energy  EATOM  =      5560.28401022
  Solvation  Ediel_sol  =         0.00000000
  ---------------------------------------------------
  free energy    TOTEN  =       -11.87063249 eV

  energy without entropy =      -11.85179966  energy(sigma->0) =      -11.86435488


--------------------------------------------------------------------------------------------------------




 average (electrostatic) potential at core
  the test charge radii are     0.9430
  (the norm of the test charge is              1.0000)
       1 -64.0849       2 -64.0849       3 -64.0849       4 -64.0849
 
 
 
 E-fermi :   7.1524     XC(G=0): -12.5571     alpha+bet :-13.2037

 Fermi energy:         7.1523835805

 k-point     1 :       0.0000    0.0000    0.0000
  band No.  band energies     occupation 
      1      -1.8025      2.00000
      2       2.5251      2.00000
      3       2.5251      2.00000
      4       2.5251      2.00000
      5       3.1660      2.00000
      6       3.1660      2.00000
      7       3.1660      2.00000
      8       4.3642      2.00000
      9       4.3642      2.00000
     10       4.3642      2.00000
     11       5.2517      2.00000
     12       5.2517      2.00000
     13       5.5762      2.00000
     14       5.5762      2.00000
     15       5.5762      2.00000
     16       5.6839      2.00000
     17       5.6839      2.00000
     18       5.6839      2.00000
     19       5.6839      2.00000
     20       5.6839      2.00000
     21       5.6839      2.00000
     22       8.9441     -0.00000
     23       8.9441     -0.00000
     24       8.9441     -0.00000
     25      14.2944      0.00000
     26      14.2944      0.00000
     27      14.2944      0.00000
     28      20.3794      0.00000
     29      20.3794      0.00000
     30      20.3794      0.00000

 k-point     2 :       0.2000    0.0000    0.0000
  band No.  band energies     occupation 
      1      -1.3258      2.00000
      2       2.6235      2.00000
      3       2.7353      2.00000
      4       2.7353      2.00000
      5       3.2927      2.00000
      6       3.3159      2.00000
      7       3.3159      2.00000
      8       4.4589      2.00000
      9       4.5141      2.00000
     10       4.5141      2.00000
     11       5.0347      2.00000
     12       5.0952      2.00000
     13       5.0952      2.00000
     14       5.1900      2.00000
     15       5.4400      2.00000
     16       5.4400      2.00000
     17       5.5301      2.00000
     18       5.5367      2.00000
     19       5.5367      2.00000
     20       5.6913      2.00000
     21       5.6913      2.00000
     22       6.8564      2.05707
     23       9.9785     -0.00000
     24       9.9785     -0.00000
     25      14.4884      0.00000
     26      14.4884      0.00000
     27      17.3854      0.00000
     28      18.0984      0.00000
     29      18.0984      0.00000
     30      18.7670      0.00000

 k-point     3 :       0.4000    0.0000    0.0000
  band No.  band energies     occupation 
      1       0.0324      2.00000
      2       1.8206      2.00000
      3       3.1624      2.00000
      4       3.1624      2.00000
      5       3.6522      2.00000
      6       3.6522      2.00000
      7       3.6699      2.00000
      8       4.0859      2.00000
      9       4.1909      2.00000
     10       4.1909      2.00000
     11       4.7763      2.00000
     12       4.7763      2.00000
     13       4.8397      2.00000
     14       4.9625      2.00000
     15       5.1376      2.00000
     16       5.1376      2.00000
     17       5.2058      2.00000
     18       5.2058      2.00000
     19       5.2777      2.00000
     20       5.4126      2.00000
     21       5.7043      2.00000
     22       5.7043      2.00000
     23      12.1790     -0.00000
     24      12.1790     -0.00000
     25      14.9637      0.00000
     26      14.9637      0.00000
     27      15.1443      0.00000
     28      15.1443      0.00000
     29      16.6211      0.00000
     30      16.6211      0.00000

 k-point     4 :       0.2000    0.2000    0.0000
  band No.  band energies     occupation 
      1      -0.8614      2.00000
      2       2.7678      2.00000
      3       2.7678      2.00000
      4       2.9092      2.00000
      5       3.3220      2.00000
      6       3.3520      2.00000
      7       3.3520      2.00000
      8       4.2328      2.00000
      9       4.4456      2.00000
     10       4.5164      2.00000
     11       4.7919      2.00000
     12       4.8237      2.00000
     13       4.8237      2.00000
     14       4.9591      2.00000
     15       5.1343      2.00000
     16       5.2689      2.00000
     17       5.4172      2.00000
     18       5.4172      2.00000
     19       5.5274      2.00000
     20       5.5274      2.00000
     21       5.5698      2.00000
     22       7.7873     -0.00007
     23       7.7873     -0.00007
     24      10.8272     -0.00000
     25      14.4610      0.00000
     26      14.9708      0.00000
     27      17.7167      0.00000
     28      17.7167      0.00000
     29      18.6796      0.00000
     30      18.6796      0.00000

 k-point     5 :       0.4000    0.2000    0.0000
  band No.  band energies     occupation 
      1       0.4527      2.00000
      2       2.1387      2.00000
      3       3.2417      2.00000
      4       3.3614      2.00000
      5       3.5220      2.00000
      6       3.6250      2.00000
      7       3.7472      2.00000
      8       4.0266      2.00000
      9       4.0527      2.00000
     10       4.1989      2.00000
     11       4.4670      2.00000
     12       4.5712      2.00000
     13       4.7774      2.00000
     14       4.9692      2.00000
     15       5.0655      2.00000
     16       5.1228      2.00000
     17       5.1936      2.00000
     18       5.2386      2.00000
     19       5.4128      2.00000
     20       5.5174      2.00000
     21       5.5209      2.00000
     22       5.9498      2.00000
     23       9.4840     -0.00000
     24      11.7095     -0.00000
     25      12.8559      0.00000
     26      15.5137      0.00000
     27      15.5482      0.00000
     28      17.0091      0.00000
     29      18.8217      0.00000
     30      20.2836      0.00000

 k-point     6 :       0.4000    0.4000    0.0000
  band No.  band energies     occupation 
      1       1.5818      2.00000
      2       2.8505      2.00000
      3       2.8505      2.00000
      4       3.3611      2.00000
      5       3.7484      2.00000
      6       3.7484      2.00000
      7       3.7889      2.00000
      8       3.9686      2.00000
      9       4.0163      2.00000
     10       4.0525      2.00000
     11       4.0525      2.00000
     12       4.2707      2.00000
     13       4.8446      2.00000
     14       4.8777      2.00000
     15       4.9535      2.00000
     16       4.9817      2.00000
     17       4.9817      2.00000
     18       5.1463      2.00000
     19       5.1463      2.00000
     20       5.2694      2.00000
     21       5.9118      2.00000
     22       7.0100      1.92780
     23       7.0100      1.92780
     24       8.8215     -0.00000
     25      14.6280      0.00000
     26      16.4928      0.00000
     27      17.1657      0.00000
     28      17.1657      0.00000
     29      18.2732      0.00000
     30      18.2732      0.00000

 k-point     7 :       0.2000    0.2000    0.2000
  band No.  band energies     occupation 
      1      -0.4140      2.00000
      2       2.9892      2.00000
      3       2.9892      2.00000
      4       2.9892      2.00000
      5       3.3812      2.00000
      6       3.3812      2.00000
      7       3.3812      2.00000
      8       4.1896      2.00000
      9       4.5409      2.00000
     10       4.5409      2.00000
     11       4.6225      2.00000
     12       4.6225      2.00000
     13       4.6225      2.00000
     14       5.0854      2.00000
     15       5.0854      2.00000
     16       5.0858      2.00000
     17       5.0858      2.00000
     18       5.0858      2.00000
     19       5.6203      2.00000
     20       5.6203      2.00000
     21       5.6203      2.00000
     22       8.4161     -0.00000
     23       8.4161     -0.00000
     24       8.4161     -0.00000
     25      15.2866      0.00000
     26      15.2866      0.00000
     27      15.2866      0.00000
     28      18.0912      0.00000
     29      18.0912      0.00000
     30      18.0912      0.00000

 k-point     8 :       0.4000    0.2000    0.2000
  band No.  band energies     occupation 
      1       0.8354      2.00000
      2       2.3617      2.00000
      3       3.2946      2.00000
      4       3.2946      2.00000
      5       3.5903      2.00000
      6       3.5903      2.00000
      7       3.7680      2.00000
      8       4.0862      2.00000
      9       4.1933      2.00000
     10       4.1933      2.00000
     11       4.3840      2.00000
     12       4.5510      2.00000
     13       4.6845      2.00000
     14       4.9094      2.00000
     15       4.9341      2.00000
     16       4.9341      2.00000
     17       5.2479      2.00000
     18       5.3572      2.00000
     19       5.5535      2.00000
     20       5.5535      2.00000
     21       5.5878      2.00000
     22       6.1425      2.00000
     23       9.7880     -0.00000
     24       9.7880     -0.00000
     25      12.4641     -0.00000
     26      12.4641     -0.00000
     27      16.8161      0.00000
     28      19.1262      0.00000
     29      19.2012      0.00000
     30      19.2012      0.00000

 k-point     9 :       0.4000    0.4000    0.2000
  band No.  band energies     occupation 
      1       1.7761      2.00000
      2       2.7415      2.00000
      3       2.7415      2.00000
      4       3.0404      2.00000
      5       3.9650      2.00000
      6       4.0128      2.00000
      7       4.0128      2.00000
      8       4.1969      2.00000
      9       4.2983      2.00000
     10       4.2983      2.00000
     11       4.3481      2.00000
     12       4.4207      2.00000
     13       4.5829      2.00000
     14       4.7275      2.00000
     15       4.7346      2.00000
     16       4.7346      2.00000
     17       5.2263      2.00000
     18       5.4845      2.00000
     19       5.4845      2.00000
     20       5.4889      2.00000
     21       5.8022      2.00000
     22       7.0809      1.56417
     23       7.0809      1.56417
     24       8.7730     -0.00000
     25      11.8831     -0.00000
     26      13.8681      0.00000
     27      13.8681      0.00000
     28      16.1014      0.00000
     29      20.4171      0.00000
     30      22.4088      0.00000

 k-point    10 :       0.4000    0.4000    0.4000
  band No.  band energies     occupation 
      1       2.1346      2.00000
      2       2.5187      2.00000
      3       2.5187      2.00000
      4       2.5187      2.00000
      5       4.2623      2.00000
      6       4.2623      2.00000
      7       4.2623      2.00000
      8       4.3828      2.00000
      9       4.3828      2.00000
     10       4.5280      2.00000
     11       4.5280      2.00000
     12       4.5280      2.00000
     13       4.8703      2.00000
     14       4.8703      2.00000
     15       4.8703      2.00000
     16       5.1641      2.00000
     17       5.5385      2.00000
     18       5.5385      2.00000
     19       5.6499      2.00000
     20       5.6499      2.00000
     21       5.6499      2.00000
     22       7.2376      0.34633
     23       7.2376      0.34633
     24       7.2376      0.34633
     25      11.4074     -0.00000
     26      11.4074     -0.00000
     27      11.4074     -0.00000
     28      13.1926      0.00000
     29      25.6984      0.00000
     30      25.6984      0.00000


--------------------------------------------------------------------------------------------------------


 soft charge-density along one line, spin component           1
         0         1         2         3         4         5         6         7         8         9
x    16.0743    0.0000    0.0000   -0.0000    0.8715   -0.0000   -0.0000   -0.0000   -0.4814    0.0000
x    -0.0000   -0.0000    0.0723    0.0000    0.0000    0.0000
y    16.0743    0.0000    0.0000   -0.0000    0.8715   -0.0000   -0.0000   -0.0000   -0.4814    0.0000
y    -0.0000   -0.0000    0.0723    0.0000    0.0000    0.0000
z    16.0743    0.0000    0.0000   -0.0000    0.8715   -0.0000   -0.0000   -0.0000   -0.4814    0.0000
z    -0.0000   -0.0000    0.0723    0.0000    0.0000    0.0000
 total charge-density along one line
x    44.0005    0.0000    0.0000    0.0000   18.9029    0.0000   -0.0000    0.0000    3.4903   -0.0000
x     0.0000    0.0000    0.0107    0.0000   -0.0000    0.0000    0.0230    0.0000   -0.0000   -0.0000
x    -0.0076   -0.0000   -0.0000   -0.0000    0.0037    0.0000   -0.0000   -0.0000   -0.0028    0.0000
y    44.0005    0.0000    0.0000    0.0000   18.9029    0.0000   -0.0000    0.0000    3.4903   -0.0000
y    -0.0000    0.0000    0.0107   -0.0000   -0.0000    0.0000    0.0230   -0.0000   -0.0000    0.0000
y    -0.0076    0.0000    0.0000   -0.0000    0.0037    0.0000   -0.0000   -0.0000   -0.0028    0.0000
z    44.0005    0.0000    0.0000    0.0000   18.9029    0.0000    0.0000    0.0000    3.4903   -0.0000
z     0.0000    0.0000    0.0107   -0.0000   -0.0000    0.0000    0.0230   -0.0000   -0.0000    0.0000
z    -0.0076    0.0000    0.0000   -0.0000    0.0037    0.0000   -0.0000   -0.0000   -0.0028   -0.0000
 
 pseudopotential strength for first ion, spin component:           1
 -3.267   0.000  -0.000   0.000  -0.000  -4.427  -0.000   0.000
  0.000  -3.267  -0.000   0.000  -0.000  -0.000  -4.427   0.000
 -0.000  -0.000  -3.253   0.000  -0.000   0.000   0.000  -4.437
  0.000   0.000   0.000  -3.267   0.000  -0.000  -0.000  -0.000
 -0.000  -0.000  -0.000   0.000  -3.253   0.000   0.000   0.000
 -4.427  -0.000   0.000  -0.000   0.000  10.052   0.000  -0.000
 -0.000  -4.427   0.000  -0.000   0.000   0.000  10.052  -0.000
  0.000   0.000  -4.437  -0.000   0.000  -0.000  -0.000  10.059
 -0.000  -0.000  -0.000  -4.427  -0.000   0.000   0.000   0.000
  0.000   0.000   0.000  -0.000  -4.437  -0.000  -0.000  -0.000
 -0.000  -0.000  -0.000  -0.000  -0.000  -0.000  -0.000  -0.000
 -0.000  -0.000  -0.000  -0.000   0.000  -0.000  -0.000  -0.000
  0.000  -0.000  -0.000   0.000  -0.000  -0.000  -0.000   0.000
  0.000   0.000  -0.000   0.000   0.000   0.000  -0.000   0.000
  0.000   0.000  -0.000  -0.000   0.000  -0.000   0.000   0.000
  0.000  -0.000  -0.000  -0.000  -0.000   0.000  -0.000   0.000
 -0.000   0.000  -0.000   0.000  -0.000   0.000   0.000   0.000
  0.000  -0.000  -0.000  -0.000   0.000   0.000   0.000  -0.000
 total augmentation occupancy for first ion, spin component:           1
  1.990  -0.000   0.000   0.000  -0.000   0.045  -0.000   0.000   0.000   0.000   0.000   0.000   0.000  -0.000  -0.000   0.000
  0.000   1.990  -0.000  -0.000   0.000   0.000   0.045   0.000   0.000  -0.000   0.000  -0.000   0.000   0.000   0.000   0.000
 -0.000  -0.000   2.006   0.000  -0.000  -0.000   0.000   0.026   0.000   0.000  -0.000   0.000  -0.000   0.000  -0.000   0.000
  0.000   0.000  -0.000   1.990  -0.000   0.000   0.000   0.000   0.045   0.000  -0.000  -0.000  -0.000   0.000  -0.000  -0.000
 -0.000  -0.000   0.000   0.000   2.006  -0.000   0.000  -0.000  -0.000   0.026  -0.000   0.000   0.000   0.000  -0.000  -0.000
  0.045   0.000  -0.000   0.000  -0.000   0.020   0.000   0.000  -0.000   0.000   0.000  -0.000   0.000   0.000   0.000  -0.000
 -0.000   0.045  -0.000   0.000   0.000   0.000   0.020  -0.000   0.000  -0.000   0.000   0.000  -0.000  -0.000  -0.000   0.000
  0.000   0.000   0.026  -0.000  -0.000   0.000  -0.000   0.016   0.000  -0.000  -0.000   0.000   0.000  -0.000  -0.000  -0.000
 -0.000   0.000   0.000   0.045  -0.000   0.000  -0.000   0.000   0.020  -0.000  -0.000  -0.000  -0.000  -0.000  -0.000   0.000
  0.000  -0.000  -0.000   0.000   0.026   0.000  -0.000  -0.000  -0.000   0.016  -0.000  -0.000   0.000  -0.000  -0.000  -0.000
 -0.000   0.000   0.000  -0.000  -0.000   0.000   0.000  -0.000   0.000   0.000   1.668  -0.137   0.000   0.000   0.000   0.000
  0.000  -0.000   0.000  -0.000   0.000   0.000   0.000   0.000  -0.000   0.000  -0.137   0.018   0.000   0.000   0.000   0.000
  0.000   0.000  -0.000  -0.000  -0.000   0.000  -0.000   0.000  -0.000   0.000   0.000   0.000   0.218   0.000   0.000  -0.015
 -0.000   0.000  -0.000   0.000   0.000   0.000  -0.000  -0.000  -0.000   0.000   0.000   0.000   0.000   0.218  -0.000  -0.000
 -0.000   0.000  -0.000  -0.000  -0.000   0.000  -0.000   0.000  -0.000   0.000   0.000   0.000   0.000  -0.000   0.218  -0.000
  0.000   0.000  -0.000  -0.000   0.000  -0.000   0.000  -0.000   0.000   0.000   0.000   0.000  -0.015  -0.000  -0.000   0.003
 -0.000  -0.000   0.000  -0.000   0.000   0.000  -0.000  -0.000   0.000  -0.000   0.000   0.000   0.000  -0.015   0.000  -0.000
  0.000  -0.000   0.000  -0.000   0.000   0.000  -0.000  -0.000  -0.000  -0.000   0.000   0.000  -0.000   0.000  -0.015  -0.000


------------------------ aborting loop because EDIFF is reached ----------------------------------------


    CHARGE:  cpu time    0.0072: real time    0.0072
    FORLOC:  cpu time    0.0004: real time    0.0004
    FORNL :  cpu time    0.0257: real time    0.0257
    STRESS:  cpu time    0.0361: real time    0.0361
    FORCOR:  cpu time    0.0049: real time    0.0049
    FORHAR:  cpu time    0.0011: real time    0.0011
    MIXING:  cpu time    0.0003: real time    0.0003

  FORCE on cell =-STRESS in cart. coord.  units (eV):
  Direction    XX          YY          ZZ          XY          YZ          ZX
  --------------------------------------------------------------------------------------
  Alpha Z   243.62338   243.62338   243.62338
  Ewald   -1465.11677 -1465.11677 -1465.11677     0.00000     0.00000     0.00000
  Hartree   457.03245   457.03245   457.03245    -0.00000    -0.00000    -0.00000
  E(xc)    -257.62966  -257.62966  -257.62966    -0.00000    -0.00000    -0.00000
  Local     360.48295   360.48295   360.48295     0.00000     0.00000     0.00000
  n-local  -136.83739  -142.71455  -144.42306    -0.61407     2.76324     1.66213
  augment   378.85551   378.85551   378.85551     0.00000    -0.00000    -0.00000
  Kinetic   388.83312   381.81786   375.11763    -3.92637    -0.01302    -0.62283
  Fock        0.00000     0.00000     0.00000     0.00000     0.00000     0.00000
  -------------------------------------------------------------------------------------
  Total     -42.15428   -42.15428   -42.15428    -0.00000    -0.00000     0.00000
  in kB   -1406.17374 -1406.17374 -1406.17374    -0.00000    -0.00000     0.00000
  external pressure =    -1406.17 kB  Pullay stress =        0.00 kB


 VOLUME and BASIS-vectors are now :
 -----------------------------------------------------------------------------
  energy-cutoff  :      220.00
  volume of cell :       48.03
      direct lattice vectors                 reciprocal lattice vectors
     3.635000000  0.000000000  0.000000000     0.275103164  0.000000000  0.000000000
     0.000000000  3.635000000  0.000000000     0.000000000  0.275103164  0.000000000
     0.000000000  0.000000000  3.635000000     0.000000000  0.000000000  0.275103164

  length of vectors
     3.635000000  3.635000000  3.635000000     0.275103164  0.275103164  0.275103164


 FORCES acting on ions
    electron-ion (+dipol)            ewald-force                    non-local-force                 convergence-correction
 -----------------------------------------------------------------------------------------------
   -.134E-12 0.110E-14 -.854E-14   0.103E-13 0.597E-14 -.166E-13   -.132E-23 0.303E-23 -.614E-23   -.137E-12 0.671E-14 -.255E-13
   0.549E-12 0.722E-12 -.527E-14   0.175E-13 0.141E-13 -.168E-13   0.966E-25 0.190E-23 -.122E-22   -.146E-12 -.214E-13 -.416E-13
   0.541E-12 -.196E-13 0.681E-12   -.529E-14 -.138E-13 0.159E-13   0.161E-23 -.748E-23 0.242E-23   -.109E-12 0.481E-14 0.118E-12
   -.146E-12 0.689E-12 0.664E-12   -.204E-13 -.566E-14 0.157E-13   -.623E-23 -.227E-24 -.110E-22   -.123E-12 -.359E-13 0.928E-13
 -----------------------------------------------------------------------------------------------
   0.810E-12 0.139E-11 0.133E-11   0.207E-14 0.619E-15 -.180E-14   -.584E-23 -.277E-23 -.269E-22   -.514E-12 -.458E-13 0.143E-12
 
 
 POSITION                                       TOTAL-FORCE (eV/Angst)
 -----------------------------------------------------------------------------------
      0.00000      0.00000      0.00000        -0.000000     -0.000000     -0.000000
      1.81750      1.81750      0.00000         0.000000     -0.000000      0.000000
      1.81750      0.00000      1.81750         0.000000      0.000000      0.000000
      0.00000      1.81750      1.81750        -0.000000     -0.000000     -0.000000
 -----------------------------------------------------------------------------------
    total drift:                                0.000000      0.000000      0.000000


--------------------------------------------------------------------------------------------------------



  FREE ENERGIE OF THE ION-ELECTRON SYSTEM (eV)
  ---------------------------------------------------
  free  energy   TOTEN  =       -11.87063249 eV

  energy  without entropy=      -11.85179966  energy(sigma->0) =      -11.86435488
 


--------------------------------------------------------------------------------------------------------


    POTLOK:  cpu time    0.0085: real time    0.0085


--------------------------------------------------------------------------------------------------------


 writing wavefunctions
     LOOP+:  cpu time    1.2947: real time    1.3129
    4ORBIT:  cpu time    0.0000: real time    0.0000

 total amount of memory used by VASP MPI-rank0    33955. kBytes
=======================================================================

   base      :      30000. kBytes
   nonl-proj :        556. kBytes
   grid      :       1216. kBytes
   one-center:         62. kBytes
   wavefun   :       2121. kBytes
 
  
  
 General timing and accounting informations for this job:
 ========================================================
  
                  Total CPU time used (sec):        1.425
                            User time (sec):        1.377
                          System time (sec):        0.048
                         Elapsed time (sec):        1.440
  
                   Maximum memory used (kb):       38436.
                   Average memory used (kb):          N/A
  
                          Minor page faults:         3373
                          Major page faults:            0
                 Voluntary context switches:           27
