unknown system                          
   1.00000000000000     
     3.443320    0.000000    0.000000
     0.000000    3.443320    0.000000
     0.000000    0.000000    3.443320
   Pd   Ir   Pt   Cu
     1     1     1     1
Direct
  0.000000  0.000000  0.000000
  0.500000  0.500000  0.000000
  0.500000  0.000000  0.500000
  0.000000  0.500000  0.500000
 
   28   28   28
  251.57      239.72      209.48      171.91      135.01      100.79      69.651      44.389      28.226      20.325    
  16.154      13.737      12.522      12.145      12.114      12.145      12.522      13.737      16.154      20.325    
  28.226      44.389      69.651      100.79      135.01      171.91      209.48      239.72      239.87      228.65    
  199.95      164.17      128.90      96.200      66.596      42.769      27.637      20.214      16.215      13.910    
  12.756      12.398      12.369      12.398      12.756      13.910      16.215      20.214      27.637      42.769    
  66.596      96.200      128.90      164.17      199.95      228.65      209.48      199.84      175.06      143.84    
  112.80      84.103      58.611      38.610      26.188      19.984      16.487      14.517      13.557      13.272    
  13.253      13.272      13.557      14.517      16.487      19.984      26.188      38.610      58.611      84.103    
  112.80      143.84      175.06      199.84      170.61      162.89      142.88      117.34      91.750      68.430    
  48.480      33.547      24.600      19.907      17.209      15.799      15.191      15.068      15.086      15.068    
  15.191      15.799      17.209      19.907      24.600      33.547      48.480      68.430      91.750      117.34    
  142.88      162.89      131.62      125.72      110.31      90.466      70.625      53.101      38.998      29.170    
  23.518      20.334      18.693      18.066      17.996      18.167      18.274      18.167      17.996      18.066    
  18.693      20.334      23.518      29.170      38.998      53.101      70.625      90.466      110.31      125.72    
  96.013      91.775      80.673      66.370      52.318      40.522      31.811      26.308      23.204      21.592    
  21.239      21.738      22.628      23.446      23.778      23.446      22.628      21.738      21.239      21.592    
  23.204      26.308      31.811      40.522      52.318      66.370      80.673      91.775      65.215      62.522    
  55.494      46.564      38.110      31.539      27.261      24.898      23.790      24.012      25.460      27.707    
  30.128      32.004      32.713      32.004      30.128      27.707      25.460      24.012      23.790      24.898    
  27.261      31.539      38.110      46.564      55.494      62.522      41.432      40.062      36.539      32.228    
  28.458      25.956      24.743      24.533      25.580      28.028      31.667      35.985      40.182      43.279    
  44.426      43.279      40.182      35.985      31.667      28.028      25.580      24.533      24.743      25.956    
  28.458      32.228      36.539      40.062      26.504      26.032      24.875      23.625      22.828      22.720    
  23.455      25.378      28.757      33.484      39.197      45.327      51.010      55.124      56.637      55.124    
  51.010      45.327      39.197      33.484      28.757      25.378      23.455      22.720      22.828      23.625    
  24.875      26.032      19.013      18.947      18.838      18.921      19.508      20.897      23.407      27.494    
  33.116      39.806      47.032      54.297      60.878      65.642      67.403      65.642      60.878      54.297    
  47.032      39.806      33.116      27.494      23.407      20.897      19.508      18.921      18.838      18.947    
  14.902      14.982      15.308      16.104      17.662      20.260      24.468      30.637      38.281      46.496    
  54.649      62.516      69.674      74.979      76.975      74.979      69.674      62.516      54.649      46.496    
  38.281      30.637      24.468      20.260      17.662      16.104      15.308      14.982      12.467      12.642    
  13.256      14.546      16.808      20.430      26.237      34.348      43.781      53.228      62.102      70.601    
  78.617      84.812      87.199      84.812      78.617      70.601      62.102      53.228      43.781      34.348    
  26.237      20.430      16.808      14.546      13.256      12.642      11.215      11.440      12.216      13.805    
  16.533      20.997      28.178      37.954      48.906      59.448      69.154      78.675      88.100      95.667    
  98.636      95.667      88.100      78.675      69.154      59.448      48.906      37.954      28.178      20.997    
  16.533      13.805      12.216      11.440      10.801      11.039      11.869      13.586      16.556      21.573    
  29.693      40.622      52.652      64.052      74.575      85.206      96.099      105.03      108.57      105.03    
  96.099      85.206      74.575      64.052      52.652      40.622      29.693      21.573      16.556      13.586    
  11.869      11.039      10.753      10.991      11.826      13.568      16.607      21.814      30.268      41.612    
  54.040      65.777      76.654      87.779      99.309      108.82      112.60      108.82      99.309      87.779    
  76.654      65.777      54.040      41.612      30.268      21.814      16.607      13.568      11.826      10.991    
  10.801      11.039      11.869      13.586      16.556      21.573      29.693      40.622      52.652      64.052    
  74.575      85.206      96.099      105.03      108.57      105.03      96.099      85.206      74.575      64.052    
  52.652      40.622      29.693      21.573      16.556      13.586      11.869      11.039      11.215      11.440    
  12.216      13.805      16.533      20.997      28.178      37.954      48.906      59.448      69.154      78.675    
  88.100      95.667      98.636      95.667      88.100      78.675      69.154      59.448      48.906      37.954    
  28.178      20.997      16.533      13.805      12.216      11.440      12.467      12.642      13.256      14.546    
  16.808      20.430      26.237      34.348      43.781      53.228      62.102      70.601      78.617      84.812    
  87.199      84.812      78.617      70.601      62.102      53.228      43.781      34.348      26.237      20.430    
  16.808      14.546      13.256      12.642      14.902      14.982      15.308      16.104      17.662      20.260    
  24.468      30.637      38.281      46.496      54.649      62.516      69.674      74.979      76.975      74.979    
  69.674      62.516      54.649      46.496      38.281      30.637      24.468      20.260      17.662      16.104    
  15.308      14.982      19.013      18.947      18.838      18.921      19.508      20.897      23.407      27.494    
  33.116      39.806      47.032      54.297      60.878      65.642      67.403      65.642      60.878      54.297    
  47.032      39.806      33.116      27.494      23.407      20.897      19.508      18.921      18.838      18.947    
  26.504      26.032      24.875      23.625      22.828      22.720      23.455      25.378      28.757      33.484    
  39.197      45.327      51.010      55.124      56.637      55.124      51.010      45.327      39.197      33.484    
  28.757      25.378      23.455      22.720      22.828      23.625      24.875      26.032      41.432      40.062    
  36.539      32.228      28.458      25.956      24.743      24.533      25.580      28.028      31.667      35.985    
  40.182      43.279      44.426      43.279      40.182      35.985      31.667      28.028      25.580      24.533    
  24.743      25.956      28.458      32.228      36.539      40.062      65.215      62.522      55.494      46.564    
  38.110      31.539      27.261      24.898      23.790      24.012      25.460      27.707      30.128      32.004    
  32.713      32.004      30.128      27.707      25.460      24.012      23.790      24.898      27.261      31.539    
  38.110      46.564      55.494      62.522      96.013      91.775      80.673      66.370      52.318      40.522    
  31.811      26.308      23.204      21.592      21.239      21.738      22.628      23.446      23.778      23.446    
  22.628      21.738      21.239      21.592      23.204      26.308      31.811      40.522      52.318      66.370    
  80.673      91.775      131.62      125.72      110.31      90.466      70.625      53.101      38.998      29.170    
  23.518      20.334      18.693      18.066      17.996      18.167      18.274      18.167      17.996      18.066    
  18.693      20.334      23.518      29.170      38.998      53.101      70.625      90.466      110.31      125.72    
  170.61      162.89      142.88      117.34      91.750      68.430      48.480      33.547      24.600      19.907    
  17.209      15.799      15.191      15.068      15.086      15.068      15.191      15.799      17.209      19.907    
  24.600      33.547      48.480      68.430      91.750      117.34      142.88      162.89      209.48      199.84    
  175.06      143.84      112.80      84.103      58.611      38.610      26.188      19.984      16.487      14.517    
  13.557      13.272      13.253      13.272      13.557      14.517      16.487      19.984      26.188      38.610    
  58.611      84.103      112.80      143.84      175.06      199.84      239.87      228.65      199.95      164.17    
  128.90      96.200      66.596      42.769      27.637      20.214      16.215      13.910      12.756      12.398    
  12.369      12.398      12.756      13.910      16.215      20.214      27.637      42.769      66.596      96.200    
  128.90      164.17      199.95      228.65      239.96      228.76      200.10      164.35      129.06      96.304    
  66.641      42.773      27.624      20.197      16.194      13.881      12.718      12.353      12.321      12.353    
  12.718      13.881      16.194      20.197      27.624      42.773      66.641      96.304      129.06      164.35    
  200.10      228.76      229.23      218.58      191.31      157.17      123.36      92.002      63.780      41.262    
  27.078      20.089      16.252      14.048      12.945      12.600      12.569      12.600      12.945      14.048    
  16.252      20.089      27.078      41.262      63.780      92.002      123.36      157.17      191.31      218.58    
  201.18      191.96      168.21      138.19      108.26      80.640      56.292      37.380      25.731      19.863    
  16.515      14.635      13.721      13.449      13.430      13.449      13.721      14.635      16.515      19.863    
  25.731      37.380      56.292      80.640      108.26      138.19      168.21      191.96      164.83      157.37    
  137.99      113.22      88.380      65.851      46.767      32.645      24.246      19.781      17.209      15.873    
  15.303      15.189      15.208      15.189      15.303      15.873      17.209      19.781      24.246      32.645    
  46.767      65.851      88.380      113.22      137.99      157.37      127.69      121.94      106.92      87.565    
  68.251      51.307      37.823      28.539      23.217      20.181      18.635      18.061      18.013      18.186    
  18.291      18.186      18.013      18.061      18.635      20.181      23.217      28.539      37.823      51.307    
  68.251      87.565      106.92      121.94      93.226      89.093      78.266      64.330      50.688      39.323    
  31.025      25.837      22.894      21.385      21.081      21.582      22.447      23.235      23.554      23.235    
  22.447      21.582      21.081      21.385      22.894      25.837      31.025      39.323      50.688      64.330    
  78.266      89.093      63.269      60.656      53.840      45.197      37.049      30.764      26.712      24.476    
  23.446      23.696      25.116      27.290      29.619      31.418      32.098      31.418      29.619      27.290    
  25.116      23.696      23.446      24.476      26.712      30.764      37.049      45.197      53.840      60.656    
  40.270      38.953      35.568      31.435      27.834      25.456      24.299      24.119      25.159      27.550    
  31.082      35.252      39.288      42.258      43.356      42.258      39.288      35.252      31.082      27.550    
  25.159      24.119      24.299      25.456      27.834      31.435      35.568      38.953      25.981      25.532    
  24.430      23.239      22.470      22.354      23.072      24.944      28.235      32.841      38.397      44.327    
  49.792      53.731      55.176      53.731      49.792      44.327      38.397      32.841      28.235      24.944    
  23.072      22.354      22.470      23.239      24.430      25.532      18.812      18.747      18.638      18.712    
  19.276      20.624      23.053      27.019      32.505      39.054      46.110      53.149      59.461      63.992    
  65.659      63.992      59.461      53.149      46.110      39.054      32.505      27.019      23.053      20.624    
  19.276      18.712      18.638      18.747      14.802      14.884      15.210      15.994      17.515      20.042    
  24.115      30.120      37.618      45.710      53.709      61.317      68.120      73.095      74.955      73.095    
  68.120      61.317      53.709      45.710      37.618      30.120      24.115      20.042      17.515      15.994    
  15.210      14.884      12.414      12.592      13.210      14.489      16.710      20.233      25.869      33.799    
  43.101      52.462      61.185      69.349      76.856      82.562      84.745      82.562      76.856      69.349    
  61.185      52.462      43.101      33.799      25.869      20.233      16.710      14.489      13.210      12.592    
  11.158      11.390      12.177      13.762      16.453      20.800      27.790      37.382      48.230      58.712    
  68.241      77.302      86.008      92.883      95.563      92.883      86.008      77.302      68.241      58.712    
  48.230      37.382      27.790      20.800      16.453      13.762      12.177      11.390      10.713      10.961    
  11.810      13.534      16.474      21.367      29.288      40.038      51.983      63.334      73.638      83.684    
  93.667      101.73      104.90      101.73      93.667      83.684      73.638      63.334      51.983      40.038    
  29.288      21.367      16.474      13.534      11.810      10.961      10.647      10.897      11.755      13.509    
  16.521      21.603      29.856      41.024      53.373      65.063      75.701      86.187      96.730      105.30    
  108.69      105.30      96.730      86.187      75.701      65.063      53.373      41.024      29.856      21.603    
  16.521      13.509      11.755      10.897      10.713      10.961      11.810      13.534      16.474      21.367    
  29.288      40.038      51.983      63.334      73.638      83.684      93.667      101.73      104.90      101.73    
  93.667      83.684      73.638      63.334      51.983      40.038      29.288      21.367      16.474      13.534    
  11.810      10.961      11.158      11.390      12.177      13.762      16.453      20.800      27.790      37.382    
  48.230      58.712      68.241      77.302      86.008      92.883      95.563      92.883      86.008      77.302    
  68.241      58.712      48.230      37.382      27.790      20.800      16.453      13.762      12.177      11.390    
  12.414      12.592      13.210      14.489      16.710      20.233      25.869      33.799      43.101      52.462    
  61.185      69.349      76.856      82.562      84.745      82.562      76.856      69.349      61.185      52.462    
  43.101      33.799      25.869      20.233      16.710      14.489      13.210      12.592      14.802      14.884    
  15.210      15.994      17.515      20.042      24.115      30.120      37.618      45.710      53.709      61.317    
  68.120      73.095      74.955      73.095      68.120      61.317      53.709      45.710      37.618      30.120    
  24.115      20.042      17.515      15.994      15.210      14.884      18.812      18.747      18.638      18.712    
  19.276      20.624      23.053      27.019      32.505      39.054      46.110      53.149      59.461      63.992    
  65.659      63.992      59.461      53.149      46.110      39.054      32.505      27.019      23.053      20.624    
  19.276      18.712      18.638      18.747      25.981      25.532      24.430      23.239      22.470      22.354    
  23.072      24.944      28.235      32.841      38.397      44.327      49.792      53.731      55.176      53.731    
  49.792      44.327      38.397      32.841      28.235      24.944      23.072      22.354      22.470      23.239    
  24.430      25.532      40.270      38.953      35.568      31.435      27.834      25.456      24.299      24.119    
  25.159      27.550      31.082      35.252      39.288      42.258      43.356      42.258      39.288      35.252    
  31.082      27.550      25.159      24.119      24.299      25.456      27.834      31.435      35.568      38.953    
  63.269      60.656      53.840      45.197      37.049      30.764      26.712      24.476      23.446      23.696    
  25.116      27.290      29.619      31.418      32.098      31.418      29.619      27.290      25.116      23.696    
  23.446      24.476      26.712      30.764      37.049      45.197      53.840      60.656      93.226      89.093    
  78.266      64.330      50.688      39.323      31.025      25.837      22.894      21.385      21.081      21.582    
  22.447      23.235      23.554      23.235      22.447      21.582      21.081      21.385      22.894      25.837    
  31.025      39.323      50.688      64.330      78.266      89.093      127.69      121.94      106.92      87.565    
  68.251      51.307      37.823      28.539      23.217      20.181      18.635      18.061      18.013      18.186    
  18.291      18.186      18.013      18.061      18.635      20.181      23.217      28.539      37.823      51.307    
  68.251      87.565      106.92      121.94      164.83      157.37      137.99      113.22      88.380      65.851    
  46.767      32.645      24.246      19.781      17.209      15.873      15.303      15.189      15.208      15.189    
  15.303      15.873      17.209      19.781      24.246      32.645      46.767      65.851      88.380      113.22    
  137.99      157.37      201.18      191.96      168.21      138.19      108.26      80.640      56.292      37.380    
  25.731      19.863      16.515      14.635      13.721      13.449      13.430      13.449      13.721      14.635    
  16.515      19.863      25.731      37.380      56.292      80.640      108.26      138.19      168.21      191.96    
  229.23      218.58      191.31      157.17      123.36      92.002      63.780      41.262      27.078      20.089    
  16.252      14.048      12.945      12.600      12.569      12.600      12.945      14.048      16.252      20.089    
  27.078      41.262      63.780      92.002      123.36      157.17      191.31      218.58      209.73      200.16    
  175.51      144.37      113.27      84.407      58.726      38.603      26.139      19.932      16.431      14.449    
  13.471      13.171      13.147      13.171      13.471      14.449      16.431      19.932      26.139      38.603    
  58.726      84.407      113.27      144.37      175.51      200.16      201.34      192.17      168.52      138.56    
  108.58      80.844      56.365      37.370      25.694      19.827      16.478      14.593      13.670      13.389    
  13.367      13.389      13.670      14.593      16.478      19.827      25.694      37.370      56.365      80.844    
  108.58      138.56      168.52      192.17      178.98      170.85      149.81      122.96      96.015      71.367    
  50.163      34.194      24.590      19.602      16.697      15.106      14.354      14.142      14.132      14.142    
  14.354      15.106      16.697      19.602      24.590      34.194      50.163      71.367      96.015      122.96    
  149.81      170.85      148.81      142.06      124.45      101.82      79.143      58.879      42.215      30.296    
  23.343      19.490      17.292      16.193      15.754      15.689      15.716      15.689      15.754      16.193    
  17.292      19.490      23.343      30.296      42.215      58.879      79.143      101.82      124.45      142.06    
  116.37      111.08      97.228      79.362      61.652      46.420      34.687      26.881      22.415      19.802    
  18.537      18.129      18.167      18.363      18.468      18.363      18.167      18.129      18.537      19.802    
  22.415      26.881      34.687      46.420      61.652      79.362      97.228      111.08      85.074      81.269    
  71.306      58.528      46.149      36.059      28.925      24.577      22.059      20.841      20.691      21.221    
  22.039      22.761      23.049      22.761      22.039      21.221      20.691      20.841      22.059      24.577    
  28.925      36.059      46.149      58.528      71.306      81.269      57.649      55.283      49.126      41.363    
  34.133      28.672      25.236      23.326      22.517      22.853      24.204      26.193      28.289      29.893    
  30.497      29.893      28.289      26.193      24.204      22.853      22.517      23.326      25.236      28.672    
  34.133      41.363      49.126      55.283      37.009      35.848      32.874      29.264      26.147      24.106    
  23.091      22.999      24.018      26.248      29.486      33.261      36.875      39.513      40.483      39.513    
  36.875      33.261      29.486      26.248      24.018      22.999      23.091      24.106      26.147      29.264    
  32.874      35.848      24.554      24.168      23.221      22.187      21.485      21.354      22.033      23.762    
  26.799      31.058      36.170      41.563      46.462      49.946      51.216      49.946      46.462      41.563    
  36.170      31.058      26.799      23.762      22.033      21.354      21.485      22.187      23.221      24.168    
  18.260      18.197      18.085      18.137      18.639      19.875      22.089      25.707      30.787      36.916    
  43.498      49.943      55.571      59.519      60.954      59.519      55.571      49.943      43.498      36.916    
  30.787      25.707      22.089      19.875      18.639      18.137      18.085      18.197      14.592      14.672    
  14.984      15.714      17.118      19.442      23.136      28.657      35.699      43.410      50.984      57.949    
  63.887      68.064      69.593      68.064      63.887      57.949      50.984      43.410      35.699      28.657    
  23.136      19.442      17.118      15.714      14.984      14.672      12.410      12.585      13.179      14.384    
  16.454      19.688      24.824      32.198      41.070      50.141      58.475      65.844      72.143      76.682    
  78.375      76.682      72.143      65.844      58.475      50.141      41.070      32.198      24.824      19.688    
  16.454      14.384      13.179      12.585      11.236      11.464      12.228      13.736      16.265      20.253    
  26.665      35.674      46.142      56.410      65.510      73.499      80.508      85.732      87.720      85.732    
  80.508      73.499      65.510      56.410      46.142      35.674      26.665      20.253      16.265      13.736    
  12.228      11.464      10.780      11.029      11.863      13.517      16.299      20.794      28.099      38.260    
  49.866      61.035      70.826      79.510      87.342      93.323      95.627      93.323      87.342      79.510    
  70.826      61.035      49.866      38.260      28.099      20.794      16.299      13.517      11.863      11.029    
  10.694      10.945      11.794      13.486      16.343      21.016      28.643      39.222      51.246      62.761    
  72.842      81.841      90.045      96.362      98.805      96.362      90.045      81.841      72.842      62.761    
  51.246      39.222      28.643      21.016      16.343      13.486      11.794      10.945      10.780      11.029    
  11.863      13.517      16.299      20.794      28.099      38.260      49.866      61.035      70.826      79.510    
  87.342      93.323      95.627      93.323      87.342      79.510      70.826      61.035      49.866      38.260    
  28.099      20.794      16.299      13.517      11.863      11.029      11.236      11.464      12.228      13.736    
  16.265      20.253      26.665      35.674      46.142      56.410      65.510      73.499      80.508      85.732    
  87.720      85.732      80.508      73.499      65.510      56.410      46.142      35.674      26.665      20.253    
  16.265      13.736      12.228      11.464      12.410      12.585      13.179      14.384      16.454      19.688    
  24.824      32.198      41.070      50.141      58.475      65.844      72.143      76.682      78.375      76.682    
  72.143      65.844      58.475      50.141      41.070      32.198      24.824      19.688      16.454      14.384    
  13.179      12.585      14.592      14.672      14.984      15.714      17.118      19.442      23.136      28.657    
  35.699      43.410      50.984      57.949      63.887      68.064      69.593      68.064      63.887      57.949    
  50.984      43.410      35.699      28.657      23.136      19.442      17.118      15.714      14.984      14.672    
  18.260      18.197      18.085      18.137      18.639      19.875      22.089      25.707      30.787      36.916    
  43.498      49.943      55.571      59.519      60.954      59.519      55.571      49.943      43.498      36.916    
  30.787      25.707      22.089      19.875      18.639      18.137      18.085      18.197      24.554      24.168    
  23.221      22.187      21.485      21.354      22.033      23.762      26.799      31.058      36.170      41.563    
  46.462      49.946      51.216      49.946      46.462      41.563      36.170      31.058      26.799      23.762    
  22.033      21.354      21.485      22.187      23.221      24.168      37.009      35.848      32.874      29.264    
  26.147      24.106      23.091      22.999      24.018      26.248      29.486      33.261      36.875      39.513    
  40.483      39.513      36.875      33.261      29.486      26.248      24.018      22.999      23.091      24.106    
  26.147      29.264      32.874      35.848      57.649      55.283      49.126      41.363      34.133      28.672    
  25.236      23.326      22.517      22.853      24.204      26.193      28.289      29.893      30.497      29.893    
  28.289      26.193      24.204      22.853      22.517      23.326      25.236      28.672      34.133      41.363    
  49.126      55.283      85.074      81.269      71.306      58.528      46.149      36.059      28.925      24.577    
  22.059      20.841      20.691      21.221      22.039      22.761      23.049      22.761      22.039      21.221    
  20.691      20.841      22.059      24.577      28.925      36.059      46.149      58.528      71.306      81.269    
  116.37      111.08      97.228      79.362      61.652      46.420      34.687      26.881      22.415      19.802    
  18.537      18.129      18.167      18.363      18.468      18.363      18.167      18.129      18.537      19.802    
  22.415      26.881      34.687      46.420      61.652      79.362      97.228      111.08      148.81      142.06    
  124.45      101.82      79.143      58.879      42.215      30.296      23.343      19.490      17.292      16.193    
  15.754      15.689      15.716      15.689      15.754      16.193      17.292      19.490      23.343      30.296    
  42.215      58.879      79.143      101.82      124.45      142.06      178.98      170.85      149.81      122.96    
  96.015      71.367      50.163      34.194      24.590      19.602      16.697      15.106      14.354      14.142    
  14.132      14.142      14.354      15.106      16.697      19.602      24.590      34.194      50.163      71.367    
  96.015      122.96      149.81      170.85      201.34      192.17      168.52      138.56      108.58      80.844    
  56.365      37.370      25.694      19.827      16.478      14.593      13.670      13.389      13.367      13.389    
  13.670      14.593      16.478      19.827      25.694      37.370      56.365      80.844      108.58      138.56    
  168.52      192.17      170.89      163.27      143.48      118.07      92.391      68.805      48.576      33.480    
  24.497      19.825      17.149      15.748      15.139      15.011      15.028      15.011      15.139      15.748    
  17.149      19.825      24.497      33.480      48.576      68.805      92.391      118.07      143.48      163.27    
  165.04      157.66      138.47      113.80      88.891      66.143      46.832      32.580      24.157      19.713    
  17.164      15.841      15.275      15.162      15.181      15.162      15.275      15.841      17.164      19.713    
  24.157      32.580      46.832      66.143      88.891      113.80      138.47      157.66      148.88      142.17    
  124.66      102.08      79.368      58.997      42.225      30.250      23.293      19.456      17.277      16.192    
  15.762      15.704      15.732      15.704      15.762      16.192      17.277      19.456      23.293      30.250    
  42.225      58.997      79.368      102.08      124.66      142.17      125.71      119.97      104.96      85.558    