unknown system                          
   1.00000000000000     
     3.443320    0.000000    0.000000
     0.000000    3.443320    0.000000
     0.000000    0.000000    3.443320
   Pd   Ir   Pt   Cu
     1     1     1     1
Direct
  0.000000  0.000000  0.000000
  0.500000  0.500000  0.000000
  0.500000  0.000000  0.500000
  0.000000  0.500000  0.500000
 
   28   28   28
 0.25156794829E+03 0.23971909189E+03 0.20948150257E+03 0.17191208138E+03 0.13500987341E+03
 0.10079041612E+03 0.69651494142E+02 0.44388516726E+02 0.28225780335E+02 0.20325476967E+02
 0.16154465715E+02 0.13737347730E+02 0.12522368343E+02 0.12145102359E+02 0.12114109017E+02
 0.12145102359E+02 0.12522368343E+02 0.13737347730E+02 0.16154465715E+02 0.20325476967E+02
 0.28225780335E+02 0.44388516726E+02 0.69651494142E+02 0.10079041612E+03 0.13500987341E+03
 0.17191208138E+03 0.20948150257E+03 0.23971909189E+03 0.23986802130E+03 0.22864562585E+03
 0.19995251496E+03 0.16417454733E+03 0.12890451453E+03 0.96199589940E+02 0.66596291510E+02
 0.42769018842E+02 0.27637183534E+02 0.20213680329E+02 0.16215033824E+02 0.13909528855E+02
 0.12755814345E+02 0.12398261663E+02 0.12368713897E+02 0.12398261663E+02 0.12755814345E+02
 0.13909528855E+02 0.16215033824E+02 0.20213680329E+02 0.27637183534E+02 0.42769018842E+02
 0.66596291510E+02 0.96199589940E+02 0.12890451453E+03 0.16417454733E+03 0.19995251496E+03
 0.22864562585E+03 0.20948373401E+03 0.19984260126E+03 0.17505531711E+03 0.14383877760E+03
 0.11279580460E+03 0.84103454033E+02 0.58611147502E+02 0.38610172280E+02 0.26188482935E+02
 0.19984455885E+02 0.16487389900E+02 0.14516946652E+02 0.13556906086E+02 0.13272066390E+02
 0.13253455795E+02 0.13272066390E+02 0.13556906086E+02 0.14516946652E+02 0.16487389900E+02
 0.19984455885E+02 0.26188482935E+02 0.38610172280E+02 0.58611147502E+02 0.84103454033E+02
 0.11279580460E+03 0.14383877760E+03 0.17505531711E+03 0.19984260126E+03 0.17061466408E+03
 0.16289202574E+03 0.14287550896E+03 0.11733657855E+03 0.91750201490E+02 0.68430272741E+02
 0.48480377593E+02 0.33546799242E+02 0.24599724759E+02 0.19906970400E+02 0.17209467342E+02
 0.15799112679E+02 0.15191402316E+02 0.15067549251E+02 0.15086412416E+02 0.15067549251E+02
 0.15191402316E+02 0.15799112679E+02 0.17209467342E+02 0.19906970400E+02 0.24599724759E+02
 0.33546799242E+02 0.48480377593E+02 0.68430272741E+02 0.91750201490E+02 0.11733657855E+03
 0.14287550896E+03 0.16289202574E+03 0.13161723134E+03 0.12571864053E+03 0.11031322159E+03
 0.90465800620E+02 0.70625165878E+02 0.53100567890E+02 0.38997717882E+02 0.29170034047E+02
 0.23518485111E+02 0.20334077258E+02 0.18692940754E+02 0.18065626378E+02 0.17995938497E+02
 0.18167364080E+02 0.18274403901E+02 0.18167364080E+02 0.17995938497E+02 0.18065626378E+02
 0.18692940754E+02 0.20334077258E+02 0.23518485111E+02 0.29170034047E+02 0.38997717882E+02
 0.53100567890E+02 0.70625165878E+02 0.90465800620E+02 0.11031322159E+03 0.12571864053E+03
 0.96012717557E+02 0.91775415233E+02 0.80673229427E+02 0.66370037854E+02 0.52318135927E+02
 0.40521926610E+02 0.31811055001E+02 0.26307847608E+02 0.23204403888E+02 0.21592268081E+02
 0.21238997848E+02 0.21737955717E+02 0.22627743961E+02 0.23445771710E+02 0.23777861417E+02
 0.23445771710E+02 0.22627743961E+02 0.21737955717E+02 0.21238997848E+02 0.21592268081E+02
 0.23204403888E+02 0.26307847608E+02 0.31811055001E+02 0.40521926610E+02 0.52318135927E+02
 0.66370037854E+02 0.80673229427E+02 0.91775415233E+02 0.65215000459E+02 0.62522052034E+02
 0.55493679495E+02 0.46563976224E+02 0.38109881772E+02 0.31539286982E+02 0.27261079251E+02
 0.24898181611E+02 0.23789927352E+02 0.24011686309E+02 0.25460288548E+02 0.27706772467E+02
 0.30127649545E+02 0.32003526067E+02 0.32712880856E+02 0.32003526067E+02 0.30127649545E+02
 0.27706772467E+02 0.25460288548E+02 0.24011686309E+02 0.23789927352E+02 0.24898181611E+02
 0.27261079251E+02 0.31539286982E+02 0.38109881772E+02 0.46563976224E+02 0.55493679495E+02
 0.62522052034E+02 0.41432046470E+02 0.40061643987E+02 0.36538583660E+02 0.32228116121E+02
 0.28457756714E+02 0.25956091342E+02 0.24742918348E+02 0.24533047640E+02 0.25580479209E+02
 0.28027501994E+02 0.31666746532E+02 0.35984811039E+02 0.40181569836E+02 0.43279169148E+02
 0.44426077324E+02 0.43279169148E+02 0.40181569836E+02 0.35984811039E+02 0.31666746532E+02
 0.28027501994E+02 0.25580479209E+02 0.24533047640E+02 0.24742918348E+02 0.25956091342E+02
 0.28457756714E+02 0.32228116121E+02 0.36538583660E+02 0.40061643987E+02 0.26504300329E+02
 0.26031828249E+02 0.24874642414E+02 0.23625467353E+02 0.22827793899E+02 0.22719752000E+02
 0.23455015436E+02 0.25378452397E+02 0.28756838071E+02 0.33483510644E+02 0.39197433198E+02
 0.45327071356E+02 0.51009962219E+02 0.55123796054E+02 0.56637287332E+02 0.55123796054E+02
 0.51009962219E+02 0.45327071356E+02 0.39197433198E+02 0.33483510644E+02 0.28756838071E+02
 0.25378452397E+02 0.23455015436E+02 0.22719752000E+02 0.22827793899E+02 0.23625467353E+02
 0.24874642414E+02 0.26031828249E+02 0.19013286513E+02 0.18946516043E+02 0.18837810618E+02
 0.18920914753E+02 0.19507953618E+02 0.20897414929E+02 0.23407005741E+02 0.27493630530E+02
 0.33115597227E+02 0.39805934051E+02 0.47031834128E+02 0.54296987185E+02 0.60878262829E+02
 0.65642108858E+02 0.67403115054E+02 0.65642108858E+02 0.60878262829E+02 0.54296987185E+02
 0.47031834128E+02 0.39805934051E+02 0.33115597227E+02 0.27493630530E+02 0.23407005741E+02
 0.20897414929E+02 0.19507953618E+02 0.18920914753E+02 0.18837810618E+02 0.18946516043E+02
 0.14901831515E+02 0.14981781197E+02 0.15307628873E+02 0.16103852400E+02 0.17661914289E+02
 0.20260243396E+02 0.24467659203E+02 0.30637173549E+02 0.38280881914E+02 0.46495548135E+02
 0.54649414577E+02 0.62516342907E+02 0.69674368222E+02 0.74979470075E+02 0.76974958799E+02
 0.74979470075E+02 0.69674368222E+02 0.62516342907E+02 0.54649414577E+02 0.46495548135E+02
 0.38280881914E+02 0.30637173549E+02 0.24467659203E+02 0.20260243396E+02 0.17661914289E+02
 0.16103852400E+02 0.15307628873E+02 0.14981781197E+02 0.12467259219E+02 0.12641993915E+02
 0.13256494960E+02 0.14546019401E+02 0.16808034874E+02 0.20429780506E+02 0.26236630324E+02
 0.34348471668E+02 0.43780714984E+02 0.53228264693E+02 0.62102138797E+02 0.70600518131E+02
 0.78616765446E+02 0.84812062697E+02 0.87198872340E+02 0.84812062697E+02 0.78616765446E+02
 0.70600518131E+02 0.62102138797E+02 0.53228264693E+02 0.43780714984E+02 0.34348471668E+02
 0.26236630324E+02 0.20429780506E+02 0.16808034874E+02 0.14546019401E+02 0.13256494960E+02
 0.12641993915E+02 0.11215386046E+02 0.11440310962E+02 0.12216025347E+02 0.13805280841E+02
 0.16532740761E+02 0.20997221260E+02 0.28177680858E+02 0.37953663801E+02 0.48905630038E+02
 0.59447711354E+02 0.69154107007E+02 0.78674865548E+02 0.88099641717E+02 0.95666538352E+02
 0.98635576588E+02 0.95666538352E+02 0.88099641717E+02 0.78674865548E+02 0.69154107007E+02
 0.59447711354E+02 0.48905630038E+02 0.37953663801E+02 0.28177680858E+02 0.20997221260E+02
 0.16532740761E+02 0.13805280841E+02 0.12216025347E+02 0.11440310962E+02 0.10800852543E+02
 0.11039457825E+02 0.11869085035E+02 0.13585558747E+02 0.16555576003E+02 0.21573140848E+02
 0.29692751353E+02 0.40621643709E+02 0.52651956728E+02 0.64052085272E+02 0.74574672001E+02
 0.85206468675E+02 0.96099237234E+02 0.10503174272E+03 0.10856760960E+03 0.10503174272E+03
 0.96099237234E+02 0.85206468675E+02 0.74574672001E+02 0.64052085272E+02 0.52651956728E+02
 0.40621643709E+02 0.29692751353E+02 0.21573140848E+02 0.16555576003E+02 0.13585558747E+02
 0.11869085035E+02 0.11039457825E+02 0.10752905776E+02 0.10991156769E+02 0.11825829836E+02
 0.13568398119E+02 0.16607341147E+02 0.21814404370E+02 0.30267525962E+02 0.41611846563E+02
 0.54039659043E+02 0.65777293535E+02 0.76653630948E+02 0.87778664962E+02 0.99308810525E+02
 0.10882249519E+03 0.11259725179E+03 0.10882249519E+03 0.99308810525E+02 0.87778664962E+02
 0.76653630948E+02 0.65777293535E+02 0.54039659043E+02 0.41611846563E+02 0.30267525962E+02
 0.21814404370E+02 0.16607341147E+02 0.13568398119E+02 0.11825829836E+02 0.10991156769E+02
 0.10800852543E+02 0.11039457825E+02 0.11869085035E+02 0.13585558747E+02 0.16555576003E+02
 0.21573140848E+02 0.29692751353E+02 0.40621643709E+02 0.52651956728E+02 0.64052085272E+02
 0.74574672001E+02 0.85206468675E+02 0.96099237234E+02 0.10503174272E+03 0.10856760960E+03
 0.10503174272E+03 0.96099237234E+02 0.85206468675E+02 0.74574672001E+02 0.64052085272E+02
 0.52651956728E+02 0.40621643709E+02 0.29692751353E+02 0.21573140848E+02 0.16555576003E+02
 0.13585558747E+02 0.11869085035E+02 0.11039457825E+02 0.11215386046E+02 0.11440310962E+02
 0.12216025347E+02 0.13805280841E+02 0.16532740761E+02 0.20997221260E+02 0.28177680858E+02
 0.37953663801E+02 0.48905630038E+02 0.59447711354E+02 0.69154107007E+02 0.78674865548E+02
 0.88099641717E+02 0.95666538352E+02 0.98635576588E+02 0.95666538352E+02 0.88099641717E+02
 0.78674865548E+02 0.69154107007E+02 0.59447711354E+02 0.48905630038E+02 0.37953663801E+02
 0.28177680858E+02 0.20997221260E+02 0.16532740761E+02 0.13805280841E+02 0.12216025347E+02
 0.11440310962E+02 0.12467259219E+02 0.12641993915E+02 0.13256494960E+02 0.14546019401E+02
 0.16808034874E+02 0.20429780506E+02 0.26236630324E+02 0.34348471668E+02 0.43780714984E+02
 0.53228264693E+02 0.62102138797E+02 0.70600518131E+02 0.78616765446E+02 0.84812062697E+02
 0.87198872340E+02 0.84812062697E+02 0.78616765446E+02 0.70600518131E+02 0.62102138797E+02
 0.53228264693E+02 0.43780714984E+02 0.34348471668E+02 0.26236630324E+02 0.20429780506E+02
 0.16808034874E+02 0.14546019401E+02 0.13256494960E+02 0.12641993915E+02 0.14901831515E+02
 0.14981781197E+02 0.15307628873E+02 0.16103852400E+02 0.17661914289E+02 0.20260243396E+02
 0.24467659203E+02 0.30637173549E+02 0.38280881914E+02 0.46495548135E+02 0.54649414577E+02
 0.62516342907E+02 0.69674368222E+02 0.74979470075E+02 0.76974958799E+02 0.74979470075E+02
 0.69674368222E+02 0.62516342907E+02 0.54649414577E+02 0.46495548135E+02 0.38280881914E+02
 0.30637173549E+02 0.24467659203E+02 0.20260243396E+02 0.17661914289E+02 0.16103852400E+02
 0.15307628873E+02 0.14981781197E+02 0.19013286513E+02 0.18946516043E+02 0.18837810618E+02
 0.18920914753E+02 0.19507953618E+02 0.20897414929E+02 0.23407005741E+02 0.27493630530E+02
 0.33115597227E+02 0.39805934051E+02 0.47031834128E+02 0.54296987185E+02 0.60878262829E+02
 0.65642108858E+02 0.67403115054E+02 0.65642108858E+02 0.60878262829E+02 0.54296987185E+02
 0.47031834128E+02 0.39805934051E+02 0.33115597227E+02 0.27493630530E+02 0.23407005741E+02
 0.20897414929E+02 0.19507953618E+02 0.18920914753E+02 0.18837810618E+02 0.18946516043E+02
 0.26504300329E+02 0.26031828249E+02 0.24874642414E+02 0.23625467353E+02 0.22827793899E+02
 0.22719752000E+02 0.23455015436E+02 0.25378452397E+02 0.28756838071E+02 0.33483510644E+02
 0.39197433198E+02 0.45327071356E+02 0.51009962219E+02 0.55123796054E+02 0.56637287332E+02
 0.55123796054E+02 0.51009962219E+02 0.45327071356E+02 0.39197433198E+02 0.33483510644E+02
 0.28756838071E+02 0.25378452397E+02 0.23455015436E+02 0.22719752000E+02 0.22827793899E+02
 0.23625467353E+02 0.24874642414E+02 0.26031828249E+02 0.41432046470E+02 0.40061643987E+02
 0.36538583660E+02 0.32228116121E+02 0.28457756714E+02 0.25956091342E+02 0.24742918348E+02
 0.24533047640E+02 0.25580479209E+02 0.28027501994E+02 0.31666746532E+02 0.35984811039E+02
 0.40181569836E+02 0.43279169148E+02 0.44426077324E+02 0.43279169148E+02 0.40181569836E+02
 0.35984811039E+02 0.31666746532E+02 0.28027501994E+02 0.25580479209E+02 0.24533047640E+02
 0.24742918348E+02 0.25956091342E+02 0.28457756714E+02 0.32228116121E+02 0.36538583660E+02
 0.40061643987E+02 0.65215000459E+02 0.62522052034E+02 0.55493679495E+02 0.46563976224E+02
 0.38109881772E+02 0.31539286982E+02 0.27261079251E+02 0.24898181611E+02 0.23789927352E+02
 0.24011686309E+02 0.25460288548E+02 0.27706772467E+02 0.30127649545E+02 0.32003526067E+02
 0.32712880856E+02 0.32003526067E+02 0.30127649545E+02 0.27706772467E+02 0.25460288548E+02
 0.24011686309E+02 0.23789927352E+02 0.24898181611E+02 0.27261079251E+02 0.31539286982E+02
 0.38109881772E+02 0.46563976224E+02 0.55493679495E+02 0.62522052034E+02 0.96012717557E+02
 0.91775415233E+02 0.80673229427E+02 0.66370037854E+02 0.52318135927E+02 0.40521926610E+02
 0.31811055001E+02 0.26307847608E+02 0.23204403888E+02 0.21592268081E+02 0.21238997848E+02
 0.21737955717E+02 0.22627743961E+02 0.23445771710E+02 0.23777861417E+02 0.23445771710E+02
 0.22627743961E+02 0.21737955717E+02 0.21238997848E+02 0.21592268081E+02 0.23204403888E+02
 0.26307847608E+02 0.31811055001E+02 0.40521926610E+02 0.52318135927E+02 0.66370037854E+02
 0.80673229427E+02 0.91775415233E+02 0.13161723134E+03 0.12571864053E+03 0.11031322159E+03
 0.90465800620E+02 0.70625165878E+02 0.53100567890E+02 0.38997717882E+02 0.29170034047E+02
 0.23518485111E+02 0.20334077258E+02 0.18692940754E+02 0.18065626378E+02 0.17995938497E+02
 0.18167364080E+02 0.18274403901E+02 0.18167364080E+02 0.17995938497E+02 0.18065626378E+02
 0.18692940754E+02 0.20334077258E+02 0.23518485111E+02 0.29170034047E+02 0.38997717882E+02
 0.53100567890E+02 0.70625165878E+02 0.90465800620E+02 0.11031322159E+03 0.12571864053E+03
 0.17061466408E+03 0.16289202574E+03 0.14287550896E+03 0.11733657855E+03 0.91750201490E+02
 0.68430272741E+02 0.48480377593E+02 0.33546799242E+02 0.24599724759E+02 0.19906970400E+02
 0.17209467342E+02 0.15799112679E+02 0.15191402316E+02 0.15067549251E+02 0.15086412416E+02
 0.15067549251E+02 0.15191402316E+02 0.15799112679E+02 0.17209467342E+02 0.19906970400E+02
 0.24599724759E+02 0.33546799242E+02 0.48480377593E+02 0.68430272741E+02 0.91750201490E+02
 0.11733657855E+03 0.14287550896E+03 0.16289202574E+03 0.20948373401E+03 0.19984260126E+03
 0.17505531711E+03 0.14383877760E+03 0.11279580460E+03 0.84103454033E+02 0.58611147502E+02
 0.38610172280E+02 0.26188482935E+02 0.19984455885E+02 0.16487389900E+02 0.14516946652E+02
 0.13556906086E+02 0.13272066390E+02 0.13253455795E+02 0.13272066390E+02 0.13556906086E+02
 0.14516946652E+02 0.16487389900E+02 0.19984455885E+02 0.26188482935E+02 0.38610172280E+02
 0.58611147502E+02 0.84103454033E+02 0.11279580460E+03 0.14383877760E+03 0.17505531711E+03
 0.19984260126E+03 0.23986802130E+03 0.22864562585E+03 0.19995251496E+03 0.16417454733E+03
 0.12890451453E+03 0.96199589940E+02 0.66596291510E+02 0.42769018842E+02 0.27637183534E+02
 0.20213680329E+02 0.16215033824E+02 0.13909528855E+02 0.12755814345E+02 0.12398261663E+02
 0.12368713897E+02 0.12398261663E+02 0.12755814345E+02 0.13909528855E+02 0.16215033824E+02
 0.20213680329E+02 0.27637183534E+02 0.42769018842E+02 0.66596291510E+02 0.96199589940E+02
 0.12890451453E+03 0.16417454733E+03 0.19995251496E+03 0.22864562585E+03 0.23995764324E+03
 0.22875545700E+03 0.20010435234E+03 0.16435108515E+03 0.12906283568E+03 0.96303995151E+02
 0.66640629759E+02 0.42772683621E+02 0.27624369221E+02 0.20196739400E+02 0.16193742154E+02
 0.13880739604E+02 0.12718128463E+02 0.12353402293E+02 0.12321111239E+02 0.12353402293E+02
 0.12718128463E+02 0.13880739604E+02 0.16193742154E+02 0.20196739400E+02 0.27624369221E+02
 0.42772683621E+02 0.66640629759E+02 0.96303995151E+02 0.12906283568E+03 0.16435108515E+03
 0.20010435234E+03 0.22875545700E+03 0.22922521506E+03 0.21858342495E+03 0.19131406152E+03
 0.15716781056E+03 0.12335987878E+03 0.92002149225E+02 0.63779735761E+02 0.41262175693E+02
 0.27077912553E+02 0.20088609238E+02 0.16252260269E+02 0.14047594432E+02 0.12944785879E+02
 0.12599891399E+02 0.12569393503E+02 0.12599891399E+02 0.12944785879E+02 0.14047594432E+02
 0.16252260269E+02 0.20088609238E+02 0.27077912553E+02 0.41262175693E+02 0.63779735761E+02
 0.92002149225E+02 0.12335987878E+03 0.15716781056E+03 0.19131406152E+03 0.21858342495E+03
 0.20117923874E+03 0.19196115746E+03 0.16821140136E+03 0.13819250246E+03 0.10825590217E+03
 0.80640028370E+02 0.56291983568E+02 0.37379830546E+02 0.25730659765E+02 0.19863444116E+02
 0.16514565531E+02 0.14635218873E+02 0.13721363294E+02 0.13448936101E+02 0.13430102660E+02
 0.13448936101E+02 0.13721363294E+02 0.14635218873E+02 0.16514565531E+02 0.19863444116E+02
 0.25730659765E+02 0.37379830546E+02 0.56291983568E+02 0.80640028370E+02 0.10825590217E+03
 0.13819250246E+03 0.16821140136E+03 0.19196115746E+03 0.16482919622E+03 0.15736664555E+03
 0.13799257854E+03 0.11321544684E+03 0.88380447105E+02 0.65851222735E+02 0.46767311359E+02
 0.32644507697E+02 0.24245515646E+02 0.19780608140E+02 0.17208702021E+02 0.15873278423E+02
 0.15302818892E+02 0.15189212814E+02 0.15208157739E+02 0.15189212814E+02 0.15302818892E+02
 0.15873278423E+02 0.17208702021E+02 0.19780608140E+02 0.24245515646E+02 0.32644507697E+02
 0.46767311359E+02 0.65851222735E+02 0.88380447105E+02 0.11321544684E+03 0.13799257854E+03
 0.15736664555E+03 0.12768505522E+03 0.12193971920E+03 0.10692282548E+03 0.87565213382E+02
 0.68251159326E+02 0.51306501349E+02 0.37822790900E+02 0.28538765968E+02 0.23216945052E+02
 0.20181157735E+02 0.18635279366E+02 0.18060703114E+02 0.18013189553E+02 0.18185991619E+02
 0.18290526301E+02 0.18185991619E+02 0.18013189553E+02 0.18060703114E+02 0.18635279366E+02
 0.20181157735E+02 0.23216945052E+02 0.28538765968E+02 0.37822790900E+02 0.51306501349E+02
 0.68251159326E+02 0.87565213382E+02 0.10692282548E+03 0.12193971920E+03 0.93225879574E+02
 0.89093049024E+02 0.78265600195E+02 0.64330278061E+02 0.50687894254E+02 0.39322657373E+02
 0.31025043599E+02 0.25836780318E+02 0.22894069242E+02 0.21384756841E+02 0.21081026549E+02
 0.21582432588E+02 0.22447221477E+02 0.23235085328E+02 0.23553818157E+02 0.23235085328E+02
 0.22447221477E+02 0.21582432588E+02 0.21081026549E+02 0.21384756841E+02 0.22894069242E+02
 0.25836780318E+02 0.31025043599E+02 0.39322657373E+02 0.50687894254E+02 0.64330278061E+02
 0.78265600195E+02 0.89093049024E+02 0.63268874223E+02 0.60655584482E+02 0.53839733239E+02
 0.45196664442E+02 0.37048614440E+02 0.30763842304E+02 0.26711896943E+02 0.24475891188E+02
 0.23445687359E+02 0.23695925461E+02 0.25115873087E+02 0.27289634057E+02 0.29619006722E+02
 0.31418240943E+02 0.32097573126E+02 0.31418240943E+02 0.29619006722E+02 0.27289634057E+02
 0.25115873087E+02 0.23695925461E+02 0.23445687359E+02 0.24475891188E+02 0.26711896943E+02
 0.30763842304E+02 0.37048614440E+02 0.45196664442E+02 0.53839733239E+02 0.60655584482E+02
 0.40270386521E+02 0.38952663037E+02 0.35567971231E+02 0.31435337221E+02 0.27834049954E+02
 0.25456174294E+02 0.24299437373E+02 0.24119211815E+02 0.25159163816E+02 0.27549533767E+02
 0.31081556366E+02 0.35251765681E+02 0.39288049642E+02 0.42258138284E+02 0.43356070974E+02
 0.42258138284E+02 0.39288049642E+02 0.35251765681E+02 0.31081556366E+02 0.27549533767E+02
 0.25159163816E+02 0.24119211815E+02 0.24299437373E+02 0.25456174294E+02 0.27834049954E+02
 0.31435337221E+02 0.35567971231E+02 0.38952663037E+02 0.25981442451E+02 0.25531869196E+02
 0.24430451117E+02 0.23239311664E+02 0.22470098990E+02 0.22353549179E+02 0.23071768822E+02
 0.24943617463E+02 0.28234754837E+02 0.32841305190E+02 0.38396602810E+02 0.44326515287E+02
 0.49792485110E+02 0.53730579753E+02 0.55175691587E+02 0.53730579753E+02 0.49792485110E+02
 0.44326515287E+02 0.38396602810E+02 0.32841305190E+02 0.28234754837E+02 0.24943617463E+02
 0.23071768822E+02 0.22353549179E+02 0.22470098990E+02 0.23239311664E+02 0.24430451117E+02
 0.25531869196E+02 0.18812407334E+02 0.18747102401E+02 0.18637759721E+02 0.18712206730E+02
 0.19275672392E+02 0.20623813245E+02 0.23053288820E+02 0.27018801084E+02 0.32504817213E+02
 0.39053729752E+02 0.46110432942E+02 0.53149223651E+02 0.59460886735E+02 0.63991716856E+02
 0.65659230808E+02 0.63991716856E+02 0.59460886735E+02 0.53149223651E+02 0.46110432942E+02
 0.39053729752E+02 0.32504817213E+02 0.27018801084E+02 0.23053288820E+02 0.20623813245E+02
 0.19275672392E+02 0.18712206730E+02 0.18637759721E+02 0.18747102401E+02 0.14802220242E+02
 0.14884034854E+02 0.15210487947E+02 0.15994187964E+02 0.17515290410E+02 0.20041937933E+02
 0.24114858974E+02 0.30120463843E+02 0.37617659924E+02 0.45709643583E+02 0.53708522571E+02
 0.61317359806E+02 0.68119887891E+02 0.73095271985E+02 0.74954714650E+02 0.73095271985E+02
 0.68119887891E+02 0.61317359806E+02 0.53708522571E+02 0.45709643583E+02 0.37617659924E+02
 0.30120463843E+02 0.24114858974E+02 0.20041937933E+02 0.17515290410E+02 0.15994187964E+02
 0.15210487947E+02 0.14884034854E+02 0.12413578402E+02 0.12591874421E+02 0.13210405800E+02
 0.14488611836E+02 0.16709711145E+02 0.20232819995E+02 0.25868832000E+02 0.33798991826E+02
 0.43101352717E+02 0.52461674924E+02 0.61184850099E+02 0.69348850936E+02 0.76855564637E+02
 0.82561866220E+02 0.84744671347E+02 0.82561866220E+02 0.76855564637E+02 0.69348850936E+02
 0.61184850099E+02 0.52461674924E+02 0.43101352717E+02 0.33798991826E+02 0.25868832000E+02
 0.20232819995E+02 0.16709711145E+02 0.14488611836E+02 0.13210405800E+02 0.12591874421E+02
 0.11158342089E+02 0.11389703624E+02 0.12176535616E+02 0.13762070498E+02 0.16452741183E+02
 0.20800153742E+02 0.27789820151E+02 0.37382497133E+02 0.48229716855E+02 0.58711805281E+02
 0.68241312787E+02 0.77301917157E+02 0.86007568772E+02 0.92882525459E+02 0.95563070242E+02
 0.92882525459E+02 0.86007568772E+02 0.77301917157E+02 0.68241312787E+02 0.58711805281E+02
 0.48229716855E+02 0.37382497133E+02 0.27789820151E+02 0.20800153742E+02 0.16452741183E+02
 0.13762070498E+02 0.12176535616E+02 0.11389703624E+02 0.10713060095E+02 0.10961333646E+02
 0.11810460754E+02 0.13533565259E+02 0.16473541526E+02 0.21366867292E+02 0.29287960941E+02
 0.40037989780E+02 0.51982664797E+02 0.63333667635E+02 0.73638104102E+02 0.83684204865E+02
 0.93667320170E+02 0.10173009371E+03 0.10490451182E+03 0.10173009371E+03 0.93667320170E+02
 0.83684204865E+02 0.73638104102E+02 0.63333667635E+02 0.51982664797E+02 0.40037989780E+02
 0.29287960941E+02 0.21366867292E+02 0.16473541526E+02 0.13533565259E+02 0.11810460754E+02
 0.10961333646E+02 0.10647231507E+02 0.10896640946E+02 0.11754736049E+02 0.13508953871E+02
 0.16521358718E+02 0.21602941324E+02 0.29856025294E+02 0.41024004896E+02 0.53372960916E+02
 0.65063190432E+02 0.75701337996E+02 0.86187453893E+02 0.96730215729E+02 0.10530280757E+03
 0.10868702332E+03 0.10530280757E+03 0.96730215729E+02 0.86187453893E+02 0.75701337996E+02
 0.65063190432E+02 0.53372960916E+02 0.41024004896E+02 0.29856025294E+02 0.21602941324E+02
 0.16521358718E+02 0.13508953871E+02 0.11754736049E+02 0.10896640946E+02 0.10713060095E+02
 0.10961333646E+02 0.11810460754E+02 0.13533565259E+02 0.16473541526E+02 0.21366867292E+02
 0.29287960941E+02 0.40037989780E+02 0.51982664797E+02 0.63333667635E+02 0.73638104102E+02
 0.83684204865E+02 0.93667320170E+02 0.10173009371E+03 0.10490451182E+03 0.10173009371E+03
 0.93667320170E+02 0.83684204865E+02 0.73638104102E+02 0.63333667635E+02 0.51982664797E+02
 0.40037989780E+02 0.29287960941E+02 0.21366867292E+02 0.16473541526E+02 0.13533565259E+02
 0.11810460754E+02 0.10961333646E+02 0.11158342089E+02 0.11389703624E+02 0.12176535616E+02
 0.13762070498E+02 0.16452741183E+02 0.20800153742E+02 0.27789820151E+02 0.37382497133E+02
 0.48229716855E+02 0.58711805281E+02 0.68241312787E+02 0.77301917157E+02 0.86007568772E+02
 0.92882525459E+02 0.95563070242E+02 0.92882525459E+02 0.86007568772E+02 0.77301917157E+02
 0.68241312787E+02 0.58711805281E+02 0.48229716855E+02 0.37382497133E+02 0.27789820151E+02
 0.20800153742E+02 0.16452741183E+02 0.13762070498E+02 0.12176535616E+02 0.11389703624E+02
 0.12413578402E+02 0.12591874421E+02 0.13210405800E+02 0.14488611836E+02 0.16709711145E+02
 0.20232819995E+02 0.25868832000E+02 0.33798991826E+02 0.43101352717E+02 0.52461674924E+02
 0.61184850099E+02 0.69348850936E+02 0.76855564637E+02 0.82561866220E+02 0.84744671347E+02
 0.82561866220E+02 0.76855564637E+02 0.69348850936E+02 0.61184850099E+02 0.52461674924E+02
 0.43101352717E+02 0.33798991826E+02 0.25868832000E+02 0.20232819995E+02 0.16709711145E+02
 0.14488611836E+02 0.13210405800E+02 0.12591874421E+02 0.14802220242E+02 0.14884034854E+02
 0.15210487947E+02 0.15994187964E+02 0.17515290410E+02 0.20041937933E+02 0.24114858974E+02
 0.30120463843E+02 0.37617659924E+02 0.45709643583E+02 0.53708522571E+02 0.61317359806E+02
 0.68119887891E+02 0.73095271985E+02 0.74954714650E+02 0.73095271985E+02 0.68119887891E+02
 0.61317359806E+02 0.53708522571E+02 0.45709643583E+02 0.37617659924E+02 0.30120463843E+02
 0.24114858974E+02 0.20041937933E+02 0.17515290410E+02 0.15994187964E+02 0.15210487947E+02
 0.14884034854E+02 0.18812407334E+02 0.18747102401E+02 0.18637759721E+02 0.18712206730E+02
 0.19275672392E+02 0.20623813245E+02 0.23053288820E+02 0.27018801084E+02 0.32504817213E+02
 0.39053729752E+02 0.46110432942E+02 0.53149223651E+02 0.59460886735E+02 0.63991716856E+02
 0.65659230808E+02 0.63991716856E+02 0.59460886735E+02 0.53149223651E+02 0.46110432942E+02
 0.39053729752E+02 0.32504817213E+02 0.27018801084E+02 0.23053288820E+02 0.20623813245E+02
 0.19275672392E+02 0.18712206730E+02 0.18637759721E+02 0.18747102401E+02 0.25981442451E+02
 0.25531869196E+02 0.24430451117E+02 0.23239311664E+02 0.22470098990E+02 0.22353549179E+02
 0.23071768822E+02 0.24943617463E+02 0.28234754837E+02 0.32841305190E+02 0.38396602810E+02
 0.44326515287E+02 0.49792485110E+02 0.53730579753E+02 0.55175691587E+02 0.53730579753E+02
 0.49792485110E+02 0.44326515287E+02 0.38396602810E+02 0.32841305190E+02 0.28234754837E+02
 0.24943617463E+02 0.23071768822E+02 0.22353549179E+02 0.22470098990E+02 0.23239311664E+02
 0.24430451117E+02 0.25531869196E+02 0.40270386521E+02 0.38952663037E+02 0.35567971231E+02
 0.31435337221E+02 0.27834049954E+02 0.25456174294E+02 0.24299437373E+02 0.24119211815E+02
 0.25159163816E+02 0.27549533767E+02 0.31081556366E+02 0.35251765681E+02 0.39288049642E+02
 0.42258138284E+02 0.43356070974E+02 0.42258138284E+02 0.39288049642E+02 0.35251765681E+02
 0.31081556366E+02 0.27549533767E+02 0.25159163816E+02 0.24119211815E+02 0.24299437373E+02
 0.25456174294E+02 0.27834049954E+02 0.31435337221E+02 0.35567971231E+02 0.38952663037E+02
 0.63268874223E+02 0.60655584482E+02 0.53839733239E+02 0.45196664442E+02 0.37048614440E+02
 0.30763842304E+02 0.26711896943E+02 0.24475891188E+02 0.23445687359E+02 0.23695925461E+02
 0.25115873087E+02 0.27289634057E+02 0.29619006722E+02 0.31418240943E+02 0.32097573126E+02
 0.31418240943E+02 0.29619006722E+02 0.27289634057E+02 0.25115873087E+02 0.23695925461E+02
 0.23445687359E+02 0.24475891188E+02 0.26711896943E+02 0.30763842304E+02 0.37048614440E+02
 0.45196664442E+02 0.53839733239E+02 0.60655584482E+02 0.93225879574E+02 0.89093049024E+02
 0.78265600195E+02 0.64330278061E+02 0.50687894254E+02 0.39322657373E+02 0.31025043599E+02
 0.25836780318E+02 0.22894069242E+02 0.21384756841E+02 0.21081026549E+02 0.21582432588E+02
 0.22447221477E+02 0.23235085328E+02 0.23553818157E+02 0.23235085328E+02 0.22447221477E+02
 0.21582432588E+02 0.21081026549E+02 0.21384756841E+02 0.22894069242E+02 0.25836780318E+02
 0.31025043599E+02 0.39322657373E+02 0.50687894254E+02 0.64330278061E+02 0.78265600195E+02
 0.89093049024E+02 0.12768505522E+03 0.12193971920E+03 0.10692282548E+03 0.87565213382E+02
 0.68251159326E+02 0.51306501349E+02 0.37822790900E+02 0.28538765968E+02 0.23216945052E+02
 0.20181157735E+02 0.18635279366E+02 0.18060703114E+02 0.18013189553E+02 0.18185991619E+02
 0.18290526301E+02 0.18185991619E+02 0.18013189553E+02 0.18060703114E+02 0.18635279366E+02
 0.20181157735E+02 0.23216945052E+02 0.28538765968E+02 0.37822790900E+02 0.51306501349E+02
 0.68251159326E+02 0.87565213382E+02 0.10692282548E+03 0.12193971920E+03 0.16482919622E+03
 0.15736664555E+03 0.13799257854E+03 0.11321544684E+03 0.88380447105E+02 0.65851222735E+02
 0.46767311359E+02 0.32644507697E+02 0.24245515646E+02 0.19780608140E+02 0.17208702021E+02
 0.15873278423E+02 0.15302818892E+02 0.15189212814E+02 0.15208157739E+02 0.15189212814E+02
 0.15302818892E+02 0.15873278423E+02 0.17208702021E+02 0.19780608140E+02 0.24245515646E+02
 0.32644507697E+02 0.46767311359E+02 0.65851222735E+02 0.88380447105E+02 0.11321544684E+03
 0.13799257854E+03 0.15736664555E+03 0.20117923874E+03 0.19196115746E+03 0.16821140136E+03
 0.13819250246E+03 0.10825590217E+03 0.80640028370E+02 0.56291983568E+02 0.37379830546E+02
 0.25730659765E+02 0.19863444116E+02 0.16514565531E+02 0.14635218873E+02 0.13721363294E+02
 0.13448936101E+02 0.13430102660E+02 0.13448936101E+02 0.13721363294E+02 0.14635218873E+02
 0.16514565531E+02 0.19863444116E+02 0.25730659765E+02 0.37379830546E+02 0.56291983568E+02
 0.80640028370E+02 0.10825590217E+03 0.13819250246E+03 0.16821140136E+03 0.19196115746E+03
 0.22922521506E+03 0.21858342495E+03 0.19131406152E+03 0.15716781056E+03 0.12335987878E+03
 0.92002149225E+02 0.63779735761E+02 0.41262175693E+02 0.27077912553E+02 0.20088609238E+02
 0.16252260269E+02 0.14047594432E+02 0.12944785879E+02 0.12599891399E+02 0.12569393503E+02
 0.12599891399E+02 0.12944785879E+02 0.14047594432E+02 0.16252260269E+02 0.20088609238E+02
 0.27077912553E+02 0.41262175693E+02 0.63779735761E+02 0.92002149225E+02 0.12335987878E+03
 0.15716781056E+03 0.19131406152E+03 0.21858342495E+03 0.20973302494E+03 0.20015850808E+03
 0.17550951322E+03 0.14437418700E+03 0.11327234891E+03 0.84407011197E+02 0.58725933715E+02
 0.38603033658E+02 0.26139137840E+02 0.19931892771E+02 0.16431355920E+02 0.14448597968E+02
 0.13471126104E+02 0.13171328342E+02 0.13146868364E+02 0.13171328342E+02 0.13471126104E+02
 0.14448597968E+02 0.16431355920E+02 0.19931892771E+02 0.26139137840E+02 0.38603033658E+02
 0.58725933715E+02 0.84407011197E+02 0.11327234891E+03 0.14437418700E+03 0.17550951322E+03
 0.20015850808E+03 0.20134380156E+03 0.19217246480E+03 0.16851968473E+03 0.13855765555E+03
 0.10857992514E+03 0.80843697214E+02 0.56365327073E+02 0.37370450987E+02 0.25694432864E+02
 0.19827262662E+02 0.16478443167E+02 0.14593340941E+02 0.13670055423E+02 0.13389193998E+02
 0.13367016515E+02 0.13389193998E+02 0.13670055423E+02 0.14593340941E+02 0.16478443167E+02
 0.19827262662E+02 0.25694432864E+02 0.37370450987E+02 0.56365327073E+02 0.80843697214E+02
 0.10857992514E+03 0.13855765555E+03 0.16851968473E+03 0.19217246480E+03 0.17897647386E+03