   4   4   0   0
  0.1020639E+02  0.3443320E-09  0.3443320E-09  0.3443320E-09  0.5000000E-15
  1.000000000000000E-004
  CAR 
 unknown system                          
     35.59120402      1.22991434  301     16.00559517      1.00000000
      1.230  0.0000E+00  0.0000E+00
      1.344  0.0000E+00  0.0000E+00
      1.459  0.0000E+00  0.0000E+00
      1.574 -0.4989E-31 -0.5714E-32
      1.688 -0.4406E-27 -0.5047E-28
      1.803 -0.2009E-23 -0.2301E-24
      1.917 -0.4721E-20 -0.5410E-21
      2.032 -0.5715E-17 -0.6551E-18
      2.146 -0.3438E-14 -0.3944E-15
      2.261 -0.1089E-11 -0.1251E-12
      2.375 -0.1761E-09 -0.2029E-10
      2.490 -0.1446E-07 -0.1676E-08
      2.604 -0.5995E-06 -0.7034E-07
      2.719 -0.1248E-04 -0.1499E-05
      2.833 -0.1295E-03 -0.1633E-04
      2.948 -0.6610E-03 -0.9205E-04
      3.063 -0.1438E-02 -0.2568E-03
      3.177  0.1183E-02 -0.1213E-03
      3.292  0.1700E-01  0.1825E-02
      3.406  0.5316E-01  0.7914E-02
      3.521  0.9325E-01  0.1860E-01
      3.635  0.1016E+00  0.3023E-01
      3.750  0.8338E-01  0.3978E-01
      3.864  0.1107E+00  0.5246E-01
      3.979  0.2023E+00  0.7563E-01
      4.093  0.2334E+00  0.1024E+00
      4.208  0.1455E+00  0.1190E+00
      4.322  0.1088E+00  0.1315E+00
      4.437  0.2099E+00  0.1555E+00
      4.552  0.2858E+00  0.1883E+00
      4.666  0.2750E+00  0.2198E+00
      4.781  0.2467E+00  0.2480E+00
      4.895  0.2579E+00  0.2776E+00
      5.010  0.3968E+00  0.3230E+00
      5.124  0.5137E+00  0.3818E+00
      5.239  0.4430E+00  0.4326E+00
      5.353  0.3594E+00  0.4737E+00
      5.468  0.5354E+00  0.5351E+00
      5.582  0.8978E+00  0.6379E+00
      5.697  0.9700E+00  0.7490E+00
      5.811  0.8786E+00  0.8496E+00
      5.926  0.9559E+00  0.9591E+00
      6.040  0.1178E+01  0.1094E+01
      6.155  0.1598E+01  0.1277E+01
      6.270  0.2008E+01  0.1507E+01
      6.384  0.2114E+01  0.1749E+01
      6.499  0.2089E+01  0.1988E+01
      6.613  0.2377E+01  0.2261E+01
      6.728  0.2779E+01  0.2579E+01
      6.842  0.3176E+01  0.2943E+01
      6.957  0.3789E+01  0.3377E+01
      7.071  0.4271E+01  0.3866E+01
      7.186  0.4222E+01  0.4350E+01
      7.300  0.4068E+01  0.4816E+01
      7.415  0.4265E+01  0.5304E+01
      7.529  0.4735E+01  0.5847E+01
      7.644  0.5090E+01  0.6430E+01
      7.759  0.4825E+01  0.6982E+01
      7.873  0.4215E+01  0.7465E+01
      7.988  0.4011E+01  0.7924E+01
      8.102  0.4030E+01  0.8386E+01
      8.217  0.4124E+01  0.8858E+01
      8.331  0.4154E+01  0.9334E+01
      8.446  0.3697E+01  0.9758E+01
      8.560  0.3300E+01  0.1014E+02
      8.675  0.3334E+01  0.1052E+02
      8.789  0.3071E+01  0.1087E+02
      8.904  0.2614E+01  0.1117E+02
      9.018  0.2626E+01  0.1147E+02
      9.133  0.2891E+01  0.1180E+02
      9.248  0.2877E+01  0.1213E+02
      9.362  0.2785E+01  0.1245E+02
      9.477  0.3094E+01  0.1280E+02
      9.591  0.3673E+01  0.1322E+02
      9.706  0.3868E+01  0.1367E+02
      9.820  0.3712E+01  0.1409E+02
      9.935  0.3918E+01  0.1454E+02
     10.049  0.4389E+01  0.1504E+02
     10.164  0.4368E+01  0.1554E+02
     10.278  0.3828E+01  0.1598E+02
     10.393  0.3415E+01  0.1637E+02
     10.507  0.3633E+01  0.1679E+02
     10.622  0.4047E+01  0.1725E+02
     10.737  0.4014E+01  0.1771E+02
     10.851  0.3908E+01  0.1816E+02
     10.966  0.4497E+01  0.1868E+02
     11.080  0.5655E+01  0.1932E+02
     11.195  0.6724E+01  0.2009E+02
     11.309  0.7520E+01  0.2095E+02
     11.424  0.7777E+01  0.2185E+02
     11.538  0.7061E+01  0.2265E+02
     11.653  0.5821E+01  0.2332E+02
     11.767  0.4986E+01  0.2389E+02
     11.882  0.4757E+01  0.2444E+02
     11.996  0.4689E+01  0.2497E+02
     12.111  0.4738E+01  0.2552E+02
     12.226  0.5148E+01  0.2611E+02
     12.340  0.5295E+01  0.2671E+02
     12.455  0.5262E+01  0.2732E+02
     12.569  0.5583E+01  0.2796E+02
     12.684  0.5369E+01  0.2857E+02
     12.798  0.4310E+01  0.2906E+02
     12.913  0.3349E+01  0.2945E+02
     13.027  0.3229E+01  0.2982E+02
     13.142  0.3658E+01  0.3024E+02
     13.256  0.3705E+01  0.3066E+02
     13.371  0.3074E+01  0.3101E+02
     13.485  0.2596E+01  0.3131E+02
     13.600  0.2493E+01  0.3160E+02
     13.715  0.2333E+01  0.3186E+02
     13.829  0.2293E+01  0.3213E+02
     13.944  0.2460E+01  0.3241E+02
     14.058  0.2764E+01  0.3272E+02
     14.173  0.3296E+01  0.3310E+02
     14.287  0.3928E+01  0.3355E+02
     14.402  0.4640E+01  0.3408E+02
     14.516  0.5072E+01  0.3466E+02
     14.631  0.4710E+01  0.3520E+02
     14.745  0.3979E+01  0.3566E+02
     14.860  0.3705E+01  0.3608E+02
     14.974  0.3860E+01  0.3653E+02
     15.089  0.3803E+01  0.3696E+02
     15.204  0.3307E+01  0.3734E+02
     15.318  0.3101E+01  0.3769E+02
     15.433  0.3546E+01  0.3810E+02
     15.547  0.4059E+01  0.3857E+02
     15.662  0.4055E+01  0.3903E+02
     15.776  0.3406E+01  0.3942E+02
     15.891  0.2647E+01  0.3972E+02
     16.005  0.2409E+01  0.4000E+02
     16.120  0.2477E+01  0.4028E+02
     16.234  0.2523E+01  0.4057E+02
     16.349  0.2577E+01  0.4087E+02
     16.463  0.2499E+01  0.4115E+02
     16.578  0.2207E+01  0.4141E+02
     16.692  0.2046E+01  0.4164E+02
     16.807  0.2217E+01  0.4189E+02
     16.922  0.2353E+01  0.4216E+02
     17.036  0.2125E+01  0.4241E+02
     17.151  0.1755E+01  0.4261E+02
     17.265  0.1543E+01  0.4278E+02
     17.380  0.1416E+01  0.4295E+02
     17.494  0.1254E+01  0.4309E+02
     17.609  0.1229E+01  0.4323E+02
     17.723  0.1121E+01  0.4336E+02
     17.838  0.8112E+00  0.4345E+02
     17.952  0.7016E+00  0.4353E+02
     18.067  0.8685E+00  0.4363E+02
     18.181  0.9738E+00  0.4374E+02
     18.296  0.7661E+00  0.4383E+02
     18.411  0.4745E+00  0.4389E+02
     18.525  0.4261E+00  0.4394E+02
     18.640  0.5454E+00  0.4400E+02
     18.754  0.6427E+00  0.4407E+02
     18.869  0.6052E+00  0.4414E+02
     18.983  0.5217E+00  0.4420E+02
     19.098  0.5189E+00  0.4426E+02
     19.212  0.5123E+00  0.4432E+02
     19.327  0.4981E+00  0.4438E+02
     19.441  0.5346E+00  0.4444E+02
     19.556  0.4996E+00  0.4449E+02
     19.670  0.4428E+00  0.4454E+02
     19.785  0.6067E+00  0.4461E+02
     19.900  0.8743E+00  0.4471E+02
     20.014  0.8271E+00  0.4481E+02
     20.129  0.5710E+00  0.4487E+02
     20.243  0.5713E+00  0.4494E+02
     20.358  0.8215E+00  0.4503E+02
     20.472  0.9840E+00  0.4515E+02
     20.587  0.1062E+01  0.4527E+02
     20.701  0.1161E+01  0.4540E+02
     20.816  0.1117E+01  0.4553E+02
     20.930  0.1033E+01  0.4565E+02
     21.045  0.1143E+01  0.4578E+02
     21.159  0.1213E+01  0.4592E+02
     21.274  0.9741E+00  0.4603E+02
     21.389  0.6640E+00  0.4610E+02
     21.503  0.5078E+00  0.4616E+02
     21.618  0.5433E+00  0.4623E+02
     21.732  0.7252E+00  0.4631E+02
     21.847  0.8336E+00  0.4640E+02
     21.961  0.8171E+00  0.4650E+02
     22.076  0.9125E+00  0.4660E+02
     22.190  0.1167E+01  0.4674E+02
     22.305  0.1144E+01  0.4687E+02
     22.419  0.6967E+00  0.4695E+02
     22.534  0.2864E+00  0.4698E+02
     22.648  0.2453E+00  0.4701E+02
     22.763  0.4767E+00  0.4706E+02
     22.878  0.7971E+00  0.4715E+02
     22.992  0.9966E+00  0.4727E+02
     23.107  0.7708E+00  0.4736E+02
     23.221  0.3858E+00  0.4740E+02
     23.336  0.2178E+00  0.4742E+02
     23.450  0.2160E+00  0.4745E+02
     23.565  0.3892E+00  0.4749E+02
     23.679  0.5707E+00  0.4756E+02
     23.794  0.5576E+00  0.4762E+02
     23.908  0.5441E+00  0.4769E+02
     24.023  0.6098E+00  0.4776E+02
     24.137  0.6094E+00  0.4783E+02
     24.252  0.5940E+00  0.4789E+02
     24.367  0.6374E+00  0.4797E+02
     24.481  0.7493E+00  0.4805E+02
     24.596  0.9063E+00  0.4816E+02
     24.710  0.1008E+01  0.4827E+02
     24.825  0.1042E+01  0.4839E+02
     24.939  0.1134E+01  0.4852E+02
     25.054  0.1315E+01  0.4867E+02
     25.168  0.1398E+01  0.4883E+02
     25.283  0.1387E+01  0.4899E+02
     25.397  0.1368E+01  0.4915E+02
     25.512  0.1303E+01  0.4930E+02
     25.626  0.1214E+01  0.4944E+02
     25.741  0.1152E+01  0.4957E+02
     25.856  0.1112E+01  0.4969E+02
     25.970  0.1077E+01  0.4982E+02
     26.085  0.1023E+01  0.4994E+02
     26.199  0.9581E+00  0.5004E+02
     26.314  0.9852E+00  0.5016E+02
     26.428  0.1092E+01  0.5028E+02
     26.543  0.1049E+01  0.5040E+02
     26.657  0.9907E+00  0.5052E+02
     26.772  0.1091E+01  0.5064E+02
     26.886  0.1146E+01  0.5077E+02
     27.001  0.1088E+01  0.5090E+02
     27.115  0.8940E+00  0.5100E+02
     27.230  0.7262E+00  0.5108E+02
     27.344  0.9154E+00  0.5119E+02
     27.459  0.1320E+01  0.5134E+02
     27.574  0.1546E+01  0.5152E+02
     27.688  0.1551E+01  0.5169E+02
     27.803  0.1451E+01  0.5186E+02
     27.917  0.1136E+01  0.5199E+02
     28.032  0.9139E+00  0.5209E+02
     28.146  0.1024E+01  0.5221E+02
     28.261  0.1069E+01  0.5233E+02
     28.375  0.1026E+01  0.5245E+02
     28.490  0.1176E+01  0.5259E+02
     28.604  0.1247E+01  0.5273E+02
     28.719  0.1258E+01  0.5287E+02
     28.833  0.1432E+01  0.5304E+02
     28.948  0.1458E+01  0.5320E+02
     29.063  0.1293E+01  0.5335E+02
     29.177  0.1243E+01  0.5349E+02
     29.292  0.1428E+01  0.5366E+02
     29.406  0.1624E+01  0.5384E+02
     29.521  0.1575E+01  0.5402E+02
     29.635  0.1417E+01  0.5419E+02
     29.750  0.1504E+01  0.5436E+02
     29.864  0.1677E+01  0.5455E+02
     29.979  0.1562E+01  0.5473E+02
     30.093  0.1376E+01  0.5489E+02
     30.208  0.1423E+01  0.5505E+02
     30.322  0.1563E+01  0.5523E+02
     30.437  0.1634E+01  0.5542E+02
     30.552  0.1738E+01  0.5562E+02
     30.666  0.1868E+01  0.5583E+02
     30.781  0.1848E+01  0.5604E+02
     30.895  0.1685E+01  0.5623E+02
     31.010  0.1488E+01  0.5641E+02
     31.124  0.1394E+01  0.5657E+02
     31.239  0.1534E+01  0.5674E+02
     31.353  0.1613E+01  0.5693E+02
     31.468  0.1608E+01  0.5711E+02
     31.582  0.1785E+01  0.5731E+02
     31.697  0.1847E+01  0.5753E+02
     31.811  0.1507E+01  0.5770E+02
     31.926  0.1200E+01  0.5784E+02
     32.041  0.1330E+01  0.5799E+02
     32.155  0.1665E+01  0.5818E+02
     32.270  0.1773E+01  0.5838E+02
     32.384  0.1670E+01  0.5857E+02
     32.499  0.1693E+01  0.5877E+02
     32.613  0.1909E+01  0.5899E+02
     32.728  0.1998E+01  0.5921E+02
     32.842  0.1719E+01  0.5941E+02
     32.957  0.1228E+01  0.5955E+02
     33.071  0.9240E+00  0.5966E+02
     33.186  0.8258E+00  0.5975E+02
     33.300  0.7130E+00  0.5983E+02
     33.415  0.5942E+00  0.5990E+02
     33.530  0.4860E+00  0.5996E+02
     33.644  0.3045E+00  0.5999E+02
     33.759  0.8891E-01  0.6000E+02
     33.873 -0.1092E-01  0.6000E+02
     33.988 -0.1244E-01  0.6000E+02
     34.102 -0.2634E-02  0.6000E+02
     34.217 -0.2375E-03  0.6000E+02
     34.331 -0.1027E-04  0.6000E+02
     34.446 -0.2218E-06  0.6000E+02
     34.560 -0.2439E-08  0.6000E+02
     34.675 -0.1379E-10  0.6000E+02
     34.789 -0.4023E-13  0.6000E+02
     34.904 -0.4661E-16  0.6000E+02
     35.019  0.0000E+00  0.6000E+02
     35.133  0.0000E+00  0.6000E+02
     35.248  0.0000E+00  0.6000E+02
     35.362  0.0000E+00  0.6000E+02
     35.477  0.0000E+00  0.6000E+02
     35.591  0.0000E+00  0.6000E+02
