    4    4    1    1
  0.1020639E+02  0.3443320E-09  0.3443320E-09  0.3443320E-09  0.5000000E-15
  1.000000000000000E-004
  CAR 
 unknown system                          
     40    216     30
 
  0.0000000E+00  0.0000000E+00  0.0000000E+00  0.7513148E-03
    1        3.229914   1.000000
    2        4.927107   1.000000
    3        6.470310   1.000000
    4        6.535665   1.000000
    5        6.585065   1.000000
    6        6.759599   1.000000
    7        6.822756   1.000000
    8       10.883168   1.000000
    9       10.902373   1.000000
   10       11.087926   1.000000
   11       13.039849   1.000000
   12       13.272096   1.000000
   13       14.467639   1.000000
   14       14.780339   1.000000
   15       15.007024   1.000000
   16       16.082430   0.199958
   17       16.419666  -0.006327
   18       16.775394  -0.000000
   19       17.172674  -0.000000
   20       17.897149  -0.000000
   21       17.910245  -0.000000
   22       17.962332  -0.000000
   23       17.977761  -0.000000
   24       19.015534  -0.000000
   25       28.067780   0.000000
   26       28.562993   0.000000
   27       28.883794   0.000000
   28       28.974017   0.000000
   29       29.146573   0.000000
   30       31.067257   0.000000
 
  0.9090909E-01  0.0000000E+00  0.0000000E+00  0.1502630E-02
    1        3.368145   1.000000
    2        5.035164   1.000000
    3        6.552317   1.000000
    4        6.590529   1.000000
    5        6.687382   1.000000
    6        6.858759   1.000000
    7        6.934975   1.000000
    8       10.808668   1.000000
    9       10.942875   1.000000
   10       11.149413   1.000000
   11       13.048231   1.000000
   12       13.195585   1.000000
   13       14.462877   1.000000
   14       14.556064   1.000000
   15       14.607842   1.000000
   16       15.288421   1.000002
   17       16.347661  -0.018099
   18       16.406406  -0.007890
   19       16.998300  -0.000000
   20       17.067734  -0.000000
   21       17.482850  -0.000000
   22       18.998969  -0.000000
   23       19.015131  -0.000000
   24       19.120695  -0.000000
   25       27.656325   0.000000
   26       28.757560   0.000000
   27       28.929602   0.000000
   28       29.040506   0.000000
   29       29.662360   0.000000
   30       31.535777   0.000000
 
  0.0000000E+00  0.9090909E-01  0.0000000E+00  0.1502630E-02
    1        3.385263   1.000000
    2        5.043945   1.000000
    3        6.538312   1.000000
    4        6.638045   1.000000
    5        6.646869   1.000000
    6        6.859482   1.000000
    7        6.935587   1.000000
    8       10.948970   1.000000
    9       10.967657   1.000000
   10       11.005273   1.000000
   11       12.976114   1.000000
   12       13.291758   1.000000
   13       14.181145   1.000000
   14       14.626198   1.000000
   15       14.741682   1.000000
   16       16.059821   0.279634
   17       16.106501   0.127425
   18       16.769851  -0.000000
   19       16.847665  -0.000000
   20       16.963391  -0.000000
   21       17.287070  -0.000000
   22       17.524953  -0.000000
   23       19.275149  -0.000000
   24       19.762503  -0.000000
   25       27.842521   0.000000
   26       28.304276   0.000000
   27       28.762237   0.000000
   28       29.336579   0.000000
   29       29.955402   0.000000
   30       31.268379   0.000000
 
  0.0000000E+00  0.0000000E+00  0.9090909E-01  0.1502630E-02
    1        3.387290   1.000000
    2        5.046931   1.000000
    3        6.590507   1.000000
    4        6.648179   1.000000
    5        6.689437   1.000000
    6        6.820923   1.000000
    7        6.875896   1.000000
    8       10.786575   1.000000
    9       10.961917   1.000000
   10       11.149788   1.000000
   11       13.002826   1.000000
   12       13.255053   1.000000
   13       14.159917   1.000000
   14       14.662360   1.000000
   15       14.995438   1.000000
   16       15.441367   1.000245
   17       16.136367   0.057278
   18       16.280403  -0.032678
   19       16.897303  -0.000000
   20       17.316937  -0.000000
   21       17.580584  -0.000000
   22       17.970922  -0.000000
   23       19.063888  -0.000000
   24       19.695440  -0.000000
   25       27.543750   0.000000
   26       28.315553   0.000000
   27       29.068851   0.000000
   28       29.349886   0.000000
   29       29.994706   0.000000
   30       31.117903   0.000000
 
  0.1818182E+00  0.0000000E+00  0.0000000E+00  0.1502630E-02
    1        3.765500   1.000000
    2        5.345727   1.000000
    3        6.748264   1.000000
    4        6.764492   1.000000
    5        6.989513   1.000000
    6        7.149583   1.000000
    7        7.268480   1.000000
    8       10.547773   1.000000
    9       11.107534   1.000000
   10       11.323088   1.000000
   11       12.910272   1.000000
   12       13.132058   1.000000
   13       13.573004   1.000000
   14       13.923821   1.000000
   15       14.119368   1.000000
   16       14.446909   1.000000
   17       15.846817   0.988469
   18       15.906637   0.867223
   19       16.267745  -0.034446
   20       16.352696  -0.017028
   21       16.836536  -0.000000
   22       19.014563  -0.000000
   23       20.563894  -0.000000
   24       20.601889  -0.000000
   25       26.910772   0.000000
   26       28.779468   0.000000
   27       29.073469   0.000000
   28       29.194200   0.000000
   29       30.757486   0.000000
   30       30.872836   0.000000
 
  0.0000000E+00  0.1818182E+00  0.0000000E+00  0.1502630E-02
    1        3.836808   1.000000
    2        5.379202   1.000000
    3        6.704037   1.000000
    4        6.788539   1.000000
    5        6.974557   1.000000
    6        7.153359   1.000000
    7        7.280391   1.000000
    8       10.767860   1.000000
    9       11.136340   1.000000
   10       11.148363   1.000000
   11       12.780450   1.000000
   12       13.345103   1.000000
   13       13.456994   1.000000
   14       13.711283   1.000000
   15       14.603295   1.000000
   16       15.262876   1.000001
   17       15.891557   0.906188
   18       16.002961   0.511145
   19       16.245899  -0.035372
   20       16.370866  -0.013439
   21       16.612626  -0.000077
   22       16.756752  -0.000001
   23       20.776939  -0.000000
   24       20.988882  -0.000000
   25       26.906179   0.000000
   26       28.769461   0.000000
   27       28.987612   0.000000
   28       29.517101   0.000000
   29       30.421224   0.000000
   30       30.991389   0.000000
 
  0.0000000E+00  0.0000000E+00  0.1818182E+00  0.1502630E-02
    1        3.845801   1.000000
    2        5.392947   1.000000
    3        6.923464   1.000000
    4        6.980485   1.000000
    5        6.998456   1.000000
    6        6.999215   1.000000
    7        7.025430   1.000000
    8       10.509830   1.000000
    9       11.119975   1.000000
   10       11.323828   1.000000
   11       12.821627   1.000000
   12       13.267727   1.000000
   13       13.404232   1.000000
   14       14.046022   1.000000
   15       14.269333   1.000000
   16       14.965648   1.000000
   17       15.555019   1.003250
   18       15.921744   0.822588
   19       16.007977   0.489922
   20       16.361523  -0.015226
   21       16.798489  -0.000000
   22       17.955036  -0.000000
   23       20.719577  -0.000000
   24       20.892814  -0.000000
   25       26.511972   0.000000
   26       28.839901   0.000000
   27       29.203950   0.000000
   28       29.708792   0.000000
   29       30.635075   0.000000
   30       30.771325   0.000000
 
  0.2727273E+00  0.0000000E+00  0.0000000E+00  0.1502630E-02
    1        4.360734   1.000000
    2        5.815195   1.000000
    3        6.990992   1.000000
    4        7.046800   1.000000
    5        7.483660   1.000000
    6        7.621047   1.000000
    7        7.789977   1.000000
    8       10.165169   1.000000
    9       11.325320   1.000000
   10       11.603067   1.000000
   11       12.523257   1.000000
   12       12.541897   1.000000
   13       12.574191   1.000000
   14       13.185116   1.000000
   15       13.439145   1.000000
   16       14.429691   1.000000
   17       14.582450   1.000000
   18       15.145257   1.000000
   19       15.421267   1.000144
   20       15.747232   1.034826
   21       16.521778  -0.000801
   22       19.013215  -0.000000
   23       22.134239   0.000000
   24       22.283120   0.000000
   25       26.255516   0.000000
   26       28.503174   0.000000
   27       28.873188   0.000000
   28       28.962354   0.000000
   29       29.914744   0.000000
   30       31.968069   0.000000
 
  0.0000000E+00  0.2727273E+00  0.0000000E+00  0.1502630E-02
    1        4.535230   1.000000
    2        5.881323   1.000000
    3        6.901270   1.000000
    4        7.016279   1.000000
    5        7.497198   1.000000
    6        7.623344   1.000000
    7        7.830416   1.000000
    8       10.425001   1.000000
    9       11.451439   1.000000
   10       11.457781   1.000000
   11       12.485413   1.000000
   12       12.521130   1.000000
   13       12.623395   1.000000
   14       13.404499   1.000000
   15       13.927935   1.000000
   16       14.546082   1.000000
   17       14.962570   1.000000
   18       15.166026   1.000000
   19       15.402058   1.000085
   20       15.658037   1.016932
   21       15.928967   0.799363
   22       16.744192  -0.000001
   23       22.360422   0.000000
   24       22.371840   0.000000
   25       26.218687   0.000000
   26       28.669839   0.000000
   27       28.837079   0.000000
   28       29.312142   0.000000
   29       30.574962   0.000000
   30       30.852301   0.000000
 
  0.0000000E+00  0.0000000E+00  0.2727273E+00  0.1502630E-02
    1        4.559926   1.000000
    2        5.919051   1.000000
    3        7.166065   1.000000
    4        7.280620   1.000000
    5        7.467398   1.000000
    6        7.505917   1.000000
    7        7.516979   1.000000
    8       10.096572   1.000000
    9       11.337467   1.000000
   10       11.609663   1.000000
   11       12.491232   1.000000
   12       12.498092   1.000000
   13       12.661949   1.000000
   14       13.330788   1.000000
   15       13.603492   1.000000
   16       14.594056   1.000000
   17       14.851563   1.000000
   18       14.928803   1.000000
   19       15.342074   1.000014
   20       15.534226   1.002143
   21       16.048704   0.322208
   22       17.933875  -0.000000
   23       22.262920   0.000000
   24       22.436816   0.000000
   25       25.755899   0.000000
   26       28.768231   0.000000
   27       29.010675   0.000000
   28       29.748813   0.000000
   29       30.101012   0.000000
   30       31.252124   0.000000
 
  0.3636364E+00  0.0000000E+00  0.0000000E+00  0.1502630E-02
    1        5.019384   1.000000
    2        6.347565   1.000000
    3        7.273039   1.000000
    4        7.331324   1.000000
    5        8.150164   1.000000
    6        8.246325   1.000000
    7        8.383335   1.000000
    8        9.759676   1.000000
    9       11.080800   1.000000
   10       11.320377   1.000000
   11       11.975021   1.000000
   12       12.064112   1.000000
   13       12.115116   1.000000
   14       12.769377   1.000000
   15       13.184972   1.000000
   16       13.311151   1.000000
   17       14.416593   1.000000
   18       14.439315   1.000000
   19       14.613986   1.000000
   20       15.042661   1.000000
   21       16.376963  -0.012344
   22       19.012627  -0.000000
   23       23.735260   0.000000
   24       23.945066   0.000000
   25       25.805171   0.000000
   26       28.059966   0.000000
   27       28.145015   0.000000
   28       28.282599   0.000000
   29       29.433905   0.000000
   30       32.584150   0.000000
 
  0.0000000E+00  0.3636364E+00  0.0000000E+00  0.1502630E-02
    1        5.372342   1.000000
    2        6.437949   1.000000
    3        7.040566   1.000000
    4        7.271932   1.000000
    5        8.170559   1.000000
    6        8.230560   1.000000
    7        8.485629   1.000000
    8       10.063672   1.000000
    9       11.532157   1.000000
   10       11.547146   1.000000
   11       11.905112   1.000000
   12       11.914776   1.000000
   13       12.151655   1.000000
   14       12.780970   1.000000
   15       13.353322   1.000000
   16       14.072554   1.000000
   17       14.153556   1.000000
   18       14.208552   1.000000
   19       14.411282   1.000000
   20       14.972322   1.000000
   21       15.868962   0.953859
   22       16.735976  -0.000002
   23       23.795459   0.000000
   24       23.993824   0.000000
   25       25.781940   0.000000
   26       27.825930   0.000000
   27       28.182835   0.000000
   28       29.066354   0.000000
   29       30.437007   0.000000
   30       30.944501   0.000000
 
  0.0000000E+00  0.0000000E+00  0.3636364E+00  0.1502630E-02
    1        5.433773   1.000000
    2        6.506571   1.000000
    3        7.272107   1.000000
    4        7.633503   1.000000
    5        8.042684   1.000000
    6        8.195308   1.000000
    7        8.231527   1.000000
    8        9.625196   1.000000
    9       11.097679   1.000000
   10       11.360691   1.000000
   11       12.018483   1.000000
   12       12.084578   1.000000
   13       12.100072   1.000000
   14       12.853076   1.000000
   15       13.226571   1.000000
   16       13.475764   1.000000
   17       14.125226   1.000000
   18       14.388254   1.000000
   19       14.823093   1.000000
   20       14.900269   1.000000
   21       15.679935   1.021762
   22       17.918031  -0.000000
   23       23.706707   0.000000
   24       24.146166   0.000000
   25       25.278920   0.000000
   26       27.857057   0.000000
   27       28.413289   0.000000
   28       29.636134   0.000000
   29       29.728520   0.000000
   30       31.537861   0.000000
 
  0.4545455E+00  0.0000000E+00  0.0000000E+00  0.1502630E-02
    1        5.490194   1.000000
    2        6.748017   1.000000
    3        7.490839   1.000000
    4        7.517971   1.000000
    5        8.818343   1.000000
    6        8.908708   1.000000
    7        8.924183   1.000000
    8        9.469442   1.000000
    9       10.270980   1.000000
   10       10.276661   1.000000
   11       11.840484   1.000000
   12       12.129411   1.000000
   13       12.308399   1.000000
   14       12.309056   1.000000
   15       12.542229   1.000000
   16       13.316434   1.000000
   17       13.912943   1.000000
   18       14.027797   1.000000
   19       14.409593   1.000000
   20       14.518438   1.000000
   21       16.311879  -0.026231
   22       19.012364  -0.000000
   23       25.229631   0.000000
   24       25.436296   0.000000
   25       25.580441   0.000000
   26       26.943457   0.000000
   27       27.256493   0.000000
   28       27.897639   0.000000
   29       29.249543   0.000000
   30       32.819466   0.000000
 
  0.0000000E+00  0.4545455E+00  0.0000000E+00  0.1502630E-02
    1        6.100173   1.000000
    2        6.844230   1.000000
    3        7.004282   1.000000
    4        7.459195   1.000000
    5        8.823410   1.000000
    6        8.831522   1.000000
    7        8.998409   1.000000
    8        9.813470   1.000000
    9       10.707169   1.000000
   10       10.730346   1.000000
   11       11.777927   1.000000
   12       12.135674   1.000000
   13       12.441879   1.000000
   14       12.461591   1.000000
   15       13.094034   1.000000
   16       13.292512   1.000000
   17       13.297523   1.000000
   18       13.656862   1.000000
   19       14.191334   1.000000
   20       14.644988   1.000000
   21       15.835638   1.001711
   22       16.732071  -0.000002
   23       25.199028   0.000000
   24       25.567509   0.000000
   25       25.571553   0.000000
   26       26.684310   0.000000
   27       27.028525   0.000000
   28       28.933484   0.000000
   29       30.331559   0.000000
   30       30.996692   0.000000
 
  0.0000000E+00  0.0000000E+00  0.4545455E+00  0.1502630E-02
    1        6.280934   1.000000
    2        6.773478   1.000000
    3        7.294918   1.000000
    4        7.952637   1.000000
    5        8.458814   1.000000
    6        9.011512   1.000000
    7        9.044577   1.000000
    8        9.236071   1.000000
    9       10.218812   1.000000
   10       10.250174   1.000000
   11       11.775888   1.000000
   12       12.114887   1.000000
   13       12.425003   1.000000
   14       12.430632   1.000000
   15       12.645903   1.000000
   16       13.526720   1.000000
   17       13.544273   1.000000
   18       13.656022   1.000000
   19       14.208797   1.000000
   20       14.884759   1.000000
   21       15.557065   1.003381
   22       17.909428  -0.000000
   23       25.050951   0.000000
   24       25.108184   0.000000
   25       25.775338   0.000000
   26       26.695793   0.000000
   27       27.266123   0.000000
   28       29.484957   0.000000
   29       29.611172   0.000000
   30       31.654533   0.000000
 
  0.9090909E-01  0.9090909E-01  0.0000000E+00  0.3005259E-02
    1        3.521294   1.000000
    2        5.150296   1.000000
    3        6.624476   1.000000
    4        6.683611   1.000000
    5        6.755535   1.000000
    6        6.919015   1.000000
    7        7.075601   1.000000
    8       10.813157   1.000000
    9       10.997570   1.000000
   10       11.121634   1.000000
   11       12.980931   1.000000
   12       13.215022   1.000000
   13       14.098601   1.000000
   14       14.217108   1.000000
   15       14.590115   1.000000
   16       15.403753   1.000089
   17       15.964912   0.668259
   18       16.172259   0.001912
   19       16.368636  -0.013854
   20       16.828131  -0.000000
   21       17.907175  -0.000000
   22       18.194021  -0.000000
   23       19.166282  -0.000000
   24       20.150811  -0.000000
   25       27.599985   0.000000
   26       28.265116   0.000000
   27       28.991946   0.000000
   28       29.713968   0.000000
   29       29.958619   0.000000
   30       30.943090   0.000000
 
  0.0000000E+00  0.9090909E-01  0.9090909E-01  0.3005259E-02
    1        3.537024   1.000000
    2        5.162315   1.000000
    3        6.630131   1.000000
    4        6.731954   1.000000
    5        6.773650   1.000000
    6        6.927343   1.000000
    7        6.999191   1.000000
    8       10.794629   1.000000
    9       11.013964   1.000000
   10       11.119138   1.000000
   11       12.949946   1.000000
   12       13.260225   1.000000
   13       13.889444   1.000000
   14       14.466269   1.000000
   15       14.661998   1.000000
   16       15.622511   1.010406
   17       15.966861   0.660540
   18       16.090977   0.172643
   19       16.295007  -0.029933
   20       16.755781  -0.000001
   21       17.397074  -0.000000
   22       18.094266  -0.000000
   23       19.850367  -0.000000
   24       19.857520  -0.000000
   25       27.667051   0.000000
   26       28.148782   0.000000
   27       28.568395   0.000000
   28       29.764828   0.000000
   29       30.700635   0.000000
   30       30.790099   0.000000
 
  0.9090909E-01  0.0000000E+00  0.9090909E-01  0.3005259E-02
    1        3.522901   1.000000
    2        5.153389   1.000000
    3        6.643049   1.000000
    4        6.695128   1.000000
    5        6.810575   1.000000
    6        6.924644   1.000000
    7        6.992497   1.000000
    8       10.723564   1.000000
    9       10.986579   1.000000
   10       11.199954   1.000000
   11       13.018701   1.000000
   12       13.169686   1.000000
   13       14.017462   1.000000
   14       14.504602   1.000000
   15       14.732513   1.000000
   16       15.021862   1.000000
   17       15.262516   1.000001
   18       16.244895  -0.035330
   19       16.926718  -0.000000
   20       16.937047  -0.000000
   21       18.183924  -0.000000
   22       18.421826  -0.000000
   23       18.725016  -0.000000
   24       20.122206  -0.000000
   25       27.461565   0.000000
   26       28.180699   0.000000
   27       29.275179   0.000000
   28       29.621694   0.000000
   29       30.083589   0.000000
   30       30.955668   0.000000
 
  0.1818182E+00  0.9090909E-01  0.0000000E+00  0.3005259E-02
    1        3.912855   1.000000
    2        5.457028   1.000000
    3        6.839277   1.000000
    4        6.849151   1.000000
    5        7.056639   1.000000
    6        7.160821   1.000000
    7        7.432146   1.000000
    8       10.531999   1.000000
    9       11.136560   1.000000
   10       11.316244   1.000000
   11       12.887977   1.000000
   12       13.066550   1.000000
   13       13.353251   1.000000
   14       13.574275   1.000000
   15       14.129051   1.000000
   16       14.628402   1.000000
   17       14.979940   1.000000
   18       15.822506   1.013981
   19       15.972430   0.638217
   20       16.436327  -0.004717
   21       17.674394  -0.000000
   22       18.308587  -0.000000
   23       20.159470  -0.000000
   24       21.275475  -0.000000
   25       26.852408   0.000000
   26       28.365160   0.000000
   27       29.250106   0.000000
   28       29.405878   0.000000
   29       30.722745   0.000000
   30       31.155764   0.000000
 
  0.0000000E+00  0.1818182E+00  0.9090909E-01  0.3005259E-02
    1        3.973093   1.000000
    2        5.493489   1.000000
    3        6.786102   1.000000
    4        6.871516   1.000000
    5        7.070907   1.000000
    6        7.226531   1.000000
    7        7.376636   1.000000
    8       10.675531   1.000000
    9       11.172887   1.000000
   10       11.192976   1.000000
   11       12.772079   1.000000
   12       13.133378   1.000000
   13       13.417741   1.000000
   14       13.543259   1.000000
   15       14.549513   1.000000
   16       14.862976   1.000000
   17       15.453996   1.000339
   18       15.537008   1.002269
   19       15.932946   0.786074
   20       16.218243  -0.030506
   21       16.803133  -0.000000
   22       17.588143  -0.000000
   23       20.729171  -0.000000
   24       21.194901  -0.000000
   25       26.855206   0.000000
   26       28.187704   0.000000
   27       29.081591   0.000000
   28       29.824162   0.000000
   29       30.519917   0.000000
   30       31.320790   0.000000
 
  0.9090909E-01  0.0000000E+00  0.1818182E+00  0.3005259E-02
    1        3.973950   1.000000
    2        5.495829   1.000000
    3        6.913439   1.000000
    4        6.980236   1.000000
    5        7.107365   1.000000
    6        7.145753   1.000000
    7        7.208216   1.000000
    8       10.456631   1.000000
    9       11.143066   1.000000
   10       11.351768   1.000000
   11       12.833223   1.000000
   12       13.166191   1.000000
   13       13.278329   1.000000
   14       13.820326   1.000000
   15       14.170225   1.000000
   16       14.388935   1.000000
   17       14.792220   1.000000
   18       15.933459   0.784338
   19       16.326517  -0.022853
   20       16.498211  -0.001363
   21       17.413908  -0.000000
   22       17.721625  -0.000000
   23       20.226216  -0.000000
   24       21.319716  -0.000000
   25       26.521071   0.000000
   26       28.544951   0.000000
   27       29.523461   0.000000
   28       29.953558   0.000000
   29       30.213652   0.000000
   30       30.921007   0.000000
 
 -0.9090909E-01  0.1818182E+00  0.0000000E+00  0.3005259E-02
    1        3.966758   1.000000
    2        5.481551   1.000000
    3        6.800168   1.000000
    4        6.865780   1.000000
    5        7.047759   1.000000
    6        7.168582   1.000000
    7        7.440129   1.000000
    8       10.683319   1.000000
    9       11.161592   1.000000
   10       11.202039   1.000000
   11       12.784022   1.000000
   12       13.172978   1.000000
   13       13.344500   1.000000
   14       13.544577   1.000000
   15       14.441326   1.000000
   16       14.731568   1.000000
   17       15.453915   1.000338
   18       15.614433   1.009197
   19       16.190727  -0.015593
   20       16.318305  -0.024753
   21       16.957477  -0.000000
   22       17.447658  -0.000000
   23       20.370489  -0.000000
   24       21.384399  -0.000000
   25       26.785539   0.000000
   26       28.499331   0.000000
   27       29.299713   0.000000
   28       29.977541   0.000000
   29       30.211937   0.000000
   30       30.755368   0.000000
 
 -0.1818182E+00  0.0000000E+00  0.9090909E-01  0.3005259E-02
    1        3.913258   1.000000
    2        5.460423   1.000000
    3        6.833269   1.000000
    4        6.842623   1.000000
    5        7.097670   1.000000
    6        7.222428   1.000000
    7        7.353951   1.000000
    8       10.482470   1.000000
    9       11.134389   1.000000
   10       11.350548   1.000000
   11       12.916712   1.000000
   12       13.060817   1.000000
   13       13.369266   1.000000
   14       13.668186   1.000000
   15       14.070320   1.000000
   16       14.475806   1.000000
   17       14.565894   1.000000
   18       16.028338   0.404452
   19       16.221154  -0.031431
   20       16.679910  -0.000010
   21       17.540038  -0.000000
   22       18.363118  -0.000000
   23       20.086609  -0.000000
   24       21.219404  -0.000000
   25       26.844804   0.000000
   26       28.311801   0.000000
   27       29.228187   0.000000
   28       29.545476   0.000000
   29       30.663228   0.000000
   30       31.186182   0.000000
 
  0.0000000E+00  0.9090909E-01  0.1818182E+00  0.3005259E-02
    1        3.979939   1.000000
    2        5.504194   1.000000
    3        6.922193   1.000000
    4        6.988587   1.000000
    5        7.049012   1.000000
    6        7.152822   1.000000
    7        7.239881   1.000000
    8       10.498399   1.000000
    9       11.148906   1.000000
   10       11.316060   1.000000
   11       12.803552   1.000000
   12       13.108239   1.000000
   13       13.328551   1.000000
   14       13.710495   1.000000
   15       14.311303   1.000000
   16       14.991002   1.000000
   17       15.043018   1.000000
   18       15.569218   1.004253
   19       15.775253   1.034552
   20       16.150883   0.031234
   21       17.571146  -0.000000
   22       17.664553  -0.000000
   23       20.654709  -0.000000
   24       21.189516  -0.000000
   25       26.568689   0.000000
   26       28.363414   0.000000
   27       29.146886   0.000000
   28       29.755580   0.000000
   29       30.614242   0.000000
   30       31.580113   0.000000
 
  0.2727273E+00  0.9090909E-01  0.0000000E+00  0.3005259E-02
    1        4.501649   1.000000
    2        5.922515   1.000000
    3        7.081238   1.000000
    4        7.141246   1.000000
    5        7.544331   1.000000
    6        7.599879   1.000000
    7        7.948587   1.000000
    8       10.149779   1.000000
    9       11.286451   1.000000
   10       11.599995   1.000000
   11       12.303336   1.000000
   12       12.465837   1.000000
   13       12.555377   1.000000
   14       13.119960   1.000000
   15       13.485148   1.000000
   16       13.927133   1.000000
   17       14.395441   1.000000
   18       15.159715   1.000000
   19       15.395975   1.000071
   20       16.051563   0.311076
   21       16.801608  -0.000000
   22       18.447260  -0.000000
   23       21.571254   0.000000
   24       22.774906   0.000000
   25       26.139556   0.000000
   26       27.891102   0.000000
   27       28.758692   0.000000
   28       29.340088   0.000000
   29       31.069640   0.000000
   30       32.165207   0.000000
 
  0.0000000E+00  0.2727273E+00  0.9090909E-01  0.3005259E-02
    1        4.650783   1.000000
    2        5.990554   1.000000
    3        6.990627   1.000000
    4        7.093480   1.000000
    5        7.539005   1.000000
    6        7.691062   1.000000
    7        7.955638   1.000000
    8       10.371583   1.000000
    9       11.421913   1.000000
   10       11.469394   1.000000
   11       12.306873   1.000000
   12       12.519022   1.000000
   13       12.538600   1.000000
   14       13.401981   1.000000
   15       13.502433   1.000000
   16       14.453322   1.000000
   17       14.587531   1.000000
   18       14.869355   1.000000
   19       15.431640   1.000190
   20       15.846921   0.988332
   21       16.551874  -0.000387
   22       16.592144  -0.000135
   23       21.936653   0.000000
   24       22.697855   0.000000
   25       26.089104   0.000000
   26       27.830252   0.000000
   27       29.163117   0.000000
   28       29.806620   0.000000
   29       30.664510   0.000000
   30       31.588356   0.000000
 
  0.9090909E-01  0.0000000E+00  0.2727273E+00  0.3005259E-02
    1        4.677034   1.000000
    2        6.018259   1.000000
    3        7.242677   1.000000
    4        7.319307   1.000000
    5        7.434896   1.000000
    6        7.617306   1.000000
    7        7.726493   1.000000
    8       10.052978   1.000000
    9       11.360273   1.000000
   10       11.579241   1.000000
   11       12.334588   1.000000
   12       12.429417   1.000000
   13       12.566768   1.000000
   14       13.232580   1.000000
   15       13.469750   1.000000
   16       13.734105   1.000000
   17       14.779597   1.000000
   18       15.371463   1.000035
   19       15.410983   1.000108
   20       15.974043   0.631686
   21       16.126657   0.077617
   22       17.601144  -0.000000
   23       21.829700   0.000000
   24       22.647173   0.000000
   25       25.773726   0.000000
   26       28.246286   0.000000
   27       29.122276   0.000000
   28       29.912185   0.000000
   29       30.585722   0.000000
   30       31.407168   0.000000
 
 -0.9090909E-01  0.2727273E+00  0.0000000E+00  0.3005259E-02
    1        4.656940   1.000000
    2        5.979444   1.000000
    3        7.005109   1.000000
    4        7.096849   1.000000
    5        7.559347   1.000000
    6        7.612792   1.000000
    7        7.982946   1.000000