 vasp.6.2.0 18Jan21 (build Mar 17 2021 09:06:54) complex                        
  
 POSCAR found type information on POSCAR PdIrPtCu
 POSCAR found :  4 types and       4 ions
 LDA part: xc-table for Pade appr. of Perdew
 POSCAR, INCAR and KPOINTS ok, starting setup
 FFT: planning ...
 WAVECAR not read
 WARNING: chargedensity file is incomplete
 entering main loop
       N       E                     dE             d eps       ncg     rms          rms(c)
DAV:   1     0.238794845649E+03    0.23879E+03   -0.11889E+04 13860   0.101E+03
DAV:   2    -0.714501640251E+01   -0.24594E+03   -0.23263E+03 13814   0.292E+02
DAV:   3    -0.185929045866E+02   -0.11448E+02   -0.11193E+02 15024   0.732E+01
DAV:   4    -0.188666724257E+02   -0.27377E+00   -0.27352E+00 16276   0.109E+01
DAV:   5    -0.188786485138E+02   -0.11976E-01   -0.11975E-01 18198   0.222E+00    0.490E+01
DAV:   6    -0.188607922851E+02    0.17856E-01   -0.23052E+01 15526   0.133E+02    0.246E+01
DAV:   7    -0.174246514689E+02    0.14361E+01   -0.10843E+01 16096   0.147E+02    0.200E+01
DAV:   8    -0.167192541935E+02    0.70540E+00   -0.51305E+00 16178   0.582E+01    0.247E+00
DAV:   9    -0.166217336739E+02    0.97521E-01   -0.35678E-01 20300   0.143E+01    0.160E+00
DAV:  10    -0.166099547588E+02    0.11779E-01   -0.66478E-02 19624   0.820E+00    0.655E-01
DAV:  11    -0.166083247393E+02    0.16300E-02   -0.15564E-02 19916   0.332E+00    0.192E-01
DAV:  12    -0.166082921247E+02    0.32615E-04   -0.78695E-04 20242   0.475E-01    0.174E-01
DAV:  13    -0.166079968390E+02    0.29529E-03   -0.13249E-03 16576   0.151E+00    0.499E-02
DAV:  14    -0.166079543443E+02    0.42495E-04   -0.15825E-04 19660   0.404E-01    0.921E-03
DAV:  15    -0.166079544269E+02   -0.82627E-07   -0.52644E-06 15022   0.154E-02
   1 F= -.16607954E+02 E0= -.16608538E+02  d E =0.175096E-02
 writing wavefunctions
