unknown system                          
           1
     3.443320    0.000000    0.000000
     0.000000    3.443320    0.000000
     0.000000    0.000000    3.443320
   Pd   Ir   Pt   Cu
     1     1     1     1
Direct configuration=     1
   0.00000000  0.00000000  0.00000000
   0.50000000  0.50000000  0.00000000
   0.50000000  0.00000000  0.50000000
   0.00000000  0.50000000  0.50000000
