unknown system                          
   1.00000000000000     
     2.236800    0.000000    0.000000
    -1.118400    1.937126    0.000000
     0.000000    0.000000    4.014720
   Fe
     2
Direct
  0.000000  0.000000  0.000000
  0.333333  0.666667  0.500000
 
   20   20   32
  145.97      138.89      119.74      93.629      66.457      42.896      25.594      15.188      10.553      9.2806    
  8.9967      9.2807      10.553      15.188      25.594      42.896      66.457      93.629      119.74      138.89    
  138.90      138.89      125.81      103.32      76.992      52.094      32.221      18.958      12.022      9.5744    
  8.9895      8.9894      9.5743      12.022      18.958      32.220      52.094      76.993      103.32      125.82    
  119.74      125.79      119.74      103.32      80.862      57.427      37.129      22.367      13.697      10.004    
  8.9929      8.7176      8.9927      10.004      13.698      22.367      37.127      57.425      80.864      103.32    
  93.627      103.26      103.26      93.629      76.992      57.427      38.941      24.393      15.037      10.485    
  9.0040      8.5063      8.5062      9.0040      10.485      15.038      24.393      38.940      57.424      76.989    
  66.452      76.907      80.745      76.911      66.457      52.094      37.129      24.393      15.549      10.807    
  9.0281      8.3719      8.1359      8.3718      9.0281      10.807      15.550      24.395      37.129      52.091    
  42.895      52.021      57.298      57.299      52.023      42.896      32.221      22.367      15.037      10.807    
  9.0426      8.3095      7.9153      7.9152      8.3092      9.0419      10.806      15.039      22.371      32.223    
  25.598      32.186      37.045      38.834      37.043      32.183      25.594      18.958      13.697      10.485    
  9.0281      8.3095      7.8434      7.6841      7.8436      8.3089      9.0263      10.483      13.698      18.961    
  15.188      18.960      22.350      24.355      24.353      22.346      18.957      15.188      12.022      10.004    
  9.0040      8.3719      7.9153      7.6841      7.6845      7.9160      8.3718      9.0022      10.001      12.019    
  10.549      12.039      13.726      15.066      15.576      15.065      13.726      12.042      10.553      9.5744    
  8.9929      8.5063      8.1359      7.9152      7.8436      7.9160      8.1376      8.5080      8.9929      9.5717    
  9.2805      9.5982      10.051      10.549      10.880      10.880      10.551      10.054      9.6008      9.2806    
  8.9895      8.7176      8.5062      8.3718      8.3092      8.3089      8.3718      8.5080      8.7210      8.9921    
  9.0006      9.0189      9.0461      9.0790      9.1198      9.1414      9.1216      9.0808      9.0459      9.0162    
  8.9967      8.9894      8.9927      9.0040      9.0281      9.0419      9.0263      9.0022      8.9929      8.9921    
  9.2805      9.0189      8.7748      8.5879      8.4735      8.4233      8.4236      8.4735      8.5861      8.7714    
  9.0163      9.2807      9.5743      10.004      10.485      10.807      10.806      10.483      10.001      9.5717    
  10.549      9.5982      9.0461      8.5879      8.2424      8.0394      7.9740      8.0387      8.2408      8.5862    
  9.0461      9.6009      10.553      12.022      13.698      15.038      15.550      15.039      13.698      12.019    
  15.188      12.039      10.051      9.0790      8.4735      8.0394      7.8210      7.8206      8.0387      8.4736    
  9.0808      10.054      12.042      15.188      18.958      22.367      24.393      24.395      22.371      18.961    
  25.598      18.960      13.726      10.549      9.1198      8.4233      7.9740      7.8206      7.9738      8.4239    
  9.1216      10.550      13.726      18.957      25.594      32.220      37.127      38.940      37.129      32.223    
  42.895      32.186      22.350      15.066      10.880      9.1414      8.4236      8.0387      8.0387      8.4239    
  9.1421      10.880      15.064      22.347      32.184      42.896      52.094      57.425      57.424      52.091    
  66.452      52.021      37.045      24.355      15.576      10.880      9.1216      8.4735      8.2408      8.4736    
  9.1216      10.880      15.574      24.353      37.045      52.024      66.457      76.993      80.864      76.989    
  93.627      76.907      57.298      38.834      24.353      15.065      10.551      9.0808      8.5861      8.5862    
  9.0808      10.550      15.064      24.353      38.835      57.300      76.909      93.629      103.32      103.32    
  119.74      103.26      80.745      57.299      37.043      22.346      13.726      10.054      9.0459      8.7714    
  9.0461      10.054      13.726      22.347      37.045      57.300      80.744      103.25      119.74      125.82    
  138.90      125.79      103.26      76.911      52.023      32.183      18.957      12.042      9.6008      9.0162    
  9.0163      9.6009      12.042      18.957      32.184      52.024      76.909      103.25      125.78      138.89    
  137.12      130.48      112.48      87.937      62.381      40.252      24.082      14.458      10.253      9.1080    
  8.8292      9.1080      10.253      14.458      24.082      40.252      62.381      87.937      112.48      130.48    
  130.48      130.48      118.19      97.043      72.278      48.870      30.245      17.912      11.557      9.3650    
  8.8113      8.8112      9.3649      11.557      17.911      30.244      48.869      72.279      97.048      118.19    
  112.49      118.17      112.48      97.043      75.914      53.870      34.823      21.055      13.065      9.7311    
  8.8091      8.5407      8.8090      9.7312      13.065      21.054      34.821      53.869      75.916      97.047    
  87.935      96.999      97.000      87.937      72.278      53.870      36.515      22.928      14.280      10.147    
  8.8168      8.3340      8.3339      8.8168      10.147      14.280      22.928      36.514      53.868      72.275    
  62.376      72.219      75.833      72.223      62.381      48.870      34.823      22.928      14.745      10.428    
  8.8331      8.2041      7.9769      8.2040      8.8331      10.429      14.747      22.929      34.823      48.866    
  40.251      48.827      53.792      53.794      48.830      40.252      30.245      21.055      14.280      10.428    
  8.8436      8.1443      7.7658      7.7659      8.1440      8.8430      10.428      14.281      21.058      30.247    
  24.085      30.243      34.797      36.476      34.795      30.240      24.082      17.912      13.065      10.147    
  8.8331      8.1443      7.6974      7.5455      7.6976      8.1437      8.8315      10.145      13.065      17.914    
  14.458      17.944      21.095      22.964      22.962      21.091      17.941      14.458      11.557      9.7311    
  8.8168      8.2041      7.7658      7.5455      7.5458      7.7665      8.2040      8.8151      9.7282      11.555    
  10.249      11.604      13.149      14.383      14.853      14.382      13.149      11.606      10.253      9.3650    
  8.8091      8.3340      7.9769      7.7659      7.6976      7.7665      7.9784      8.3356      8.8091      9.3624    
  9.1079      9.4158      9.8301      10.283      10.585      10.586      10.285      9.8331      9.4183      9.1080    
  8.8113      8.5407      8.3339      8.2040      8.1440      8.1437      8.2040      8.3356      8.5439      8.8138    
  8.8329      8.8671      8.9134      8.9636      9.0105      9.0329      9.0121      8.9653      8.9133      8.8646    
  8.8292      8.8112      8.8090      8.8168      8.8331      8.8430      8.8315      8.8151      8.8091      8.8138    
  9.1079      8.8671      8.6486      8.4872      8.3930      8.3538      8.3541      8.3930      8.4855      8.6455    
  8.8647      9.1080      9.3649      9.7312      10.147      10.429      10.428      10.145      9.7282      9.3624    
  10.249      9.4158      8.9135      8.4872      8.1711      7.9882      7.9298      7.9875      8.1696      8.4856    
  8.9134      9.4184      10.253      11.557      13.065      14.280      14.747      14.281      13.065      11.555    
  14.458      11.604      9.8301      8.9636      8.3930      7.9882      7.7863      7.7859      7.9875      8.3930    
  8.9652      9.8330      11.606      14.458      17.911      21.054      22.928      22.929      21.058      17.914    
  24.085      17.944      13.149      10.283      9.0104      8.3538      7.9298      7.7859      7.9297      8.3543    
  9.0121      10.285      13.149      17.942      24.082      30.244      34.821      36.514      34.823      30.247    
  40.251      30.243      21.095      14.383      10.585      9.0329      8.3541      7.9875      7.9875      8.3543    
  9.0335      10.585      14.381      21.092      30.241      40.252      48.869      53.869      53.868      48.866    
  62.376      48.827      34.797      22.964      14.853      10.586      9.0121      8.3930      8.1696      8.3930    
  9.0121      10.585      14.852      22.962      34.797      48.831      62.381      72.279      75.916      72.275    
  87.935      72.219      53.792      36.476      22.962      14.382      10.285      8.9653      8.4855      8.4856    
  8.9652      10.285      14.381      22.962      36.477      53.795      72.221      87.937      97.048      97.047    
  112.49      96.999      75.833      53.794      34.795      21.091      13.149      9.8331      8.9133      8.6455    
  8.9134      9.8330      13.149      21.092      34.797      53.795      75.832      96.995      112.48      118.19    
  130.48      118.17      97.000      72.223      48.830      30.240      17.941      11.606      9.4183      8.8646    
  8.8647      9.4184      11.606      17.942      30.241      48.831      72.221      96.995      118.17      130.48    
  113.70      108.20      93.257      72.837      51.584      33.296      20.161      12.611      9.5047      8.6382    
  8.3770      8.6382      9.5048      12.611      20.161      33.296      51.584      72.837      93.257      108.20    
  108.20      108.20      97.989      80.396      59.777      40.355      25.084      15.234      10.399      8.8248    
  8.3325      8.3324      8.8247      10.400      15.234      25.084      40.354      59.779      80.400      97.993    
  93.260      97.989      93.257      80.396      62.791      44.466      28.776      17.669      11.475      9.0460    
  8.3134      8.0666      8.3132      9.0461      11.475      17.668      28.775      44.465      62.792      80.400    
  72.835      80.397      80.397      72.837      59.777      44.466      30.146      19.135      12.362      9.3032    
  8.3117      7.8706      7.8705      8.3117      9.3035      12.362      19.135      30.145      44.464      59.775    
  51.580      59.788      62.805      59.791      51.584      40.355      28.776      19.135      12.706      9.4831    
  8.3167      7.7505      7.5484      7.7504      8.3167      9.4835      12.707      19.137      28.776      40.352    
  33.296      40.397      44.524      44.525      40.399      33.296      25.084      17.669      12.362      9.4831    
  8.3198      7.6961      7.3619      7.3619      7.6959      8.3193      9.4830      12.363      17.671      25.086    
  20.164      25.167      28.902      30.285      28.901      25.164      20.161      15.234      11.475      9.3032    
  8.3167      7.6961      7.3020      7.1699      7.3021      7.6957      8.3154      9.3019      11.475      15.236    
  12.611      15.344      17.857      19.362      19.361      17.854      15.342      12.611      10.399      9.0460    
  8.3117      7.7505      7.3619      7.1699      7.1702      7.3624      7.7504      8.3104      9.0437      10.397    
  9.5017      10.516      11.694      12.649      13.016      12.649      11.694      10.518      9.5047      8.8248    
  8.3134      7.8706      7.5484      7.3619      7.3021      7.3624      7.5495      7.8718      8.3134      8.8227    
  8.6381      8.9405      9.2704      9.6132      9.8406      9.8411      9.6148      9.2727      8.9424      8.6382    
  8.3325      8.0666      7.8705      7.7504      7.6959      7.6957      7.7504      7.8718      8.0692      8.3345    
  8.3799      8.4500      8.5373      8.6252      8.6918      8.7176      8.6931      8.6265      8.5371      8.4480    
  8.3770      8.3324      8.3132      8.3117      8.3167      8.3193      8.3154      8.3104      8.3134      8.3345    
  8.6381      8.4500      8.2917      8.1869      8.1352      8.1185      8.1187      8.1352      8.1855      8.2892    
  8.4481      8.6382      8.8247      9.0461      9.3035      9.4835      9.4830      9.3019      9.0437      8.8227    
  9.5017      8.9405      8.5373      8.1869      7.9372      7.7981      7.7548      7.7976      7.9361      8.1856    
  8.5373      8.9426      9.5048      10.400      11.475      12.362      12.707      12.363      11.475      10.397    
  12.611      10.516      9.2704      8.6252      8.1352      7.7981      7.6334      7.6331      7.7976      8.1353    
  8.6265      9.2727      10.518      12.611      15.234      17.668      19.135      19.137      17.671      15.236    
  20.164      15.344      11.694      9.6132      8.6918      8.1185      7.7548      7.6331      7.7547      8.1189    
  8.6931      9.6145      11.694      15.342      20.161      25.084      28.775      30.145      28.776      25.086    
  33.296      25.167      17.857      12.649      9.8406      8.7176      8.1187      7.7976      7.7976      8.1189    
  8.7181      9.8407      12.648      17.855      25.165      33.296      40.354      44.465      44.464      40.352    
  51.580      40.397      28.902      19.362      13.016      9.8411      8.6931      8.1352      7.9361      8.1353    
  8.6931      9.8407      13.015      19.361      28.902      40.399      51.584      59.779      62.792      59.775    
  72.835      59.788      44.524      30.285      19.361      12.649      9.6148      8.6265      8.1855      8.1856    
  8.6265      9.6145      12.648      19.361      30.286      44.526      59.790      72.837      80.400      80.400    
  93.260      80.397      62.805      44.525      28.901      17.854      11.694      9.2727      8.5371      8.2892    
  8.5373      9.2727      11.694      17.855      28.902      44.526      62.804      80.393      93.257      97.993    
  108.20      97.989      80.397      59.791      40.399      25.164      15.342      10.518      8.9424      8.4480    
  8.4481      8.9426      10.518      15.342      25.165      40.399      59.790      80.393      97.985      108.20    
  83.258      79.209      68.207      53.175      37.617      24.457      15.348      10.462      8.6359      7.9968    
  7.7685      7.9968      8.6359      10.462      15.348      24.457      37.617      53.175      68.207      79.209    
  79.210      79.209      71.682      58.708      43.549      29.435      18.639      12.038      9.0792      8.1215    
  7.6910      7.6909      8.1215      9.0793      12.038      18.638      29.434      43.550      58.710      71.685    
  68.209      71.703      68.207      58.708      45.737      32.359      21.154      13.560      9.6391      8.2259    
  7.6443      7.4343      7.6441      8.2258      9.6393      13.559      21.153      32.359      45.738      58.710    
  53.174      58.765      58.765      53.175      43.549      32.359      22.095      14.496      10.124      8.3229    
  7.6218      7.2491      7.2490      7.6217      8.3231      10.124      14.496      22.095      32.358      43.548    
  37.614      43.650      45.876      43.652      37.617      29.435      21.154      14.496      10.316      8.3927    
  7.6138      7.1364      6.9716      7.1364      7.6138      8.3929      10.317      14.496      21.154      29.433    
  24.456      29.583      32.590      32.591      29.584      24.457      18.639      13.560      10.124      8.3927    
  7.6121      7.0853      6.8144      6.8144      7.0853      7.6119      8.3926      10.125      13.561      18.640    
  15.350      18.825      21.469      22.455      21.468      18.824      15.348      12.038      9.6391      8.3229    
  7.6138      7.0853      6.7644      6.6591      6.7646      7.0851      7.6129      8.3221      9.6393      12.039    
  10.462      12.241      13.926      14.953      14.952      13.924      12.239      10.462      9.0792      8.2258    
  7.6218      7.1364      6.8144      6.6591      6.6592      6.8147      7.1364      7.6209      8.2243      9.0779    
  8.6337      9.2774      10.018      10.627      10.864      10.627      10.018      9.2788      8.6359      8.1215    
  7.6443      7.2491      6.9716      6.8144      6.7646      6.8147      6.9722      7.2499      7.6443      8.1201    
  7.9967      8.3106      8.5923      8.8294      8.9769      8.9772      8.8304      8.5938      8.3120      7.9968    
  7.6910      7.4343      7.2490      7.1364      7.0853      7.0851      7.1363      7.2499      7.4360      7.6923    
  7.7705      7.8769      7.9996      8.1173      8.2033      8.2353      8.2041      8.1181      7.9995      7.8754    
  7.7685      7.6909      7.6441      7.6217      7.6138      7.6119      7.6129      7.6209      7.6443      7.6923    
  7.9967      7.8769      7.7865      7.7382      7.7249      7.7268      7.7270      7.7250      7.7373      7.7848    
  7.8755      7.9968      8.1215      8.2258      8.3231      8.3929      8.3926      8.3221      8.2243      8.1201    
  8.6337      8.3106      7.9996      7.7382      7.5594      7.4636      7.4346      7.4634      7.5588      7.7374    
  7.9996      8.3121      8.6359      9.0793      9.6393      10.124      10.317      10.125      9.6393      9.0779    
  10.462      9.2774      8.5923      8.1173      7.7249      7.4636      7.3385      7.3384      7.4633      7.7250    
  8.1181      8.5938      9.2787      10.462      12.038      13.559      14.496      14.496      13.561      12.039    
  15.350      12.241      10.018      8.8294      8.2033      7.7268      7.4346      7.3384      7.4345      7.7270    
  8.2041      8.8302      10.017      12.239      15.348      18.638      21.153      22.095      21.154      18.640    
  24.456      18.825      13.926      10.627      8.9769      8.2353      7.7270      7.4634      7.4633      7.7270    
  8.2356      8.9770      10.626      13.925      18.824      24.457      29.434      32.359      32.358      29.433    
  37.614      29.583      21.469      14.953      10.864      8.9772      8.2041      7.7250      7.5588      7.7250    
  8.2041      8.9770      10.863      14.952      21.469      29.584      37.617      43.550      45.738      43.548    
  53.174      43.650      32.590      22.455      14.952      10.627      8.8304      8.1181      7.7373      7.7374    
  8.1181      8.8302      10.626      14.952      22.456      32.592      43.651      53.175      58.710      58.710    
  68.209      58.765      45.876      32.591      21.468      13.924      10.018      8.5938      7.9995      7.7848    
  7.9996      8.5938      10.017      13.925      21.469      32.592      45.875      58.763      68.207      71.685    
  79.210      71.703      58.765      43.652      29.584      18.824      12.239      9.2788      8.3120      7.8754    
  7.8755      8.3121      9.2787      12.239      18.824      29.584      43.651      58.763      71.700      79.209    
  53.782      51.146      43.999      34.305      24.453      16.429      11.254      8.7763      7.8531      7.3363    
  7.1548      7.3363      7.8531      8.7763      11.254      16.429      24.453      34.305      43.999      51.146    
  51.146      51.146      46.239      37.824      28.119      19.337      12.977      9.4425      8.0261      7.3873    
  7.0421      7.0420      7.3873      8.0262      9.4426      12.977      19.337      28.120      37.826      46.241    
  44.000      46.280      43.999      37.824      29.482      21.076      14.344      10.132      8.2002      7.4294    
  6.9596      6.7970      6.9594      7.4294      8.2004      10.132      14.344      21.076      29.483      37.825    
  34.305      37.932      37.932      34.305      28.119      21.076      14.865      10.574      8.3573      7.4548    
  6.9056      6.6182      6.6181      6.9055      7.4548      8.3574      10.573      14.864      21.075      28.118    
  24.451      28.299      29.729      28.300      24.453      19.337      14.344      10.574      8.4223      7.4652    
  6.8757      6.5065      6.3834      6.5065      6.8757      7.4652      8.4226      10.574      14.344      19.336    
  16.429      19.577      21.457      21.457      19.578      16.429      12.977      10.132      8.3573      7.4652    
  6.8663      6.4541      6.2513      6.2514      6.4542      6.8662      7.4651      8.3578      10.133      12.978    
  11.255      13.254      14.822      15.416      14.822      13.253      11.254      9.4425      8.2002      7.4547    
  6.8757      6.4541      6.2094      6.1308      6.2095      6.4540      6.8754      7.4544      8.2004      9.4433    
  8.7762      9.7267      10.654      11.232      11.231      10.653      9.7260      8.7763      8.0261      7.4294    
  6.9056      6.5065      6.2513      6.1308      6.1308      6.2514      6.5064      6.9051      7.4286      8.0254    
  7.8519      8.2986      8.7214      9.0538      9.1819      9.0535      8.7214      8.2994      7.8531      7.3873    
  6.9596      6.6182      6.3834      6.2514      6.2095      6.2514      6.3837      6.6186      6.9596      7.3865    
  7.3363      7.6458      7.9291      8.1445      8.2602      8.2603      8.1449      7.9299      7.6465      7.3363    
  7.0421      6.7970      6.6181      6.5065      6.4542      6.4540      6.5064      6.6186      6.7980      7.0428    
  7.1559      7.2935      7.4413      7.5766      7.6728      7.7078      7.6732      7.5770      7.4412      7.2927    
  7.1548      7.0420      6.9594      6.9055      6.8757      6.8662      6.8753      6.9051      6.9596      7.0428    
  7.3363      7.2935      7.2725      7.2770      7.2968      7.3138      7.3139      7.2969      7.2765      7.2716    
  7.2928      7.3363      7.3873      7.4294      7.4548      7.4652      7.4651      7.4544      7.4286      7.3865    
  7.8519      7.6458      7.4413      7.2770      7.1704      7.1166      7.1012      7.1166      7.1702      7.2766    
  7.4413      7.6466      7.8531      8.0262      8.2004      8.3574      8.4226      8.3578      8.2004      8.0254    
  8.7762      8.2986      7.9291      7.5766      7.2968      7.1166      7.0324      7.0323      7.1165      7.2968    
  7.5771      7.9299      8.2993      8.7763      9.4426      10.132      10.573      10.574      10.133      9.4433    
  11.255      9.7267      8.7214      8.1445      7.6728      7.3138      7.1012      7.0323      7.1010      7.3138    
  7.6732      8.1448      8.7213      9.7259      11.254      12.977      14.344      14.864      14.344      12.978    
  16.429      13.254      10.654      9.0538      8.2602      7.7078      7.3139      7.1166      7.1165      7.3138    
  7.7080      8.2603      9.0534      10.653      13.253      16.429      19.337      21.076      21.075      19.336    
  24.451      19.577      14.822      11.232      9.1819      8.2603      7.6732      7.2969      7.1702      7.2968    
  7.6732      8.2603      9.1817      11.231      14.822      19.578      24.453      28.120      29.483      28.118    
  34.305      28.299      21.457      15.416      11.231      9.0535      8.1449      7.5770      7.2765      7.2766    
  7.5771      8.1448      9.0534      11.231      15.417      21.458      28.299      34.305      37.826      37.825    
  44.000      37.932      29.729      21.458      14.822      10.653      8.7214      7.9299      7.4412      7.2716    
  7.4413      7.9299      8.7213      10.653      14.822      21.458      29.729      37.930      43.999      46.241    
  51.146      46.280      37.932      28.300      19.578      13.253      9.7260      8.2994      7.6465      7.2927    
  7.2928      7.6466      8.2993      9.7259      13.253      19.578      28.299      37.930      46.279      51.146    
  30.759      29.282      25.313      20.041      14.898      11.005      8.7684      7.7708      7.1649      6.7797    
  6.6505      6.7797      7.1649      7.7708      8.7684      11.005      14.898      20.041      25.313      29.282    
  29.283      29.282      26.537      21.898      16.713      12.282      9.3684      7.9370      7.2377      6.7494    
  6.5006      6.5006      6.7493      7.2378      7.9372      9.3685      12.282      16.713      21.898      26.537    
  25.313      26.588      25.313      21.898      17.399      13.074      9.8793      8.1034      7.2806      6.7236    
  6.3793      6.2652      6.3792      6.7236      7.2808      8.1035      9.8792      13.074      17.399      21.898    
  20.041      22.033      22.033      20.041      16.713      13.074      10.081      8.2170      7.2975      6.7018    
  6.2905      6.0878      6.0877      6.2904      6.7017      7.2975      8.2169      10.080      13.074      16.713    
  14.898      16.936      17.706      16.936      14.898      12.282      9.8793      8.2170      7.3015      6.6884    
  6.2363      5.9717      5.8863      5.9717      6.2363      6.6883      7.3015      8.2171      9.8793      12.282    
  11.005      12.575      13.541      13.541      12.575      11.005      9.3684      8.1034      7.2975      6.6884    
  6.2180      5.9149      5.7712      5.7713      5.9150      6.2180      6.6883      7.2976      8.1038      9.3687    
  8.7688      9.7013      10.457      10.748      10.457      9.7011      8.7684      7.9370      7.2806      6.7018    
  6.2363      5.9149      5.7341      5.6769      5.7343      5.9149      6.2362      6.7017      7.2808      7.9374    
  7.7707      8.2802      8.7335      9.0115      9.0113      8.7332      8.2800      7.7708      7.2377      6.7236    
  6.2905      5.9717      5.7712      5.6769      5.6769      5.7712      5.9716      6.2904      6.7234      7.2374    
  7.1644      7.5740      7.9189      8.1479      8.2285      8.1477      7.9189      7.5743      7.1649      6.7494    
  6.3793      6.0878      5.8863      5.7713      5.7343      5.7712      5.8863      6.0879      6.3793      6.7490    
  6.7797      7.0755      7.3508      7.5643      7.6811      7.6811      7.5644      7.3510      7.0757      6.7797    
  6.5006      6.2652      6.0877      5.9717      5.9150      5.9149      5.9716      6.0879      6.2656      6.5009    
  6.6509      6.8207      6.9943      7.1482      7.2554      7.2940      7.2555      7.1482      6.9942      6.8204    
  6.6505      6.5006      6.3792      6.2904      6.2363      6.2180      6.2362      6.2904      6.3793      6.5009    
  6.7797      6.8207      6.8756      6.9398      6.9993      7.0357      7.0358      6.9994      6.9397      6.8752    
  6.8204      6.7797      6.7493      6.7236      6.7017      6.6883      6.6883      6.7017      6.7234      6.7490    
  7.1644      7.0755      6.9943      6.9398      6.9158      6.9117      6.9126      6.9118      6.9158      6.9397    
  6.9943      7.0758      7.1649      7.2378      7.2808      7.2975      7.3015      7.2976      7.2808      7.2374    
  7.7707      7.5740      7.3508      7.1482      6.9993      6.9117      6.8740      6.8740      6.9117      6.9994    
  7.1483      7.3510      7.5743      7.7708      7.9372      8.1035      8.2169      8.2171      8.1038      7.9374    
  8.7688      8.2802      7.9189      7.5643      7.2554      7.0357      6.9126      6.8740      6.9125      7.0357    
  7.2555      7.5644      7.9188      8.2799      8.7684      9.3685      9.8792      10.080      9.8793      9.3687    
  11.005      9.7013      8.7335      8.1479      7.6811      7.2940      7.0358      6.9118      6.9117      7.0357    
  7.2940      7.6811      8.1478      8.7331      9.7010      11.005      12.282      13.074      13.074      12.282    
  14.898      12.575      10.457      9.0115      8.2285      7.6811      7.2555      6.9994      6.9158      6.9994    
  7.2555      7.6811      8.2285      9.0114      10.457      12.575      14.898      16.713      17.399      16.713    
  20.041      16.936      13.541      10.748      9.0113      8.1477      7.5644      7.1482      6.9397      6.9397    
  7.1483      7.5644      8.1478      9.0114      10.748      13.541      16.936      20.041      21.898      21.898    
  25.313      22.033      17.706      13.541      10.457      8.7332      7.9189      7.3510      6.9942      6.8752    
  6.9943      7.3510      7.9188      8.7331      10.457      13.541      17.706      22.032      25.313      26.537    
  29.283      26.588      22.033      16.936      12.575      9.7011      8.2801      7.5743      7.0757      6.8204    
  6.8204      7.0758      7.5743      8.2799      9.7010      12.575      16.936      22.032      26.587      29.282    
  16.337      15.682      13.956      11.761      9.7767      8.4256      7.6575      7.0825      6.6507      6.3955    
  6.3128      6.3955      6.6507      7.0825      7.6575      8.4256      9.7767      11.761      13.956      15.682    
  15.682      15.682      14.468      12.479      10.383      8.7484      7.7609      7.1281      6.6231      6.2862    
  6.1233      6.1232      6.2862      6.6231      7.1283      7.7611      8.7485      10.383      12.479      14.468    
  13.956      14.519      13.956      12.479      10.620      8.9635      7.8425      7.1502      6.5974      6.1967    