   2   2   0   0
  0.8697816E+01  0.2236800E-09  0.2236800E-09  0.4014720E-09  0.5000000E-15
  1.000000000000000E-004
  CAR 
 unknown system                          
     79.52316018     -4.79476069  301      8.86030891      1.00000000
     -4.795  0.0000E+00  0.0000E+00
     -4.514  0.0000E+00  0.0000E+00
     -4.233  0.0000E+00  0.0000E+00
     -3.952  0.0000E+00  0.0000E+00
     -3.671  0.0000E+00  0.0000E+00
     -3.389  0.0000E+00  0.0000E+00
     -3.108  0.0000E+00  0.0000E+00
     -2.827 -0.2372E-39 -0.6667E-40
     -2.546 -0.6774E-29 -0.1904E-29
     -2.265 -0.3617E-20 -0.1016E-20
     -1.984 -0.3446E-13 -0.9686E-14
     -1.703 -0.6073E-08 -0.1707E-08
     -1.422 -0.1834E-04 -0.5157E-05
     -1.141 -0.4149E-03 -0.1218E-03
     -0.860  0.8782E-02  0.2346E-02
     -0.579  0.4142E-01  0.1399E-01
     -0.298  0.9406E-01  0.4043E-01
     -0.017  0.5303E-01  0.5533E-01
      0.264  0.1254E+00  0.9057E-01
      0.545  0.1530E+00  0.1336E+00
      0.826  0.1878E+00  0.1864E+00
      1.107  0.8911E-01  0.2114E+00
      1.389  0.1657E+00  0.2580E+00
      1.670  0.3102E+00  0.3451E+00
      1.951  0.2688E+00  0.4207E+00
      2.232  0.3319E+00  0.5140E+00
      2.513  0.2214E+00  0.5762E+00
      2.794  0.5006E+00  0.7169E+00
      3.075  0.1762E+01  0.1212E+01
      3.356  0.1837E+01  0.1728E+01
      3.637  0.2188E+01  0.2343E+01
      3.918  0.2277E+01  0.2983E+01
      4.199  0.2626E+01  0.3721E+01
      4.480  0.2009E+01  0.4286E+01
      4.761  0.2324E+01  0.4939E+01
      5.042  0.2699E+01  0.5698E+01
      5.323  0.2585E+01  0.6424E+01
      5.604  0.2567E+01  0.7146E+01
      5.886  0.1969E+01  0.7699E+01
      6.167  0.1799E+01  0.8205E+01
      6.448  0.3250E+01  0.9118E+01
      6.729  0.2899E+01  0.9933E+01
      7.010  0.3081E+01  0.1080E+02
      7.291  0.3119E+01  0.1168E+02
      7.572  0.2706E+01  0.1244E+02
      7.853  0.3071E+01  0.1330E+02
      8.134  0.2737E+01  0.1407E+02
      8.415  0.2573E+01  0.1479E+02
      8.696  0.2882E+01  0.1560E+02
      8.977  0.2351E+01  0.1626E+02
      9.258  0.2424E+01  0.1694E+02
      9.539  0.3473E+01  0.1792E+02
      9.820  0.4041E+01  0.1906E+02
     10.101  0.3288E+01  0.1998E+02
     10.382  0.3431E+01  0.2094E+02
     10.664  0.1076E+01  0.2125E+02
     10.945  0.1358E+00  0.2128E+02
     11.226  0.4862E+00  0.2142E+02
     11.507  0.4920E+00  0.2156E+02
     11.788  0.6008E+00  0.2173E+02
     12.069  0.7661E+00  0.2194E+02
     12.350  0.4891E+00  0.2208E+02
     12.631  0.3924E+00  0.2219E+02
     12.912  0.2875E+00  0.2227E+02
     13.193  0.3957E+00  0.2238E+02
     13.474  0.3569E+00  0.2248E+02
     13.755  0.4594E+00  0.2261E+02
     14.036  0.5854E+00  0.2278E+02
     14.317  0.3363E+00  0.2287E+02
     14.598  0.4568E+00  0.2300E+02
     14.879  0.4648E+00  0.2313E+02
     15.160  0.1843E+00  0.2318E+02
     15.442  0.2514E+00  0.2325E+02
     15.723  0.3382E+00  0.2335E+02
     16.004  0.3521E+00  0.2345E+02
     16.285  0.3643E+00  0.2355E+02
     16.566  0.1463E+00  0.2359E+02
     16.847  0.3214E+00  0.2368E+02
     17.128  0.3913E+00  0.2379E+02
     17.409  0.3446E+00  0.2389E+02
     17.690  0.2721E+00  0.2396E+02
     17.971  0.2224E+00  0.2403E+02
     18.252  0.2467E+00  0.2410E+02
     18.533  0.1322E+00  0.2413E+02
     18.814  0.1070E+00  0.2416E+02
     19.095  0.2111E+00  0.2422E+02
     19.376  0.3772E+00  0.2433E+02
     19.657  0.3014E+00  0.2441E+02
     19.938  0.3748E+00  0.2452E+02
     20.220  0.4953E+00  0.2466E+02
     20.501  0.9395E+00  0.2492E+02
     20.782  0.7352E+00  0.2513E+02
     21.063  0.7638E+00  0.2534E+02
     21.344  0.3984E+00  0.2546E+02
     21.625  0.5341E+00  0.2561E+02
     21.906  0.5450E+00  0.2576E+02
     22.187  0.6691E+00  0.2595E+02
     22.468  0.7865E+00  0.2617E+02
     22.749  0.7237E+00  0.2637E+02
     23.030  0.8108E+00  0.2660E+02
     23.311  0.2734E+00  0.2668E+02
     23.592  0.6679E+00  0.2686E+02
     23.873  0.7390E+00  0.2707E+02
     24.154  0.5904E+00  0.2724E+02
     24.435  0.6104E+00  0.2741E+02
     24.717  0.4695E+00  0.2754E+02
     24.998  0.7473E+00  0.2775E+02
     25.279  0.3387E+00  0.2785E+02
     25.560  0.6865E+00  0.2804E+02
     25.841  0.7596E+00  0.2825E+02
     26.122  0.5262E+00  0.2840E+02
     26.403  0.5415E+00  0.2855E+02
     26.684  0.6514E+00  0.2874E+02
     26.965  0.5825E+00  0.2890E+02
     27.246  0.8515E+00  0.2914E+02
     27.527  0.1139E+01  0.2946E+02
     27.808  0.9139E+00  0.2972E+02
     28.089  0.5780E+00  0.2988E+02
     28.370  0.7555E+00  0.3009E+02
     28.651  0.6123E+00  0.3026E+02
     28.932  0.8465E+00  0.3050E+02
     29.213  0.1289E+01  0.3086E+02
     29.495  0.6481E+00  0.3105E+02
     29.776  0.9108E+00  0.3130E+02
     30.057  0.8011E+00  0.3153E+02
     30.338  0.6406E+00  0.3171E+02
     30.619  0.1392E+01  0.3210E+02
     30.900  0.1075E+01  0.3240E+02
     31.181  0.7634E+00  0.3261E+02
     31.462  0.4402E+00  0.3274E+02
     31.743  0.6457E+00  0.3292E+02
     32.024  0.1169E+01  0.3325E+02
     32.305  0.7076E+00  0.3345E+02
     32.586  0.8483E+00  0.3369E+02
     32.867  0.1001E+01  0.3397E+02
     33.148  0.7441E+00  0.3418E+02
     33.429  0.6107E+00  0.3435E+02
     33.710  0.6123E+00  0.3452E+02
     33.991  0.8681E+00  0.3476E+02
     34.273  0.5309E+00  0.3491E+02
     34.554  0.5570E+00  0.3507E+02
     34.835  0.5429E+00  0.3522E+02
     35.116  0.7389E+00  0.3543E+02
     35.397  0.7323E+00  0.3564E+02
     35.678  0.4620E+00  0.3577E+02
     35.959  0.6439E+00  0.3595E+02
     36.240  0.6015E+00  0.3612E+02
     36.521  0.7036E+00  0.3631E+02
     36.802  0.7250E+00  0.3652E+02
     37.083  0.7336E+00  0.3672E+02
     37.364  0.5727E+00  0.3688E+02
     37.645  0.8025E+00  0.3711E+02
     37.926  0.4290E+00  0.3723E+02
     38.207  0.7812E+00  0.3745E+02
     38.488  0.9533E+00  0.3772E+02
     38.769  0.9698E+00  0.3799E+02
     39.051  0.9597E+00  0.3826E+02
     39.332  0.7853E+00  0.3848E+02
     39.613  0.5275E+00  0.3863E+02
     39.894  0.1135E+01  0.3895E+02
     40.175  0.9511E+00  0.3922E+02
     40.456  0.6961E+00  0.3941E+02
     40.737  0.7901E+00  0.3963E+02
     41.018  0.1299E+01  0.4000E+02
     41.299  0.9321E+00  0.4026E+02
     41.580  0.1069E+01  0.4056E+02
     41.861  0.8988E+00  0.4081E+02
     42.142  0.9022E+00  0.4107E+02
     42.423  0.7487E+00  0.4128E+02
     42.704  0.6203E+00  0.4145E+02
     42.985  0.4435E+00  0.4158E+02
     43.266  0.7878E+00  0.4180E+02
     43.548  0.9089E+00  0.4205E+02
     43.829  0.4844E+00  0.4219E+02
     44.110  0.5405E+00  0.4234E+02
     44.391  0.7058E+00  0.4254E+02
     44.672  0.1104E+01  0.4285E+02
     44.953  0.8375E+00  0.4309E+02
     45.234  0.6865E+00  0.4328E+02
     45.515  0.7247E+00  0.4348E+02
     45.796  0.7161E+00  0.4368E+02
     46.077  0.6129E+00  0.4386E+02
     46.358  0.7270E+00  0.4406E+02
     46.639  0.7569E+00  0.4427E+02
     46.920  0.6445E+00  0.4445E+02
     47.201  0.1207E+01  0.4479E+02
     47.482  0.8873E+00  0.4504E+02
     47.763  0.1145E+01  0.4536E+02
     48.044  0.1323E+01  0.4574E+02
     48.326  0.7142E+00  0.4594E+02
     48.607  0.1087E+01  0.4624E+02
     48.888  0.8299E+00  0.4648E+02
     49.169  0.1316E+01  0.4685E+02
     49.450  0.1161E+01  0.4717E+02
     49.731  0.1100E+01  0.4748E+02
     50.012  0.9826E+00  0.4776E+02
     50.293  0.6916E+00  0.4795E+02
     50.574  0.8100E+00  0.4818E+02
     50.855  0.8659E+00  0.4842E+02
     51.136  0.9475E+00  0.4869E+02
     51.417  0.9692E+00  0.4896E+02
     51.698  0.1042E+01  0.4925E+02
     51.979  0.6562E+00  0.4944E+02
     52.260  0.5363E+00  0.4959E+02
     52.541  0.7436E+00  0.4980E+02
     52.822  0.1299E+01  0.5016E+02
     53.104  0.1012E+01  0.5045E+02
     53.385  0.7001E+00  0.5064E+02
     53.666  0.7191E+00  0.5085E+02
     53.947  0.1134E+01  0.5116E+02
     54.228  0.1222E+01  0.5151E+02
     54.509  0.8191E+00  0.5174E+02
     54.790  0.6726E+00  0.5193E+02
     55.071  0.9968E+00  0.5221E+02
     55.352  0.9504E+00  0.5247E+02
     55.633  0.1026E+01  0.5276E+02
     55.914  0.7382E+00  0.5297E+02
     56.195  0.1125E+01  0.5329E+02
     56.476  0.1615E+01  0.5374E+02
     56.757  0.1072E+01  0.5404E+02
     57.038  0.1218E+01  0.5438E+02
     57.319  0.1304E+01  0.5475E+02
     57.601  0.9820E+00  0.5503E+02
     57.882  0.9371E+00  0.5529E+02
     58.163  0.1576E+01  0.5573E+02
     58.444  0.7652E+00  0.5595E+02
     58.725  0.7359E+00  0.5616E+02
     59.006  0.1161E+01  0.5648E+02
     59.287  0.1255E+01  0.5683E+02
     59.568  0.1338E+01  0.5721E+02
     59.849  0.1145E+01  0.5753E+02
     60.130  0.1416E+01  0.5793E+02
     60.411  0.1300E+01  0.5830E+02
     60.692  0.1579E+01  0.5874E+02
     60.973  0.1311E+01  0.5911E+02
     61.254  0.1664E+01  0.5958E+02
     61.535  0.1552E+01  0.6001E+02
     61.816  0.1248E+01  0.6036E+02
     62.097  0.2053E+01  0.6094E+02
     62.379  0.2076E+01  0.6152E+02
     62.660  0.2088E+01  0.6211E+02
     62.941  0.1652E+01  0.6257E+02
     63.222  0.2075E+01  0.6316E+02
     63.503  0.1833E+01  0.6367E+02
     63.784  0.2208E+01  0.6429E+02
     64.065  0.3072E+01  0.6516E+02
     64.346  0.2585E+01  0.6588E+02
     64.627  0.2217E+01  0.6651E+02
     64.908  0.1896E+01  0.6704E+02
     65.189  0.1704E+01  0.6752E+02
     65.470  0.1310E+01  0.6789E+02
     65.751  0.1652E+01  0.6835E+02
     66.032  0.1858E+01  0.6887E+02
     66.313  0.1095E+01  0.6918E+02
     66.594  0.1101E+01  0.6949E+02
     66.875  0.9927E+00  0.6977E+02
     67.157  0.1628E+01  0.7023E+02
     67.438  0.1512E+01  0.7065E+02
     67.719  0.1075E+01  0.7095E+02
     68.000  0.1468E+01  0.7137E+02
     68.281  0.1186E+01  0.7170E+02
     68.562  0.1410E+01  0.7210E+02
     68.843  0.1562E+01  0.7254E+02
     69.124  0.1368E+01  0.7292E+02
     69.405  0.1306E+01  0.7329E+02
     69.686  0.1167E+01  0.7362E+02
     69.967  0.1091E+01  0.7392E+02
     70.248  0.1387E+01  0.7431E+02
     70.529  0.1363E+01  0.7469E+02
     70.810  0.1360E+01  0.7508E+02
     71.091  0.1905E+01  0.7561E+02
     71.372  0.1206E+01  0.7595E+02
     71.653  0.9814E+00  0.7623E+02
     71.935  0.1168E+01  0.7656E+02
     72.216  0.1776E+01  0.7705E+02
     72.497  0.1675E+01  0.7753E+02
     72.778  0.7863E+00  0.7775E+02
     73.059  0.9339E+00  0.7801E+02
     73.340  0.1257E+01  0.7836E+02
     73.621  0.8297E+00  0.7860E+02
     73.902  0.1268E+01  0.7895E+02
     74.183  0.9174E+00  0.7921E+02
     74.464  0.9579E+00  0.7948E+02
     74.745  0.6281E+00  0.7966E+02
     75.026  0.6687E+00  0.7984E+02
     75.307  0.4002E+00  0.7996E+02
     75.588  0.1198E+00  0.7999E+02
     75.869  0.3856E-01  0.8000E+02
     76.150 -0.1276E-02  0.8000E+02
     76.432 -0.8785E-04  0.8000E+02
     76.713 -0.3410E-07  0.8000E+02
     76.994 -0.2029E-12  0.8000E+02
     77.275  0.0000E+00  0.8000E+02
     77.556  0.0000E+00  0.8000E+02
     77.837  0.0000E+00  0.8000E+02
     78.118  0.0000E+00  0.8000E+02
     78.399  0.0000E+00  0.8000E+02
     78.680  0.0000E+00  0.8000E+02
     78.961  0.0000E+00  0.8000E+02
     79.242  0.0000E+00  0.8000E+02
     79.523  0.0000E+00  0.8000E+02
