 vasp.6.2.0 18Jan21 (build Mar 17 2021 09:06:54) complex                        
  
 executed on             LinuxIFC date 2021.09.09  11:58:41
 serial version


--------------------------------------------------------------------------------------------------------


 INCAR:
   ENCUT = 280.000000
   SIGMA = 0.200000
   EDIFF = 1.00e-06
   GGA = PE
   PREC = normal
   IBRION = 1
   ICHARG = 1
   ISIF = 2
   ISMEAR = 1
   KPAR = 1
   NBANDS = 40
   NSW = 0
   NCORE = 1
   LCHARG = .TRUE.

 POTCAR:    PAW_PBE Fe 06Sep2000                  
 POTCAR:    PAW_PBE Fe 06Sep2000                  
   SHA256 =  cd5a22d9368cc8b5cc476bea79732366149640da08ac9009b0e1b7fc627eea28 Fe/POTCAR             
   COPYR  = (c) Copyright 06Sep2000 Georg Kresse                                                    
   COPYR  = This file is part of the software VASP. Any use, copying, and all other rights are regul
   COPYR  = If you do not have a valid VASP license, you may not use, copy or distribute this file. 
   VRHFIN =Fe:  d7 s1                                                                               
   LEXCH  = PE                                                                                      
   EATOM  =   594.3153 eV,   43.6809 Ry                                                             
                                                                                                    
   TITEL  = PAW_PBE Fe 06Sep2000                                                                    
   LULTRA =        F    use ultrasoft PP ?                                                          
   IUNSCR =        1    unscreen: 0-lin 1-nonlin 2-no                                               
   RPACOR =    2.000    partial core radius                                                         
   POMASS =   55.847; ZVAL   =    8.000    mass and valenz                                          
   RCORE  =    2.300    outmost cutoff radius                                                       
   RWIGS  =    2.460; RWIGS  =    1.302    wigner-seitz radius (au A)                               
   ENMAX  =  267.882; ENMIN  =  200.911 eV                                                          
   RCLOC  =    1.701    cutoff for local pot                                                        
   LCOR   =        T    correct aug charges                                                         
   LPAW   =        T    paw PP                                                                      
   EAUG   =  511.368                                                                                
   DEXC   =    0.000                                                                                
   RMAX   =    2.356    core radius for proj-oper                                                   
   RAUG   =    1.300    factor for augmentation sphere                                              
   RDEP   =    2.442    radius for radial grids                                                     
   RDEPT  =    1.890    core radius for aug-charge                                                  
                                                                                                    
   Atomic configuration                                                                             
    9 entries                                                                                       
     n  l   j            E        occ.                                                              
     1  0  0.50     -6993.8440   2.0000                                                             
     2  0  0.50      -814.6047   2.0000                                                             
     2  1  1.50      -693.3689   6.0000                                                             
     3  0  0.50       -89.4732   2.0000                                                             
     3  1  1.50       -55.6373   6.0000                                                             
     3  2  2.50        -3.8151   7.0000                                                             
     4  0  0.50        -4.2551   1.0000                                                             
     4  1  1.50        -3.4015   0.0000                                                             
     4  3  2.50        -1.3606   0.0000                                                             
   Description                                                                                      
     l       E           TYP  RCUT    TYP  RCUT                                                     
     2     -3.8151135     23  2.300                                                                 
     2     -5.1756961     23  2.300                                                                 
     0     -4.2550963     23  2.300                                                                 
     0      7.2035603     23  2.300                                                                 
     1     -2.7211652     23  2.300                                                                 
     1     18.4316424     23  2.300                                                                 
  local pseudopotential read in
  partial core-charges read in
  partial kinetic energy density read in
  atomic valenz-charges read in
  non local Contribution for L=           2  read in
    real space projection operators read in
  non local Contribution for L=           2  read in
    real space projection operators read in
  non local Contribution for L=           0  read in
    real space projection operators read in
  non local Contribution for L=           0  read in
    real space projection operators read in
  non local Contribution for L=           1  read in
    real space projection operators read in
  non local Contribution for L=           1  read in
    real space projection operators read in
    PAW grid and wavefunctions read in
 
   number of l-projection  operators is LMAX  =           6
   number of lm-projection operators is LMMAX =          18
 
  PAW_PBE Fe 06Sep2000                  :
 energy of atom  1       EATOM= -594.3153
 kinetic energy error for atom=    0.0278 (will be added to EATOM!!)
 
 
 POSCAR: Fe
  positions in cartesian coordinates
  No initial velocities read in
 exchange correlation table for  LEXCH =        8
   RHO(1)=    0.500       N(1)  =     2000
   RHO(2)=  100.500       N(2)  =     4000
 


--------------------------------------------------------------------------------------------------------


 ion  position               nearest neighbor table
   1  0.000  0.000  0.000-   2 2.39   2 2.39   2 2.39   2 2.39   2 2.39   2 2.39
   2  0.333  0.667  0.500-   1 2.39   1 2.39   1 2.39   1 2.39   1 2.39   1 2.39
 
  LATTYP: Found a hexagonal cell.
 ALAT       =     2.2368000000
 C/A-ratio  =     1.7948497854
  
  Lattice vectors:
  
 A1 = (   2.2368000000,   0.0000000000,   0.0000000000)
 A2 = (  -1.1184000000,   1.9371256232,   0.0000000000)
 A3 = (   0.0000000000,   0.0000000000,   4.0147200000)


Analysis of symmetry for initial positions (statically):
=====================================================================
 Subroutine PRICEL returns:
 Original cell was already a primitive cell.
 

 Routine SETGRP: Setting up the symmetry group for a 
 hexagonal supercell.


 Subroutine GETGRP returns: Found 24 space group operations
 (whereof 12 operations were pure point group operations)
 out of a pool of 24 trial point group operations.


The static configuration has the point symmetry D_3h.
 The point group associated with its full space group is D_6h.


Analysis of symmetry for dynamics (positions and initial velocities):
=====================================================================
 Subroutine PRICEL returns:
 Original cell was already a primitive cell.
 

 Routine SETGRP: Setting up the symmetry group for a 
 hexagonal supercell.


 Subroutine GETGRP returns: Found 24 space group operations
 (whereof 12 operations were pure point group operations)
 out of a pool of 24 trial point group operations.


The dynamic configuration has the point symmetry D_3h.
 The point group associated with its full space group is D_6h.


 Subroutine INISYM returns: Found 24 space group operations
 (whereof 12 operations are pure point group operations),
 and found     1 'primitive' translations


----------------------------------------------------------------------------------------

                                     Primitive cell                                     

  volume of cell :      17.3956

  direct lattice vectors                    reciprocal lattice vectors
     2.236800000  0.000000000  0.000000000     0.447067239  0.258114391  0.000000000
    -1.118400000  1.937125623  0.000000000     0.000000000  0.516228781  0.000000000
     0.000000000  0.000000000  4.014720000     0.000000000  0.000000000  0.249083373

  length of vectors
     2.236800000  2.236800000  4.014720000     0.516228781  0.516228781  0.249083373

  position of ions in fractional coordinates (direct lattice)
     0.000000000  0.000000000  0.000000000
     0.333333333  0.666666667  0.500000000

  ion indices of the primitive-cell ions
   primitive index   ion index
                 1           1
                 2           2

----------------------------------------------------------------------------------------

 
 
 KPOINTS: KPOINTS created by Atomic Simulation Env

Automatic generation of k-mesh.
 Grid dimensions read from file:
 generate k-points for:   11   11   11

 Generating k-lattice:

  Cartesian coordinates                     Fractional coordinates (reciprocal lattice)
     0.040642476  0.023464945  0.000000000     0.090909091 -0.000000000  0.000000000
     0.000000000  0.046929889  0.000000000     0.000000000  0.090909091  0.000000000
     0.000000000  0.000000000  0.022643943     0.000000000  0.000000000  0.090909091

  Length of vectors
     0.046929889  0.046929889  0.022643943

  Shift w.r.t. Gamma in fractional coordinates (k-lattice)
     0.000000000  0.000000000  0.000000000

 
 Subroutine IBZKPT returns following result:
 ===========================================
 
 Found     96 irreducible k-points:
 
 Following reciprocal coordinates:
            Coordinates               Weight
  0.000000  0.000000  0.000000      1.000000
  0.090909  0.000000  0.000000      6.000000
  0.181818  0.000000  0.000000      6.000000
  0.272727  0.000000  0.000000      6.000000
  0.363636  0.000000  0.000000      6.000000
  0.454545  0.000000  0.000000      6.000000
  0.090909  0.090909  0.000000      6.000000
  0.181818  0.090909  0.000000     12.000000
  0.272727  0.090909  0.000000     12.000000
  0.363636  0.090909  0.000000     12.000000
  0.454545  0.090909  0.000000      6.000000
  0.181818  0.181818  0.000000      6.000000
  0.272727  0.181818  0.000000     12.000000
  0.363636  0.181818  0.000000     12.000000
  0.272727  0.272727  0.000000      6.000000
  0.363636  0.272727  0.000000      6.000000
  0.000000  0.000000  0.090909      2.000000
  0.090909  0.000000  0.090909     12.000000
  0.181818  0.000000  0.090909     12.000000
  0.272727  0.000000  0.090909     12.000000
  0.363636  0.000000  0.090909     12.000000
  0.454545  0.000000  0.090909     12.000000
  0.090909  0.090909  0.090909     12.000000
  0.181818  0.090909  0.090909     24.000000
  0.272727  0.090909  0.090909     24.000000
  0.363636  0.090909  0.090909     24.000000
  0.454545  0.090909  0.090909     12.000000
  0.181818  0.181818  0.090909     12.000000
  0.272727  0.181818  0.090909     24.000000
  0.363636  0.181818  0.090909     24.000000
  0.272727  0.272727  0.090909     12.000000
  0.363636  0.272727  0.090909     12.000000
  0.000000  0.000000  0.181818      2.000000
  0.090909  0.000000  0.181818     12.000000
  0.181818  0.000000  0.181818     12.000000
  0.272727  0.000000  0.181818     12.000000
  0.363636  0.000000  0.181818     12.000000
  0.454545  0.000000  0.181818     12.000000
  0.090909  0.090909  0.181818     12.000000
  0.181818  0.090909  0.181818     24.000000
  0.272727  0.090909  0.181818     24.000000
  0.363636  0.090909  0.181818     24.000000
  0.454545  0.090909  0.181818     12.000000
  0.181818  0.181818  0.181818     12.000000
  0.272727  0.181818  0.181818     24.000000
  0.363636  0.181818  0.181818     24.000000
  0.272727  0.272727  0.181818     12.000000
  0.363636  0.272727  0.181818     12.000000
  0.000000  0.000000  0.272727      2.000000
  0.090909  0.000000  0.272727     12.000000
  0.181818  0.000000  0.272727     12.000000
  0.272727  0.000000  0.272727     12.000000
  0.363636  0.000000  0.272727     12.000000
  0.454545  0.000000  0.272727     12.000000
  0.090909  0.090909  0.272727     12.000000
  0.181818  0.090909  0.272727     24.000000
  0.272727  0.090909  0.272727     24.000000
  0.363636  0.090909  0.272727     24.000000
  0.454545  0.090909  0.272727     12.000000
  0.181818  0.181818  0.272727     12.000000
  0.272727  0.181818  0.272727     24.000000
  0.363636  0.181818  0.272727     24.000000
  0.272727  0.272727  0.272727     12.000000
  0.363636  0.272727  0.272727     12.000000
  0.000000  0.000000  0.363636      2.000000
  0.090909  0.000000  0.363636     12.000000
  0.181818  0.000000  0.363636     12.000000
  0.272727  0.000000  0.363636     12.000000
  0.363636  0.000000  0.363636     12.000000
  0.454545  0.000000  0.363636     12.000000
  0.090909  0.090909  0.363636     12.000000
  0.181818  0.090909  0.363636     24.000000
  0.272727  0.090909  0.363636     24.000000
  0.363636  0.090909  0.363636     24.000000
  0.454545  0.090909  0.363636     12.000000
  0.181818  0.181818  0.363636     12.000000
  0.272727  0.181818  0.363636     24.000000
  0.363636  0.181818  0.363636     24.000000
  0.272727  0.272727  0.363636     12.000000
  0.363636  0.272727  0.363636     12.000000
  0.000000  0.000000  0.454545      2.000000
  0.090909  0.000000  0.454545     12.000000
  0.181818  0.000000  0.454545     12.000000
  0.272727  0.000000  0.454545     12.000000
  0.363636  0.000000  0.454545     12.000000
  0.454545  0.000000  0.454545     12.000000
  0.090909  0.090909  0.454545     12.000000
  0.181818  0.090909  0.454545     24.000000
  0.272727  0.090909  0.454545     24.000000
  0.363636  0.090909  0.454545     24.000000
  0.454545  0.090909  0.454545     12.000000
  0.181818  0.181818  0.454545     12.000000
  0.272727  0.181818  0.454545     24.000000
  0.363636  0.181818  0.454545     24.000000
  0.272727  0.272727  0.454545     12.000000
  0.363636  0.272727  0.454545     12.000000
 
 Following cartesian coordinates:
            Coordinates               Weight
  0.000000  0.000000  0.000000      1.000000
  0.040642  0.023465  0.000000      6.000000
  0.081285  0.046930  0.000000      6.000000
  0.121927  0.070395  0.000000      6.000000
  0.162570  0.093860  0.000000      6.000000
  0.203212  0.117325  0.000000      6.000000
  0.040642  0.070395  0.000000      6.000000
  0.081285  0.093860  0.000000     12.000000
  0.121927  0.117325  0.000000     12.000000
  0.162570  0.140790  0.000000     12.000000
  0.203212  0.164255  0.000000      6.000000
  0.081285  0.140790  0.000000      6.000000
  0.121927  0.164255  0.000000     12.000000
  0.162570  0.187720  0.000000     12.000000
  0.121927  0.211185  0.000000      6.000000
  0.162570  0.234649  0.000000      6.000000
  0.000000  0.000000  0.022644      2.000000
  0.040642  0.023465  0.022644     12.000000
  0.081285  0.046930  0.022644     12.000000
  0.121927  0.070395  0.022644     12.000000
  0.162570  0.093860  0.022644     12.000000
  0.203212  0.117325  0.022644     12.000000
  0.040642  0.070395  0.022644     12.000000
  0.081285  0.093860  0.022644     24.000000
  0.121927  0.117325  0.022644     24.000000
  0.162570  0.140790  0.022644     24.000000
  0.203212  0.164255  0.022644     12.000000
  0.081285  0.140790  0.022644     12.000000
  0.121927  0.164255  0.022644     24.000000
  0.162570  0.187720  0.022644     24.000000
  0.121927  0.211185  0.022644     12.000000
  0.162570  0.234649  0.022644     12.000000
  0.000000  0.000000  0.045288      2.000000
  0.040642  0.023465  0.045288     12.000000
  0.081285  0.046930  0.045288     12.000000
  0.121927  0.070395  0.045288     12.000000
  0.162570  0.093860  0.045288     12.000000
  0.203212  0.117325  0.045288     12.000000
  0.040642  0.070395  0.045288     12.000000
  0.081285  0.093860  0.045288     24.000000
  0.121927  0.117325  0.045288     24.000000
  0.162570  0.140790  0.045288     24.000000
  0.203212  0.164255  0.045288     12.000000
  0.081285  0.140790  0.045288     12.000000
  0.121927  0.164255  0.045288     24.000000
  0.162570  0.187720  0.045288     24.000000
  0.121927  0.211185  0.045288     12.000000
  0.162570  0.234649  0.045288     12.000000
  0.000000  0.000000  0.067932      2.000000
  0.040642  0.023465  0.067932     12.000000
  0.081285  0.046930  0.067932     12.000000
  0.121927  0.070395  0.067932     12.000000
  0.162570  0.093860  0.067932     12.000000
  0.203212  0.117325  0.067932     12.000000
  0.040642  0.070395  0.067932     12.000000
  0.081285  0.093860  0.067932     24.000000
  0.121927  0.117325  0.067932     24.000000
  0.162570  0.140790  0.067932     24.000000
  0.203212  0.164255  0.067932     12.000000
  0.081285  0.140790  0.067932     12.000000
  0.121927  0.164255  0.067932     24.000000
  0.162570  0.187720  0.067932     24.000000
  0.121927  0.211185  0.067932     12.000000
  0.162570  0.234649  0.067932     12.000000
  0.000000  0.000000  0.090576      2.000000
  0.040642  0.023465  0.090576     12.000000
  0.081285  0.046930  0.090576     12.000000
  0.121927  0.070395  0.090576     12.000000
  0.162570  0.093860  0.090576     12.000000
  0.203212  0.117325  0.090576     12.000000
  0.040642  0.070395  0.090576     12.000000
  0.081285  0.093860  0.090576     24.000000
  0.121927  0.117325  0.090576     24.000000
  0.162570  0.140790  0.090576     24.000000
  0.203212  0.164255  0.090576     12.000000
  0.081285  0.140790  0.090576     12.000000
  0.121927  0.164255  0.090576     24.000000
  0.162570  0.187720  0.090576     24.000000
  0.121927  0.211185  0.090576     12.000000
  0.162570  0.234649  0.090576     12.000000
  0.000000  0.000000  0.113220      2.000000
  0.040642  0.023465  0.113220     12.000000
  0.081285  0.046930  0.113220     12.000000
  0.121927  0.070395  0.113220     12.000000
  0.162570  0.093860  0.113220     12.000000
  0.203212  0.117325  0.113220     12.000000
  0.040642  0.070395  0.113220     12.000000
  0.081285  0.093860  0.113220     24.000000
  0.121927  0.117325  0.113220     24.000000
  0.162570  0.140790  0.113220     24.000000
  0.203212  0.164255  0.113220     12.000000
  0.081285  0.140790  0.113220     12.000000
  0.121927  0.164255  0.113220     24.000000
  0.162570  0.187720  0.113220     24.000000
  0.121927  0.211185  0.113220     12.000000
  0.162570  0.234649  0.113220     12.000000
 


--------------------------------------------------------------------------------------------------------




 Dimension of arrays:
   k-points           NKPTS =     96   k-points in BZ     NKDIM =     96   number of bands    NBANDS=     40
   number of dos      NEDOS =    301   number of ions     NIONS =      2
   non local maximal  LDIM  =      6   non local SUM 2l+1 LMDIM =     18
   total plane-waves  NPLWV =   1600
   max r-space proj   IRMAX =      1   max aug-charges    IRDMAX=   3476
   dimension x,y,z NGX =    10 NGY =   10 NGZ =   16
   dimension x,y,z NGXF=    20 NGYF=   20 NGZF=   32
   support grid    NGXF=    20 NGYF=   20 NGZF=   32
   ions per type =               2
   NGX,Y,Z   is equivalent  to a cutoff of   7.43,  7.43,  6.63 a.u.
   NGXF,Y,Z  is equivalent  to a cutoff of  14.86, 14.86, 13.25 a.u.

 SYSTEM =  unknown system                          
 POSCAR =  Fe                                      

 Startparameter for this run:
   NWRITE =      2    write-flag & timer
   PREC   = normal    normal or accurate (medium, high low for compatibility)
   ISTART =      0    job   : 0-new  1-cont  2-samecut
   ICHARG =      1    charge: 1-file 2-atom 10-const
   ISPIN  =      1    spin polarized calculation?
   LNONCOLLINEAR =      F non collinear calculations
   LSORBIT =      F    spin-orbit coupling
   INIWAV =      1    electr: 0-lowe 1-rand  2-diag
   LASPH  =      F    aspherical Exc in radial PAW
   METAGGA=      F    non-selfconsistent MetaGGA calc.

 Electronic Relaxation 1
   ENCUT  =  280.0 eV  20.58 Ry    4.54 a.u.   3.05  3.05  5.48*2*pi/ulx,y,z
   ENINI  =  280.0     initial cutoff
   ENAUG  =  511.4 eV  augmentation charge cutoff
   NELM   =     60;   NELMIN=  2; NELMDL= -5     # of ELM steps 
   EDIFF  = 0.1E-05   stopping-criterion for ELM
   LREAL  =      F    real-space projection
   NLSPLINE    = F    spline interpolate recip. space projectors
   LCOMPAT=      F    compatible to vasp.4.4
   GGA_COMPAT  = T    GGA compatible to vasp.4.4-vasp.4.6
   LMAXPAW     = -100 max onsite density
   LMAXMIX     =    2 max onsite mixed and CHGCAR
   VOSKOWN=      0    Vosko Wilk Nusair interpolation
   ROPT   =    0.00000
 Ionic relaxation
   EDIFFG = 0.1E-04   stopping-criterion for IOM
   NSW    =      0    number of steps for IOM
   NBLOCK =      1;   KBLOCK =      1    inner block; outer block 
   IBRION =     -1    ionic relax: 0-MD 1-quasi-New 2-CG
   NFREE  =      0    steps in history (QN), initial steepest desc. (CG)
   ISIF   =      2    stress and relaxation
   IWAVPR =      0    prediction:  0-non 1-charg 2-wave 3-comb
   ISYM   =      2    0-nonsym 1-usesym 2-fastsym
   LCORR  =      T    Harris-Foulkes like correction to forces

   POTIM  = 0.5000    time-step for ionic-motion
   TEIN   =    0.0    initial temperature
   TEBEG  =    0.0;   TEEND  =   0.0 temperature during run
   SMASS  =  -3.00    Nose mass-parameter (am)
   estimated Nose-frequenzy (Omega)   =  0.10E-29 period in steps = 0.13E+47 mass=  -0.114E-27a.u.
   SCALEE = 1.0000    scale energy and forces
   NPACO  =    256;   APACO  = 16.0  distance and # of slots for P.C.
   PSTRESS=    0.0 pullay stress

  Mass of Ions in am
   POMASS =  55.85
  Ionic Valenz
   ZVAL   =   8.00
  Atomic Wigner-Seitz radii
   RWIGS  =  -1.00
  virtual crystal weights 
   VCA    =   1.00
   NELECT =      16.0000    total number of electrons
   NUPDOWN=      -1.0000    fix difference up-down

 DOS related values:
   EMIN   =  10.00;   EMAX   =-10.00  energy-range for DOS
   EFERMI =   0.00
   ISMEAR =     1;   SIGMA  =   0.20  broadening in eV -4-tet -1-fermi 0-gaus

 Electronic relaxation 2 (details)
   IALGO  =     38    algorithm
   LDIAG  =      T    sub-space diagonalisation (order eigenvalues)
   LSUBROT=      F    optimize rotation matrix (better conditioning)
   TURBO    =      0    0=normal 1=particle mesh
   IRESTART =      0    0=no restart 2=restart with 2 vectors
   NREBOOT  =      0    no. of reboots
   NMIN     =      0    reboot dimension
   EREF     =   0.00    reference energy to select bands
   IMIX   =      4    mixing-type and parameters
     AMIX     =   0.40;   BMIX     =  1.00
     AMIX_MAG =   1.60;   BMIX_MAG =  1.00
     AMIN     =   0.10
     WC   =   100.;   INIMIX=   1;  MIXPRE=   1;  MAXMIX= -45

 Intra band minimization:
   WEIMIN = 0.0000     energy-eigenvalue tresh-hold
   EBREAK =  0.62E-08  absolut break condition
   DEPER  =   0.30     relativ break condition  

   TIME   =   0.40     timestep for ELM

  volume/ion in A,a.u.               =       8.70        58.70
  Fermi-wavevector in a.u.,A,eV,Ry     =   1.592092  3.008617 34.487451  2.534756
  Thomas-Fermi vector in A             =   2.690531
 
 Write flags
   LWAVE        =      T    write WAVECAR
   LDOWNSAMPLE  =      F    k-point downsampling of WAVECAR
   LCHARG       =      T    write CHGCAR
   LVTOT        =      F    write LOCPOT, total local potential
   LVHAR        =      F    write LOCPOT, Hartree potential only
   LELF         =      F    write electronic localiz. function (ELF)
   LORBIT       =      0    0 simple, 1 ext, 2 COOP (PROOUT), +10 PAW based schemes


 Dipole corrections
   LMONO  =      F    monopole corrections only (constant potential shift)
   LDIPOL =      F    correct potential (dipole corrections)
   IDIPOL =      0    1-x, 2-y, 3-z, 4-all directions 
   EPSILON=  1.0000000 bulk dielectric constant

 Exchange correlation treatment:
   GGA     =    PE    GGA type
   LEXCH   =     8    internal setting for exchange type
   VOSKOWN=      0    Vosko Wilk Nusair interpolation
   LHFCALC =     F    Hartree Fock is set to
   LHFONE  =     F    Hartree Fock one center treatment
   AEXX    =    0.0000 exact exchange contribution

 Linear response parameters
   LEPSILON=     F    determine dielectric tensor
   LRPA    =     F    only Hartree local field effects (RPA)
   LNABLA  =     F    use nabla operator in PAW spheres
   LVEL    =     F    velocity operator in full k-point grid
   LINTERFAST=   F  fast interpolation
   KINTER  =     0    interpolate to denser k-point grid
   CSHIFT  =0.1000    complex shift for real part using Kramers Kronig
   OMEGAMAX=  -1.0    maximum frequency
   DEG_THRESHOLD= 0.2000000E-02 threshold for treating states as degnerate
   RTIME   =   -0.100 relaxation time in fs
  (WPLASMAI=    0.000 imaginary part of plasma frequency in eV, 0.658/RTIME)
   DFIELD  = 0.0000000 0.0000000 0.0000000 field for delta impulse in time
 
 Orbital magnetization related:
   ORBITALMAG=     F  switch on orbital magnetization
   LCHIMAG   =     F  perturbation theory with respect to B field
   DQ        =  0.001000  dq finite difference perturbation B field
   LLRAUG    =     F  two centre corrections for induced B field



--------------------------------------------------------------------------------------------------------


 Static calculation
 charge density and potential will be updated during run
 non-spin polarized calculation
 Variant of blocked Davidson
 Davidson routine will perform the subspace rotation
 perform sub-space diagonalisation
    after iterative eigenvector-optimisation
 modified Broyden-mixing scheme, WC =      100.0
 initial mixing is a Kerker type mixing with AMIX =  0.4000 and BMIX =      1.0000
 Hartree-type preconditioning will be used
 using additional bands           32
 reciprocal scheme for non local part
 use partial core corrections
 calculate Harris-corrections to forces 
   (improved forces if not selfconsistent)
 use gradient corrections 
 use of overlap-Matrix (Vanderbilt PP)
 Methfessel and Paxton  Order N= 1 SIGMA  =   0.20


--------------------------------------------------------------------------------------------------------


  energy-cutoff  :      280.00
  volume of cell :       17.40
      direct lattice vectors                 reciprocal lattice vectors
     2.236800000  0.000000000  0.000000000     0.447067239  0.258114391  0.000000000
    -1.118400000  1.937125623  0.000000000     0.000000000  0.516228781  0.000000000
     0.000000000  0.000000000  4.014720000     0.000000000  0.000000000  0.249083373

  length of vectors
     2.236800000  2.236800000  4.014720000     0.516228781  0.516228781  0.249083373


 
 k-points in units of 2pi/SCALE and weight: KPOINTS created by Atomic Simulation Env
   0.00000000  0.00000000  0.00000000       0.001
   0.04064248  0.02346494  0.00000000       0.005
   0.08128495  0.04692989  0.00000000       0.005
   0.12192743  0.07039483  0.00000000       0.005
   0.16256991  0.09385978  0.00000000       0.005
   0.20321238  0.11732472  0.00000000       0.005
   0.04064248  0.07039483  0.00000000       0.005
   0.08128495  0.09385978  0.00000000       0.009
   0.12192743  0.11732472  0.00000000       0.009
   0.16256991  0.14078967  0.00000000       0.009
   0.20321238  0.16425461  0.00000000       0.005
   0.08128495  0.14078967  0.00000000       0.005
   0.12192743  0.16425461  0.00000000       0.009
   0.16256991  0.18771956  0.00000000       0.009
   0.12192743  0.21118450  0.00000000       0.005
   0.16256991  0.23464945  0.00000000       0.005
   0.00000000  0.00000000  0.02264394       0.002
   0.04064248  0.02346494  0.02264394       0.009
   0.08128495  0.04692989  0.02264394       0.009
   0.12192743  0.07039483  0.02264394       0.009
   0.16256991  0.09385978  0.02264394       0.009
   0.20321238  0.11732472  0.02264394       0.009
   0.04064248  0.07039483  0.02264394       0.009
   0.08128495  0.09385978  0.02264394       0.018
   0.12192743  0.11732472  0.02264394       0.018
   0.16256991  0.14078967  0.02264394       0.018
   0.20321238  0.16425461  0.02264394       0.009
   0.08128495  0.14078967  0.02264394       0.009
   0.12192743  0.16425461  0.02264394       0.018
   0.16256991  0.18771956  0.02264394       0.018
   0.12192743  0.21118450  0.02264394       0.009
   0.16256991  0.23464945  0.02264394       0.009
   0.00000000  0.00000000  0.04528789       0.002
   0.04064248  0.02346494  0.04528789       0.009
   0.08128495  0.04692989  0.04528789       0.009
   0.12192743  0.07039483  0.04528789       0.009
   0.16256991  0.09385978  0.04528789       0.009
   0.20321238  0.11732472  0.04528789       0.009
   0.04064248  0.07039483  0.04528789       0.009
   0.08128495  0.09385978  0.04528789       0.018
   0.12192743  0.11732472  0.04528789       0.018
   0.16256991  0.14078967  0.04528789       0.018
   0.20321238  0.16425461  0.04528789       0.009
   0.08128495  0.14078967  0.04528789       0.009
   0.12192743  0.16425461  0.04528789       0.018
   0.16256991  0.18771956  0.04528789       0.018
   0.12192743  0.21118450  0.04528789       0.009
   0.16256991  0.23464945  0.04528789       0.009
   0.00000000  0.00000000  0.06793183       0.002
   0.04064248  0.02346494  0.06793183       0.009
   0.08128495  0.04692989  0.06793183       0.009
   0.12192743  0.07039483  0.06793183       0.009
   0.16256991  0.09385978  0.06793183       0.009
   0.20321238  0.11732472  0.06793183       0.009
   0.04064248  0.07039483  0.06793183       0.009
   0.08128495  0.09385978  0.06793183       0.018
   0.12192743  0.11732472  0.06793183       0.018
   0.16256991  0.14078967  0.06793183       0.018
   0.20321238  0.16425461  0.06793183       0.009
   0.08128495  0.14078967  0.06793183       0.009
   0.12192743  0.16425461  0.06793183       0.018
   0.16256991  0.18771956  0.06793183       0.018
   0.12192743  0.21118450  0.06793183       0.009
   0.16256991  0.23464945  0.06793183       0.009
   0.00000000  0.00000000  0.09057577       0.002
   0.04064248  0.02346494  0.09057577       0.009
   0.08128495  0.04692989  0.09057577       0.009
   0.12192743  0.07039483  0.09057577       0.009
   0.16256991  0.09385978  0.09057577       0.009
   0.20321238  0.11732472  0.09057577       0.009
   0.04064248  0.07039483  0.09057577       0.009
   0.08128495  0.09385978  0.09057577       0.018
   0.12192743  0.11732472  0.09057577       0.018
   0.16256991  0.14078967  0.09057577       0.018
   0.20321238  0.16425461  0.09057577       0.009
   0.08128495  0.14078967  0.09057577       0.009
   0.12192743  0.16425461  0.09057577       0.018
   0.16256991  0.18771956  0.09057577       0.018
   0.12192743  0.21118450  0.09057577       0.009
   0.16256991  0.23464945  0.09057577       0.009
   0.00000000  0.00000000  0.11321972       0.002
   0.04064248  0.02346494  0.11321972       0.009
   0.08128495  0.04692989  0.11321972       0.009
   0.12192743  0.07039483  0.11321972       0.009
   0.16256991  0.09385978  0.11321972       0.009
   0.20321238  0.11732472  0.11321972       0.009
   0.04064248  0.07039483  0.11321972       0.009
   0.08128495  0.09385978  0.11321972       0.018
   0.12192743  0.11732472  0.11321972       0.018
   0.16256991  0.14078967  0.11321972       0.018
   0.20321238  0.16425461  0.11321972       0.009
   0.08128495  0.14078967  0.11321972       0.009
   0.12192743  0.16425461  0.11321972       0.018
   0.16256991  0.18771956  0.11321972       0.018
   0.12192743  0.21118450  0.11321972       0.009
   0.16256991  0.23464945  0.11321972       0.009
 
 k-points in reciprocal lattice and weights: KPOINTS created by Atomic Simulation Env
   0.00000000  0.00000000  0.00000000       0.001
   0.09090909  0.00000000  0.00000000       0.005
   0.18181818  0.00000000  0.00000000       0.005
   0.27272727  0.00000000  0.00000000       0.005
   0.36363636  0.00000000  0.00000000       0.005
   0.45454545  0.00000000  0.00000000       0.005
   0.09090909  0.09090909  0.00000000       0.005
   0.18181818  0.09090909  0.00000000       0.009
   0.27272727  0.09090909  0.00000000       0.009
   0.36363636  0.09090909  0.00000000       0.009
   0.45454545  0.09090909  0.00000000       0.005
   0.18181818  0.18181818  0.00000000       0.005
   0.27272727  0.18181818  0.00000000       0.009
   0.36363636  0.18181818  0.00000000       0.009
   0.27272727  0.27272727  0.00000000       0.005
   0.36363636  0.27272727  0.00000000       0.005
   0.00000000  0.00000000  0.09090909       0.002
   0.09090909  0.00000000  0.09090909       0.009
   0.18181818  0.00000000  0.09090909       0.009
   0.27272727  0.00000000  0.09090909       0.009
   0.36363636  0.00000000  0.09090909       0.009
   0.45454545  0.00000000  0.09090909       0.009
   0.09090909  0.09090909  0.09090909       0.009
   0.18181818  0.09090909  0.09090909       0.018
   0.27272727  0.09090909  0.09090909       0.018
   0.36363636  0.09090909  0.09090909       0.018
   0.45454545  0.09090909  0.09090909       0.009
   0.18181818  0.18181818  0.09090909       0.009
   0.27272727  0.18181818  0.09090909       0.018
   0.36363636  0.18181818  0.09090909       0.018
   0.27272727  0.27272727  0.09090909       0.009
   0.36363636  0.27272727  0.09090909       0.009
   0.00000000  0.00000000  0.18181818       0.002
   0.09090909  0.00000000  0.18181818       0.009
   0.18181818  0.00000000  0.18181818       0.009
   0.27272727  0.00000000  0.18181818       0.009
   0.36363636  0.00000000  0.18181818       0.009
   0.45454545  0.00000000  0.18181818       0.009
   0.09090909  0.09090909  0.18181818       0.009
   0.18181818  0.09090909  0.18181818       0.018
   0.27272727  0.09090909  0.18181818       0.018
   0.36363636  0.09090909  0.18181818       0.018
   0.45454545  0.09090909  0.18181818       0.009
   0.18181818  0.18181818  0.18181818       0.009
   0.27272727  0.18181818  0.18181818       0.018
   0.36363636  0.18181818  0.18181818       0.018
   0.27272727  0.27272727  0.18181818       0.009
   0.36363636  0.27272727  0.18181818       0.009
   0.00000000  0.00000000  0.27272727       0.002
   0.09090909  0.00000000  0.27272727       0.009
   0.18181818  0.00000000  0.27272727       0.009
   0.27272727  0.00000000  0.27272727       0.009
   0.36363636  0.00000000  0.27272727       0.009
   0.45454545  0.00000000  0.27272727       0.009
   0.09090909  0.09090909  0.27272727       0.009
   0.18181818  0.09090909  0.27272727       0.018
   0.27272727  0.09090909  0.27272727       0.018
   0.36363636  0.09090909  0.27272727       0.018
   0.45454545  0.09090909  0.27272727       0.009
   0.18181818  0.18181818  0.27272727       0.009
   0.27272727  0.18181818  0.27272727       0.018
   0.36363636  0.18181818  0.27272727       0.018
   0.27272727  0.27272727  0.27272727       0.009
   0.36363636  0.27272727  0.27272727       0.009
   0.00000000  0.00000000  0.36363636       0.002
   0.09090909  0.00000000  0.36363636       0.009
   0.18181818  0.00000000  0.36363636       0.009
   0.27272727  0.00000000  0.36363636       0.009
   0.36363636  0.00000000  0.36363636       0.009
   0.45454545  0.00000000  0.36363636       0.009
   0.09090909  0.09090909  0.36363636       0.009
   0.18181818  0.09090909  0.36363636       0.018
   0.27272727  0.09090909  0.36363636       0.018
   0.36363636  0.09090909  0.36363636       0.018
   0.45454545  0.09090909  0.36363636       0.009
   0.18181818  0.18181818  0.36363636       0.009
   0.27272727  0.18181818  0.36363636       0.018
   0.36363636  0.18181818  0.36363636       0.018
   0.27272727  0.27272727  0.36363636       0.009
   0.36363636  0.27272727  0.36363636       0.009
   0.00000000  0.00000000  0.45454545       0.002
   0.09090909  0.00000000  0.45454545       0.009
   0.18181818  0.00000000  0.45454545       0.009
   0.27272727  0.00000000  0.45454545       0.009
   0.36363636  0.00000000  0.45454545       0.009
   0.45454545  0.00000000  0.45454545       0.009
   0.09090909  0.09090909  0.45454545       0.009
   0.18181818  0.09090909  0.45454545       0.018
   0.27272727  0.09090909  0.45454545       0.018
   0.36363636  0.09090909  0.45454545       0.018
   0.45454545  0.09090909  0.45454545       0.009
   0.18181818  0.18181818  0.45454545       0.009
   0.27272727  0.18181818  0.45454545       0.018
   0.36363636  0.18181818  0.45454545       0.018
   0.27272727  0.27272727  0.45454545       0.009
   0.36363636  0.27272727  0.45454545       0.009
 
 position of ions in fractional coordinates (direct lattice) 
   0.00000000  0.00000000  0.00000000
   0.33333333  0.66666667  0.50000000
 
 position of ions in cartesian coordinates  (Angst):
   0.00000000  0.00000000  0.00000000
   0.00000000  1.29141708  2.00736000
 


--------------------------------------------------------------------------------------------------------


 k-point   1 :   0.0000 0.0000 0.0000  plane waves:     173
 k-point   2 :   0.0909 0.0000 0.0000  plane waves:     181
 k-point   3 :   0.1818 0.0000 0.0000  plane waves:     177
 k-point   4 :   0.2727 0.0000 0.0000  plane waves:     185
 k-point   5 :   0.3636 0.0000 0.0000  plane waves:     186
 k-point   6 :   0.4545 0.0000 0.0000  plane waves:     188
 k-point   7 :   0.0909 0.0909 0.0000  plane waves:     181
 k-point   8 :   0.1818 0.0909 0.0000  plane waves:     183
 k-point   9 :   0.2727 0.0909 0.0000  plane waves:     182
 k-point  10 :   0.3636 0.0909 0.0000  plane waves:     187
 k-point  11 :   0.4545 0.0909 0.0000  plane waves:     183
 k-point  12 :   0.1818 0.1818 0.0000  plane waves:     189
 k-point  13 :   0.2727 0.1818 0.0000  plane waves:     188
 k-point  14 :   0.3636 0.1818 0.0000  plane waves:     194
 k-point  15 :   0.2727 0.2727 0.0000  plane waves:     191
 k-point  16 :   0.3636 0.2727 0.0000  plane waves:     189
 k-point  17 :   0.0000 0.0000 0.0909  plane waves:     167
 k-point  18 :   0.0909 0.0000 0.0909  plane waves:     182
 k-point  19 :   0.1818 0.0000 0.0909  plane waves:     182
 k-point  20 :   0.2727 0.0000 0.0909  plane waves:     185
 k-point  21 :   0.3636 0.0000 0.0909  plane waves:     186
 k-point  22 :   0.4545 0.0000 0.0909  plane waves:     187
 k-point  23 :   0.0909 0.0909 0.0909  plane waves:     181
 k-point  24 :   0.1818 0.0909 0.0909  plane waves:     183
 k-point  25 :   0.2727 0.0909 0.0909  plane waves:     184
 k-point  26 :   0.3636 0.0909 0.0909  plane waves:     187
 k-point  27 :   0.4545 0.0909 0.0909  plane waves:     187
 k-point  28 :   0.1818 0.1818 0.0909  plane waves:     185
 k-point  29 :   0.2727 0.1818 0.0909  plane waves:     187
 k-point  30 :   0.3636 0.1818 0.0909  plane waves:     190
 k-point  31 :   0.2727 0.2727 0.0909  plane waves:     192
 k-point  32 :   0.3636 0.2727 0.0909  plane waves:     192
 k-point  33 :   0.0000 0.0000 0.1818  plane waves:     161
 k-point  34 :   0.0909 0.0000 0.1818  plane waves:     177
 k-point  35 :   0.1818 0.0000 0.1818  plane waves:     180
 k-point  36 :   0.2727 0.0000 0.1818  plane waves:     184
 k-point  37 :   0.3636 0.0000 0.1818  plane waves:     186
 k-point  38 :   0.4545 0.0000 0.1818  plane waves:     187
 k-point  39 :   0.0909 0.0909 0.1818  plane waves:     184
 k-point  40 :   0.1818 0.0909 0.1818  plane waves:     185
 k-point  41 :   0.2727 0.0909 0.1818  plane waves:     185
 k-point  42 :   0.3636 0.0909 0.1818  plane waves:     186
 k-point  43 :   0.4545 0.0909 0.1818  plane waves:     186
 k-point  44 :   0.1818 0.1818 0.1818  plane waves:     183
 k-point  45 :   0.2727 0.1818 0.1818  plane waves:     187
 k-point  46 :   0.3636 0.1818 0.1818  plane waves:     188
 k-point  47 :   0.2727 0.2727 0.1818  plane waves:     192
 k-point  48 :   0.3636 0.2727 0.1818  plane waves:     194
 k-point  49 :   0.0000 0.0000 0.2727  plane waves:     161
 k-point  50 :   0.0909 0.0000 0.2727  plane waves:     174
 k-point  51 :   0.1818 0.0000 0.2727  plane waves:     183
 k-point  52 :   0.2727 0.0000 0.2727  plane waves:     183
 k-point  53 :   0.3636 0.0000 0.2727  plane waves:     186
 k-point  54 :   0.4545 0.0000 0.2727  plane waves:     187
 k-point  55 :   0.0909 0.0909 0.2727  plane waves:     180
 k-point  56 :   0.1818 0.0909 0.2727  plane waves:     181
 k-point  57 :   0.2727 0.0909 0.2727  plane waves:     184
 k-point  58 :   0.3636 0.0909 0.2727  plane waves:     183
 k-point  59 :   0.4545 0.0909 0.2727  plane waves:     187
 k-point  60 :   0.1818 0.1818 0.2727  plane waves:     187
 k-point  61 :   0.2727 0.1818 0.2727  plane waves:     186
 k-point  62 :   0.3636 0.1818 0.2727  plane waves:     188
 k-point  63 :   0.2727 0.2727 0.2727  plane waves:     191
 k-point  64 :   0.3636 0.2727 0.2727  plane waves:     196
 k-point  65 :   0.0000 0.0000 0.3636  plane waves:     161
 k-point  66 :   0.0909 0.0000 0.3636  plane waves:     173
 k-point  67 :   0.1818 0.0000 0.3636  plane waves:     183
 k-point  68 :   0.2727 0.0000 0.3636  plane waves:     183
 k-point  69 :   0.3636 0.0000 0.3636  plane waves:     187
 k-point  70 :   0.4545 0.0000 0.3636  plane waves:     188
 k-point  71 :   0.0909 0.0909 0.3636  plane waves:     180
 k-point  72 :   0.1818 0.0909 0.3636  plane waves:     184
 k-point  73 :   0.2727 0.0909 0.3636  plane waves:     182
 k-point  74 :   0.3636 0.0909 0.3636  plane waves:     187
 k-point  75 :   0.4545 0.0909 0.3636  plane waves:     190
 k-point  76 :   0.1818 0.1818 0.3636  plane waves:     183
 k-point  77 :   0.2727 0.1818 0.3636  plane waves:     186
 k-point  78 :   0.3636 0.1818 0.3636  plane waves:     188
 k-point  79 :   0.2727 0.2727 0.3636  plane waves:     187
 k-point  80 :   0.3636 0.2727 0.3636  plane waves:     189
 k-point  81 :   0.0000 0.0000 0.4545  plane waves:     167
 k-point  82 :   0.0909 0.0000 0.4545  plane waves:     173
 k-point  83 :   0.1818 0.0000 0.4545  plane waves:     181
 k-point  84 :   0.2727 0.0000 0.4545  plane waves:     182
 k-point  85 :   0.3636 0.0000 0.4545  plane waves:     182
 k-point  86 :   0.4545 0.0000 0.4545  plane waves:     189
 k-point  87 :   0.0909 0.0909 0.4545  plane waves:     181
 k-point  88 :   0.1818 0.0909 0.4545  plane waves:     184
 k-point  89 :   0.2727 0.0909 0.4545  plane waves:     185
 k-point  90 :   0.3636 0.0909 0.4545  plane waves:     186
 k-point  91 :   0.4545 0.0909 0.4545  plane waves:     188
 k-point  92 :   0.1818 0.1818 0.4545  plane waves:     185
 k-point  93 :   0.2727 0.1818 0.4545  plane waves:     185
 k-point  94 :   0.3636 0.1818 0.4545  plane waves:     186
 k-point  95 :   0.2727 0.2727 0.4545  plane waves:     186
 k-point  96 :   0.3636 0.2727 0.4545  plane waves:     187

 maximum number of plane-waves:       196
 maximum index in each direction: 
   IXMAX=    2   IYMAX=    3   IZMAX=    5
   IXMIN=   -3   IYMIN=   -3   IZMIN=   -5


 total amount of memory used by VASP MPI-rank0    47721. kBytes
=======================================================================

   base      :      30000. kBytes
   nonl-proj :       2715. kBytes
   grid      :        721. kBytes
   one-center:         31. kBytes
   wavefun   :      14254. kBytes
 
     INWAV:  cpu time    0.0000: real time    0.0000
 Broyden mixing: mesh for mixing (old mesh)
   NGX =  5   NGY =  5   NGZ = 11
  (NGX  = 20   NGY  = 20   NGZ  = 32)
  gives a total of    275 points

 initial charge density was supplied:
 charge density of overlapping atoms calculated
 number of electron      16.0000000 magnetization 
 keeping initial charge density in first step


--------------------------------------------------------------------------------------------------------


 Maximum index for augmentation-charges         3197 (set IRDMAX)


--------------------------------------------------------------------------------------------------------


 First call to EWALD:  gamma=   0.684
 Maximum number of real-space cells 4x 4x 2
 Maximum number of reciprocal cells 2x 2x 4

    FEWALD:  cpu time    0.0009: real time    0.0009


--------------------------------------- Iteration      1(   1)  ---------------------------------------


    POTLOK:  cpu time    0.0031: real time    0.0031
    SETDIJ:  cpu time    0.0022: real time    0.0022
     EDDAV:  cpu time    0.7268: real time    0.7472
       DOS:  cpu time    0.0049: real time    0.0049
    --------------------------------------------
      LOOP:  cpu time    0.7370: real time    0.7574

 eigenvalue-minimisations  :  9504
 total energy-change (2. order) : 0.5968600E+02  (-0.2424156E+03)
 number of electron      16.0000000 magnetization 
 augmentation part       16.0000000 magnetization 

 Free energy of the ion-electron system (eV)
  ---------------------------------------------------
  alpha Z        PSCENC =       158.92214241
  Ewald energy   TEWEN  =     -1292.50823790
  -Hartree energ DENC   =      -184.80951903
  -exchange      EXHF   =         0.00000000
  -V(xc)+E(xc)   XCENC  =         9.56065112
  PAW double counting   =      1109.69170683    -1125.09647265
  entropy T*S    EENTRO =         0.00200029
  eigenvalues    EBANDS =       195.34882516
  atomic energy  EATOM  =      1188.57490811
  Solvation  Ediel_sol  =         0.00000000
  ---------------------------------------------------
  free energy    TOTEN  =        59.68600434 eV

  energy without entropy =       59.68400405  energy(sigma->0) =       59.68533757


--------------------------------------------------------------------------------------------------------




--------------------------------------- Iteration      1(   2)  ---------------------------------------


     EDDAV:  cpu time    0.6234: real time    0.6234
       DOS:  cpu time    0.0060: real time    0.0060
    --------------------------------------------
      LOOP:  cpu time    0.6294: real time    0.6294

 eigenvalue-minimisations  :  7968
 total energy-change (2. order) :-0.7377546E+02  (-0.6318294E+02)
 number of electron      16.0000000 magnetization 
 augmentation part       16.0000000 magnetization 

 Free energy of the ion-electron system (eV)
  ---------------------------------------------------
  alpha Z        PSCENC =       158.92214241
  Ewald energy   TEWEN  =     -1292.50823790
  -Hartree energ DENC   =      -184.80951903
  -exchange      EXHF   =         0.00000000
  -V(xc)+E(xc)   XCENC  =         9.56065112
  PAW double counting   =      1109.69170683    -1125.09647265
  entropy T*S    EENTRO =        -0.00047341
  eigenvalues    EBANDS =       121.57583923
  atomic energy  EATOM  =      1188.57490811
  Solvation  Ediel_sol  =         0.00000000
  ---------------------------------------------------
  free energy    TOTEN  =       -14.08945530 eV

  energy without entropy =      -14.08898189  energy(sigma->0) =      -14.08929750


--------------------------------------------------------------------------------------------------------




--------------------------------------- Iteration      1(   3)  ---------------------------------------


     EDDAV:  cpu time    0.7183: real time    0.7183
       DOS:  cpu time    0.0061: real time    0.0061
    --------------------------------------------
      LOOP:  cpu time    0.7244: real time    0.7244

 eigenvalue-minimisations  :  9592
 total energy-change (2. order) :-0.3955145E+01  (-0.3796760E+01)
 number of electron      16.0000000 magnetization 
 augmentation part       16.0000000 magnetization 

 Free energy of the ion-electron system (eV)
  ---------------------------------------------------
  alpha Z        PSCENC =       158.92214241
  Ewald energy   TEWEN  =     -1292.50823790
  -Hartree energ DENC   =      -184.80951903
  -exchange      EXHF   =         0.00000000
  -V(xc)+E(xc)   XCENC  =         9.56065112
  PAW double counting   =      1109.69170683    -1125.09647265
  entropy T*S    EENTRO =         0.00035390
  eigenvalues    EBANDS =       117.61986726
  atomic energy  EATOM  =      1188.57490811
  Solvation  Ediel_sol  =         0.00000000
  ---------------------------------------------------
  free energy    TOTEN  =       -18.04459996 eV

  energy without entropy =      -18.04495386  energy(sigma->0) =      -18.04471792


--------------------------------------------------------------------------------------------------------




--------------------------------------- Iteration      1(   4)  ---------------------------------------


     EDDAV:  cpu time    0.6649: real time    0.6649
       DOS:  cpu time    0.0061: real time    0.0061
    --------------------------------------------
      LOOP:  cpu time    0.6710: real time    0.6710

 eigenvalue-minimisations  :  8784
 total energy-change (2. order) :-0.1313295E-01  (-0.1312760E-01)
 number of electron      16.0000000 magnetization 
 augmentation part       16.0000000 magnetization 

 Free energy of the ion-electron system (eV)
  ---------------------------------------------------
  alpha Z        PSCENC =       158.92214241
  Ewald energy   TEWEN  =     -1292.50823790
  -Hartree energ DENC   =      -184.80951903
  -exchange      EXHF   =         0.00000000
  -V(xc)+E(xc)   XCENC  =         9.56065112
  PAW double counting   =      1109.69170683    -1125.09647265
  entropy T*S    EENTRO =         0.00037871
  eigenvalues    EBANDS =       117.60670951
  atomic energy  EATOM  =      1188.57490811
  Solvation  Ediel_sol  =         0.00000000
  ---------------------------------------------------
  free energy    TOTEN  =       -18.05773290 eV

  energy without entropy =      -18.05811161  energy(sigma->0) =      -18.05785914


--------------------------------------------------------------------------------------------------------




--------------------------------------- Iteration      1(   5)  ---------------------------------------


     EDDAV:  cpu time    0.6951: real time    0.6951
       DOS:  cpu time    0.0063: real time    0.0063
    CHARGE:  cpu time    0.0171: real time    0.0171
    MIXING:  cpu time    0.0001: real time    0.0001
    --------------------------------------------
      LOOP:  cpu time    0.7186: real time    0.7186

 eigenvalue-minimisations  :  9376
 total energy-change (2. order) :-0.7512227E-05  (-0.7511265E-05)
 number of electron      16.0000097 magnetization 
 augmentation part        7.2331524 magnetization 

 Broyden mixing:
  rms(total) = 0.20441E+01    rms(broyden)= 0.20441E+01
  rms(prec ) = 0.29987E+01
  weight for this iteration     100.00

 Free energy of the ion-electron system (eV)
  ---------------------------------------------------
  alpha Z        PSCENC =       158.92214241
  Ewald energy   TEWEN  =     -1292.50823790
  -Hartree energ DENC   =      -184.80951903
  -exchange      EXHF   =         0.00000000
  -V(xc)+E(xc)   XCENC  =         9.56065112
  PAW double counting   =      1109.69170683    -1125.09647265
  entropy T*S    EENTRO =         0.00037874
  eigenvalues    EBANDS =       117.60670197
  atomic energy  EATOM  =      1188.57490811
  Solvation  Ediel_sol  =         0.00000000
  ---------------------------------------------------
  free energy    TOTEN  =       -18.05774041 eV

  energy without entropy =      -18.05811915  energy(sigma->0) =      -18.05786666


--------------------------------------------------------------------------------------------------------




--------------------------------------- Iteration      1(   6)  ---------------------------------------


    POTLOK:  cpu time    0.0029: real time    0.0029
    SETDIJ:  cpu time    0.0021: real time    0.0021
     EDDAV:  cpu time    0.8240: real time    0.8240
       DOS:  cpu time    0.0064: real time    0.0064
    CHARGE:  cpu time    0.0170: real time    0.0170
    MIXING:  cpu time    0.0002: real time    0.0002
    --------------------------------------------
      LOOP:  cpu time    0.8526: real time    0.8527

 eigenvalue-minimisations  : 11304
 total energy-change (2. order) : 0.2496307E+01  (-0.1282350E+00)
 number of electron      16.0000114 magnetization 
 augmentation part        8.3066095 magnetization 

 Broyden mixing:
  rms(total) = 0.18797E+00    rms(broyden)= 0.18775E+00
  rms(prec ) = 0.20645E+00
  weight for this iteration     100.00

 eigenvalues of (default mixing * dielectric matrix)
  average eigenvalue GAMMA=   1.0614
  1.0614

 Free energy of the ion-electron system (eV)
  ---------------------------------------------------
  alpha Z        PSCENC =       158.92214241
  Ewald energy   TEWEN  =     -1292.50823790
  -Hartree energ DENC   =      -155.46759820
  -exchange      EXHF   =         0.00000000
  -V(xc)+E(xc)   XCENC  =         8.11442490
  PAW double counting   =      1359.03847908    -1371.76670894
  entropy T*S    EENTRO =         0.00144223
  eigenvalues    EBANDS =        89.52971502
  atomic energy  EATOM  =      1188.57490811
  Solvation  Ediel_sol  =         0.00000000
  ---------------------------------------------------
  free energy    TOTEN  =       -15.56143329 eV

  energy without entropy =      -15.56287553  energy(sigma->0) =      -15.56191404


--------------------------------------------------------------------------------------------------------




--------------------------------------- Iteration      1(   7)  ---------------------------------------


    POTLOK:  cpu time    0.0029: real time    0.0029
    SETDIJ:  cpu time    0.0021: real time    0.0021
     EDDAV:  cpu time    0.7112: real time    0.7112
       DOS:  cpu time    0.0063: real time    0.0063
    CHARGE:  cpu time    0.0169: real time    0.0169
    MIXING:  cpu time    0.0002: real time    0.0002
    --------------------------------------------
      LOOP:  cpu time    0.7396: real time    0.7396

 eigenvalue-minimisations  :  9544
 total energy-change (2. order) : 0.1105082E+00  (-0.4865520E-02)
 number of electron      16.0000112 magnetization 
 augmentation part        8.1797600 magnetization 

 Broyden mixing:
  rms(total) = 0.17831E+00    rms(broyden)= 0.17831E+00
  rms(prec ) = 0.23643E+00
  weight for this iteration     100.00

 eigenvalues of (default mixing * dielectric matrix)
  average eigenvalue GAMMA=   1.2876
  0.8593  1.7160

 Free energy of the ion-electron system (eV)
  ---------------------------------------------------
  alpha Z        PSCENC =       158.92214241
  Ewald energy   TEWEN  =     -1292.50823790
  -Hartree energ DENC   =      -155.89159107
  -exchange      EXHF   =         0.00000000
  -V(xc)+E(xc)   XCENC  =         8.16302757
  PAW double counting   =      1486.20745316    -1502.31649662
  entropy T*S    EENTRO =         0.00123810
  eigenvalues    EBANDS =        93.39663111
  atomic energy  EATOM  =      1188.57490811
  Solvation  Ediel_sol  =         0.00000000
  ---------------------------------------------------
  free energy    TOTEN  =       -15.45092514 eV

  energy without entropy =      -15.45216324  energy(sigma->0) =      -15.45133784


--------------------------------------------------------------------------------------------------------




--------------------------------------- Iteration      1(   8)  ---------------------------------------


    POTLOK:  cpu time    0.0028: real time    0.0028
    SETDIJ:  cpu time    0.0021: real time    0.0021
     EDDAV:  cpu time    0.7798: real time    0.7798
       DOS:  cpu time    0.0067: real time    0.0067
    CHARGE:  cpu time    0.0171: real time    0.0171
    MIXING:  cpu time    0.0002: real time    0.0002
    --------------------------------------------
      LOOP:  cpu time    0.8086: real time    0.8086

 eigenvalue-minimisations  : 10632
 total energy-change (2. order) : 0.3982025E-01  (-0.2351936E-03)
 number of electron      16.0000113 magnetization 
 augmentation part        8.2040640 magnetization 

 Broyden mixing:
  rms(total) = 0.52464E-01    rms(broyden)= 0.52455E-01
  rms(prec ) = 0.66132E-01
  weight for this iteration     100.00

 eigenvalues of (default mixing * dielectric matrix)
  average eigenvalue GAMMA=   1.5616
  2.7155  1.0976  0.8716

 Free energy of the ion-electron system (eV)
  ---------------------------------------------------
  alpha Z        PSCENC =       158.92214241
  Ewald energy   TEWEN  =     -1292.50823790
  -Hartree energ DENC   =      -153.15217775
  -exchange      EXHF   =         0.00000000
  -V(xc)+E(xc)   XCENC  =         8.05148308
  PAW double counting   =      1625.11968195    -1643.53371158
  entropy T*S    EENTRO =         0.00131761
  eigenvalues    EBANDS =        93.11348918
  atomic energy  EATOM  =      1188.57490811
  Solvation  Ediel_sol  =         0.00000000
  ---------------------------------------------------
  free energy    TOTEN  =       -15.41110489 eV

  energy without entropy =      -15.41242250  energy(sigma->0) =      -15.41154410


--------------------------------------------------------------------------------------------------------




--------------------------------------- Iteration      1(   9)  ---------------------------------------


    POTLOK:  cpu time    0.0030: real time    0.0030
    SETDIJ:  cpu time    0.0021: real time    0.0021
     EDDAV:  cpu time    0.7533: real time    0.7534
       DOS:  cpu time    0.0063: real time    0.0063
    CHARGE:  cpu time    0.0174: real time    0.0174
    MIXING:  cpu time    0.0002: real time    0.0002
    --------------------------------------------
      LOOP:  cpu time    0.7823: real time    0.7823

 eigenvalue-minimisations  : 10288
 total energy-change (2. order) : 0.4187214E-02  (-0.5743586E-04)
 number of electron      16.0000113 magnetization 
 augmentation part        8.2101835 magnetization 

 Broyden mixing:
  rms(total) = 0.67261E-02    rms(broyden)= 0.67164E-02
  rms(prec ) = 0.93138E-02
  weight for this iteration     100.00

 eigenvalues of (default mixing * dielectric matrix)
  average eigenvalue GAMMA=   1.5902
  2.7252  1.7815  0.8820  0.9721

 Free energy of the ion-electron system (eV)
  ---------------------------------------------------
  alpha Z        PSCENC =       158.92214241
  Ewald energy   TEWEN  =     -1292.50823790
  -Hartree energ DENC   =      -151.93911276
  -exchange      EXHF   =         0.00000000
  -V(xc)+E(xc)   XCENC  =         8.00505699
  PAW double counting   =      1703.13364321    -1722.73526497
  entropy T*S    EENTRO =         0.00132425
  eigenvalues    EBANDS =        93.13862299
  atomic energy  EATOM  =      1188.57490811
  Solvation  Ediel_sol  =         0.00000000
  ---------------------------------------------------
  free energy    TOTEN  =       -15.40691768 eV

  energy without entropy =      -15.40824193  energy(sigma->0) =      -15.40735910


--------------------------------------------------------------------------------------------------------




--------------------------------------- Iteration      1(  10)  ---------------------------------------


    POTLOK:  cpu time    0.0029: real time    0.0029
    SETDIJ:  cpu time    0.0021: real time    0.0021
     EDDAV:  cpu time    0.6362: real time    0.6362
       DOS:  cpu time    0.0064: real time    0.0064
    CHARGE:  cpu time    0.0169: real time    0.0169
    MIXING:  cpu time    0.0002: real time    0.0002
    --------------------------------------------
      LOOP:  cpu time    0.6649: real time    0.6649

 eigenvalue-minimisations  :  8408
 total energy-change (2. order) : 0.1597671E-04  (-0.1637451E-05)
 number of electron      16.0000113 magnetization 
 augmentation part        8.2098251 magnetization 

 Broyden mixing:
  rms(total) = 0.29028E-02    rms(broyden)= 0.29017E-02
  rms(prec ) = 0.40841E-02
  weight for this iteration     100.00

 eigenvalues of (default mixing * dielectric matrix)
  average eigenvalue GAMMA=   1.6601
  2.6497  2.4143  0.8778  1.0066  1.3521

 Free energy of the ion-electron system (eV)
  ---------------------------------------------------
  alpha Z        PSCENC =       158.92214241
  Ewald energy   TEWEN  =     -1292.50823790
  -Hartree energ DENC   =      -152.03595449
  -exchange      EXHF   =         0.00000000
  -V(xc)+E(xc)   XCENC  =         8.01018090
  PAW double counting   =      1703.89764606    -1723.40068396
  entropy T*S    EENTRO =         0.00132383
  eigenvalues    EBANDS =        93.13177335
  atomic energy  EATOM  =      1188.57490811
  Solvation  Ediel_sol  =         0.00000000
  ---------------------------------------------------
  free energy    TOTEN  =       -15.40690170 eV

  energy without entropy =      -15.40822553  energy(sigma->0) =      -15.40734298


--------------------------------------------------------------------------------------------------------




--------------------------------------- Iteration      1(  11)  ---------------------------------------


    POTLOK:  cpu time    0.0028: real time    0.0028
    SETDIJ:  cpu time    0.0021: real time    0.0021
     EDDAV:  cpu time    0.6638: real time    0.6638
       DOS:  cpu time    0.0056: real time    0.0056
    CHARGE:  cpu time    0.0172: real time    0.0172
    MIXING:  cpu time    0.0002: real time    0.0002
    --------------------------------------------
      LOOP:  cpu time    0.6917: real time    0.6917

 eigenvalue-minimisations  :  8544
 total energy-change (2. order) : 0.3730758E-04  (-0.4028954E-07)
 number of electron      16.0000113 magnetization 
 augmentation part        8.2095844 magnetization 

 Broyden mixing:
  rms(total) = 0.26853E-03    rms(broyden)= 0.26840E-03
  rms(prec ) = 0.46527E-03
  weight for this iteration     100.00

 eigenvalues of (default mixing * dielectric matrix)
  average eigenvalue GAMMA=   1.5782
  2.5801  2.5801  0.8785  0.9966  0.9966  1.4375

 Free energy of the ion-electron system (eV)
  ---------------------------------------------------
  alpha Z        PSCENC =       158.92214241
  Ewald energy   TEWEN  =     -1292.50823790
  -Hartree energ DENC   =      -152.10890636
  -exchange      EXHF   =         0.00000000
  -V(xc)+E(xc)   XCENC  =         8.01351511
  PAW double counting   =      1702.18765057    -1721.61593193
  entropy T*S    EENTRO =         0.00132359
  eigenvalues    EBANDS =        93.12667200
  atomic energy  EATOM  =      1188.57490811
  Solvation  Ediel_sol  =         0.00000000
  ---------------------------------------------------
  free energy    TOTEN  =       -15.40686440 eV

  energy without entropy =      -15.40818799  energy(sigma->0) =      -15.40730559


--------------------------------------------------------------------------------------------------------




--------------------------------------- Iteration      1(  12)  ---------------------------------------


    POTLOK:  cpu time    0.0029: real time    0.0029
    SETDIJ:  cpu time    0.0021: real time    0.0021
     EDDAV:  cpu time    0.5589: real time    0.5589
       DOS:  cpu time    0.0065: real time    0.0065
    CHARGE:  cpu time    0.0172: real time    0.0172
    MIXING:  cpu time    0.0002: real time    0.0002
    --------------------------------------------
      LOOP:  cpu time    0.5878: real time    0.5878

 eigenvalue-minimisations  :  6616
 total energy-change (2. order) : 0.1830116E-05  (-0.8935069E-08)
 number of electron      16.0000113 magnetization 
 augmentation part        8.2095201 magnetization 

 Broyden mixing:
  rms(total) = 0.12451E-03    rms(broyden)= 0.12436E-03
  rms(prec ) = 0.13622E-03
  weight for this iteration     100.00

 eigenvalues of (default mixing * dielectric matrix)
  average eigenvalue GAMMA=   1.6272
  2.5458  2.5458  2.0224  0.8787  0.9869  1.0152  1.3953

 Free energy of the ion-electron system (eV)
  ---------------------------------------------------
  alpha Z        PSCENC =       158.92214241
  Ewald energy   TEWEN  =     -1292.50823790
  -Hartree energ DENC   =      -152.12030647
  -exchange      EXHF   =         0.00000000
  -V(xc)+E(xc)   XCENC  =         8.01402246
  PAW double counting   =      1701.94758262    -1721.36516918
  entropy T*S    EENTRO =         0.00132357
  eigenvalues    EBANDS =        93.12687182
  atomic energy  EATOM  =      1188.57490811
  Solvation  Ediel_sol  =         0.00000000
  ---------------------------------------------------
  free energy    TOTEN  =       -15.40686257 eV

  energy without entropy =      -15.40818613  energy(sigma->0) =      -15.40730375


--------------------------------------------------------------------------------------------------------




--------------------------------------- Iteration      1(  13)  ---------------------------------------


    POTLOK:  cpu time    0.0030: real time    0.0030
    SETDIJ:  cpu time    0.0021: real time    0.0021
     EDDAV:  cpu time    0.4645: real time    0.4645
       DOS:  cpu time    0.0063: real time    0.0063
    CHARGE:  cpu time    0.0174: real time    0.0174
    MIXING:  cpu time    0.0002: real time    0.0002
    --------------------------------------------
      LOOP:  cpu time    0.4935: real time    0.4935

 eigenvalue-minimisations  :  5040
 total energy-change (2. order) :-0.1392954E-05  (-0.9174609E-09)
 number of electron      16.0000113 magnetization 
 augmentation part        8.2095185 magnetization 

 Broyden mixing:
  rms(total) = 0.19800E-04    rms(broyden)= 0.19792E-04
  rms(prec ) = 0.23461E-04
  weight for this iteration     100.00

 eigenvalues of (default mixing * dielectric matrix)
  average eigenvalue GAMMA=   1.5769
  2.5520  2.5520  2.1261  1.4140  0.8783  1.0106  1.0412  1.0412

 Free energy of the ion-electron system (eV)
  ---------------------------------------------------
  alpha Z        PSCENC =       158.92214241
  Ewald energy   TEWEN  =     -1292.50823790
  -Hartree energ DENC   =      -152.11880639
  -exchange      EXHF   =         0.00000000
  -V(xc)+E(xc)   XCENC  =         8.01394579
  PAW double counting   =      1702.02760830    -1721.44697181
  entropy T*S    EENTRO =         0.00132356
  eigenvalues    EBANDS =        93.12722397
  atomic energy  EATOM  =      1188.57490811
  Solvation  Ediel_sol  =         0.00000000
  ---------------------------------------------------
  free energy    TOTEN  =       -15.40686396 eV

  energy without entropy =      -15.40818752  energy(sigma->0) =      -15.40730515


--------------------------------------------------------------------------------------------------------




--------------------------------------- Iteration      1(  14)  ---------------------------------------


    POTLOK:  cpu time    0.0029: real time    0.0029
    SETDIJ:  cpu time    0.0021: real time    0.0021
     EDDAV:  cpu time    0.4452: real time    0.4452
       DOS:  cpu time    0.0066: real time    0.0066
    --------------------------------------------
      LOOP:  cpu time    0.4568: real time    0.4568

 eigenvalue-minimisations  :  4768
 total energy-change (2. order) :-0.1423064E-06  (-0.2716061E-10)
 number of electron      16.0000113 magnetization 
 augmentation part        8.2095185 magnetization 

 Free energy of the ion-electron system (eV)
  ---------------------------------------------------
  alpha Z        PSCENC =       158.92214241
  Ewald energy   TEWEN  =     -1292.50823790
  -Hartree energ DENC   =      -152.11854731
  -exchange      EXHF   =         0.00000000
  -V(xc)+E(xc)   XCENC  =         8.01393228
  PAW double counting   =      1702.04319173    -1721.46279906
  entropy T*S    EENTRO =         0.00132356
  eigenvalues    EBANDS =        93.12722208
  atomic energy  EATOM  =      1188.57490811
  Solvation  Ediel_sol  =         0.00000000
  ---------------------------------------------------
  free energy    TOTEN  =       -15.40686410 eV

  energy without entropy =      -15.40818766  energy(sigma->0) =      -15.40730529


--------------------------------------------------------------------------------------------------------




 average (electrostatic) potential at core
  the test charge radii are     1.0103
  (the norm of the test charge is              1.0000)
       1 -40.8597       2 -40.8598
 
 
 
 E-fermi :   8.8603     XC(G=0): -14.7366     alpha+bet :-17.8211

 Fermi energy:         8.8603089084

 k-point     1 :       0.0000    0.0000    0.0000
  band No.  band energies     occupation 
      1      -0.9621      2.00000
      2       2.8969      2.00000
      3       5.9499      2.00000
      4       6.8764      2.00000
      5       6.8764      2.00000
      6       7.2409      2.00000
      7       7.2409      2.00000
      8       7.8089      2.00000
      9       8.5644      2.05710
     10       8.5644      2.05711
     11       9.8075     -0.00000
     12       9.8075     -0.00000
     13      17.5077      0.00000
     14      33.4476      0.00000
     15      33.9520      0.00000
     16      37.2263      0.00000
     17      41.2575      0.00000
     18      41.2575      0.00000
     19      41.8388      0.00000
     20      41.9380      0.00000
     21      41.9380      0.00000
     22      43.9087      0.00000
     23      43.9087      0.00000
     24      44.9633      0.00000
     25      48.3151      0.00000
     26      48.3151      0.00000
     27      49.3810      0.00000
     28      53.5430      0.00000
     29      53.5430      0.00000
     30      55.0388      0.00000
     31      55.0389      0.00000
     32      57.8984      0.00000
     33      64.7817      0.00000
     34      65.3167      0.00000
     35      65.5923      0.00000
     36      65.5923      0.00000
     37      66.6284      0.00000
     38      69.5136      0.00000
     39      69.5137      0.00000
     40      71.3022      0.00000

 k-point     2 :       0.0909    0.0000    0.0000
  band No.  band energies     occupation 
      1      -0.5818      2.00000
      2       3.1934      2.00000
      3       6.0040      2.00000
      4       6.7602      2.00000
      5       6.8732      2.00000
      6       7.0884      2.00000
      7       7.1181      2.00000
      8       7.4677      2.00000
      9       8.3532      2.00197
     10       8.4226      2.00829
     11       9.8459     -0.00000
     12      11.0315     -0.00000
     13      17.5186      0.00000
     14      33.0269      0.00000
     15      33.8783      0.00000
     16      35.9881      0.00000
     17      38.0688      0.00000
     18      39.4601      0.00000
     19      39.9274      0.00000
     20      41.6495      0.00000
     21      43.3934      0.00000
     22      44.7519      0.00000
     23      45.1147      0.00000
     24      45.7301      0.00000
     25      49.5258      0.00000
     26      49.7343      0.00000
     27      50.6292      0.00000
     28      50.8844      0.00000
     29      53.8753      0.00000
     30      56.6977      0.00000
     31      57.3837      0.00000
     32      59.4070      0.00000
     33      63.6157      0.00000
     34      64.5226      0.00000
     35      64.6980      0.00000
     36      65.4962      0.00000
     37      66.0482      0.00000
     38      69.8020      0.00000
     39      71.3623      0.00000
     40      71.7415      0.00000

 k-point     3 :       0.1818    0.0000    0.0000
  band No.  band energies     occupation 
      1       0.4782      2.00000
      2       3.8695      2.00000
      3       5.6067      2.00000
      4       5.8706      2.00000
      5       6.4955      2.00000
      6       7.2120      2.00000
      7       7.8048      2.00000
      8       7.8525      2.00000
      9       8.0880      2.00000
     10       8.1057      2.00000
     11       9.9061     -0.00000
     12      13.0931     -0.00000
     13      17.6030      0.00000
     14      29.5295      0.00000
     15      34.5635      0.00000
     16      34.6672      0.00000
     17      34.9291      0.00000
     18      35.2410      0.00000
     19      40.6412      0.00000
     20      41.2728      0.00000
     21      42.0230      0.00000
     22      42.5793      0.00000
     23      46.2771      0.00000
     24      47.3609      0.00000
     25      50.4182      0.00000
     26      51.0520      0.00000
     27      52.3401      0.00000
     28      54.7471      0.00000
     29      57.5501      0.00000
     30      58.9767      0.00000
     31      60.0981      0.00000
     32      61.5812      0.00000
     33      62.5694      0.00000
     34      63.0389      0.00000
     35      63.5198      0.00000
     36      63.9436      0.00000
     37      67.5457      0.00000
     38      70.6139      0.00000
     39      71.4679      0.00000
     40      72.1531      0.00000

 k-point     4 :       0.2727    0.0000    0.0000
  band No.  band energies     occupation 
      1       1.9132      2.00000
      2       4.0848      2.00000
      3       4.5916      2.00000
      4       5.8995      2.00000
      5       6.3055      2.00000
      6       7.2358      2.00000
      7       7.7087      2.00000
      8       8.1837      2.00002
      9       8.7788      1.63019
     10       8.9998      0.08216
     11       9.9296     -0.00000
     12      15.3941      0.00000
     13      17.7973      0.00000
     14      25.3577      0.00000
     15      30.8752      0.00000
     16      32.2118      0.00000
     17      33.0919      0.00000
     18      35.2726      0.00000
     19      39.0693      0.00000
     20      41.5147      0.00000
     21      41.9591      0.00000
     22      42.3755      0.00000
     23      43.6942      0.00000
     24      47.0918      0.00000
     25      53.9885      0.00000
     26      55.2991      0.00000
     27      56.1169      0.00000
     28      57.3374      0.00000
     29      57.8431      0.00000
     30      59.6497      0.00000
     31      61.0474      0.00000
     32      62.4777      0.00000
     33      62.8882      0.00000
     34      63.1484      0.00000
     35      64.2192      0.00000
     36      67.3576      0.00000
     37      67.9443      0.00000
     38      71.2915      0.00000
     39      71.3264      0.00000
     40      72.1005      0.00000

 k-point     5 :       0.3636    0.0000    0.0000
  band No.  band energies     occupation 
      1       3.0037      2.00000
      2       3.7163      2.00000
      3       3.9028      2.00000
      4       6.1298      2.00000
      5       6.6983      2.00000
      6       6.9174      2.00000
      7       7.3958      2.00000
      8       9.7676     -0.00000
      9       9.7689     -0.00000
     10       9.9044     -0.00000
     11       9.9237     -0.00000
     12      17.6600      0.00000
     13      17.8263      0.00000
     14      22.2695      0.00000
     15      27.4065      0.00000
     16      30.1241      0.00000
     17      30.2511      0.00000
     18      34.4971      0.00000
     19      37.9902      0.00000
     20      41.4130      0.00000
     21      41.5864      0.00000
     22      43.3366      0.00000
     23      43.5301      0.00000
     24      47.0315      0.00000
     25      54.4990      0.00000
     26      56.4190      0.00000
     27      57.2970      0.00000
     28      60.4349      0.00000
     29      60.6097      0.00000
     30      60.7356      0.00000
     31      61.7974      0.00000
     32      63.7198      0.00000
     33      64.2261      0.00000
     34      64.9774      0.00000
     35      65.7664      0.00000
     36      67.4179      0.00000
     37      70.9257      0.00000
     38      71.8740      0.00000
     39      71.8983      0.00000
     40      72.1969      0.00000

 k-point     6 :       0.4545    0.0000    0.0000
  band No.  band energies     occupation 
      1       3.1949      2.00000
      2       3.5335      2.00000
      3       3.5576      2.00000
      4       6.3902      2.00000
      5       6.8462      2.00000
      6       7.2193      2.00000
      7       7.2218      2.00000
      8       9.9122     -0.00000
      9      10.3886     -0.00000
     10      10.5147     -0.00000
     11      11.8101     -0.00000
     12      15.7485      0.00000
     13      20.0979      0.00000
     14      22.1102      0.00000
     15      24.6530      0.00000
     16      27.4355      0.00000
     17      28.9432      0.00000
     18      33.8424      0.00000
     19      37.6280      0.00000
     20      40.1164      0.00000
     21      41.4599      0.00000
     22      44.3135      0.00000
     23      45.9749      0.00000
     24      46.4687      0.00000
     25      51.1659      0.00000
     26      57.3763      0.00000
     27      58.0220      0.00000
     28      61.2010      0.00000
     29      61.9902      0.00000
     30      63.1355      0.00000
     31      64.0340      0.00000
     32      64.3136      0.00000
     33      65.1739      0.00000
     34      67.0869      0.00000
     35      67.8750      0.00000
     36      69.9705      0.00000
     37      70.7573      0.00000
     38      70.7678      0.00000
     39      73.7221      0.00000
     40      74.1807      0.00000

 k-point     7 :       0.0909    0.0909    0.0000
  band No.  band energies     occupation 
      1       0.1429      2.00000
      2       3.7094      2.00000
      3       5.8888      2.00000
      4       5.9441      2.00000
      5       6.7827      2.00000
      6       6.8040      2.00000
      7       7.6224      2.00000
      8       7.8464      2.00000
      9       7.9644      2.00000
     10       8.3607      2.00234
     11       9.8486     -0.00000
     12      12.5221     -0.00000
     13      17.5735      0.00000
     14      31.1758      0.00000
     15      32.9446      0.00000
     16      34.5580      0.00000
     17      36.3977      0.00000
     18      38.7004      0.00000
     19      38.7669      0.00000
     20      40.4302      0.00000
     21      41.3335      0.00000
     22      46.3673      0.00000
     23      47.2102      0.00000
     24      48.1170      0.00000
     25      48.4356      0.00000
     26      49.2663      0.00000
     27      49.4756      0.00000
     28      55.2268      0.00000
     29      57.5025      0.00000
     30      58.3663      0.00000
     31      58.5417      0.00000
     32      61.1884      0.00000
     33      61.8357      0.00000
     34      63.8594      0.00000
     35      63.9935      0.00000
     36      65.0569      0.00000
     37      65.8346      0.00000
     38      70.9667      0.00000
     39      71.2780      0.00000
     40      72.5395      0.00000

 k-point     8 :       0.1818    0.0909    0.0000
  band No.  band energies     occupation 
      1       1.4322      2.00000
      2       4.3217      2.00000
      3       4.9638      2.00000
      4       5.5694      2.00000
      5       6.4083      2.00000
      6       7.2642      2.00000
      7       7.3423      2.00000
      8       8.0286      2.00000
      9       8.5210      2.03741
     10       8.8937      0.72178
     11       9.8312     -0.00000
     12      14.5983      0.00000
     13      17.7660      0.00000
     14      27.4854      0.00000
     15      30.3676      0.00000
     16      32.7417      0.00000
     17      34.8656      0.00000
     18      36.2500      0.00000
     19      39.2099      0.00000
     20      39.5637      0.00000
     21      40.8829      0.00000
     22      45.7845      0.00000
     23      46.0108      0.00000
     24      47.8045      0.00000
     25      50.7505      0.00000
     26      51.3500      0.00000
     27      53.7374      0.00000
     28      57.9537      0.00000
     29      59.3091      0.00000
     30      59.9025      0.00000
     31      60.6426      0.00000
     32      62.1578      0.00000
     33      62.3855      0.00000
     34      63.3337      0.00000
     35      64.7451      0.00000
     36      65.0563      0.00000
[...]
     17      30.1598      0.00000
     18      31.0179      0.00000
     19      36.7524      0.00000
     20      37.5294      0.00000
     21      41.5895      0.00000
     22      42.0312      0.00000
     23      47.3769      0.00000
     24      48.3926      0.00000
     25      54.3621      0.00000
     26      56.1490      0.00000
     27      58.5317      0.00000
     28      59.6357      0.00000
     29      61.1991      0.00000
     30      62.2905      0.00000
     31      63.7977      0.00000
     32      63.8484      0.00000
     33      65.7583      0.00000
     34      66.1013      0.00000
     35      68.9162      0.00000
     36      68.9408      0.00000
     37      69.5212      0.00000
     38      70.3498      0.00000
     39      73.7913      0.00000
     40      74.3476      0.00000

 k-point    91 :       0.4545    0.0909    0.4545
  band No.  band energies     occupation 
      1       3.0855      2.00000
      2       3.2527      2.00000
      3       4.6269      2.00000
      4       4.7192      2.00000
      5       7.5892      2.00000
      6       8.0653      2.00000
      7       8.8999      0.67201
      8       9.2834     -0.01081
      9      10.0025     -0.00000
     10      10.0565     -0.00000
     11      12.7972     -0.00000
     12      13.3634     -0.00000
     13      20.2375      0.00000
     14      20.3068      0.00000
     15      28.8556      0.00000
     16      29.3181      0.00000
     17      30.5191      0.00000
     18      30.8161      0.00000
     19      36.3818      0.00000
     20      36.6841      0.00000
     21      40.9077      0.00000
     22      40.9275      0.00000
     23      47.5064      0.00000
     24      48.5447      0.00000
     25      54.6074      0.00000
     26      56.3586      0.00000
     27      60.4039      0.00000
     28      61.6305      0.00000
     29      62.5216      0.00000
     30      62.7642      0.00000
     31      62.8856      0.00000
     32      63.0853      0.00000
     33      66.1860      0.00000
     34      67.1776      0.00000
     35      69.0743      0.00000
     36      69.5518      0.00000
     37      71.1682      0.00000
     38      71.3688      0.00000
     39      75.1240      0.00000
     40      75.1479      0.00000

 k-point    92 :       0.1818    0.1818    0.4545
  band No.  band energies     occupation 
      1       3.4162      2.00000
      2       3.6343      2.00000
      3       5.4610      2.00000
      4       5.4727      2.00000
      5       6.0262      2.00000
      6       6.0476      2.00000
      7       8.0209      2.00000
      8       8.3051      2.00062
      9       9.7181     -0.00000
     10       9.9304     -0.00000
     11      10.5452     -0.00000
     12      11.1315     -0.00000
     13      26.4663      0.00000
     14      26.8026      0.00000
     15      27.3710      0.00000
     16      28.2874      0.00000
     17      28.9353      0.00000
     18      29.9460      0.00000
     19      40.8656      0.00000
     20      42.0550      0.00000
     21      42.9716      0.00000
     22      44.2612      0.00000
     23      46.2514      0.00000
     24      46.4447      0.00000
     25      53.3351      0.00000
     26      53.8665      0.00000
     27      56.5063      0.00000
     28      57.7948      0.00000
     29      59.9882      0.00000
     30      60.7130      0.00000
     31      62.3681      0.00000
     32      62.5435      0.00000
     33      63.6396      0.00000
     34      63.6884      0.00000
     35      65.3003      0.00000
     36      65.5109      0.00000
     37      68.8894      0.00000
     38      70.9875      0.00000
     39      72.1222      0.00000
     40      72.5020      0.00000

 k-point    93 :       0.2727    0.1818    0.4545
  band No.  band energies     occupation 
      1       3.6605      2.00000
      2       3.7734      2.00000
      3       5.1430      2.00000
      4       5.3671      2.00000
      5       6.4816      2.00000
      6       6.6671      2.00000
      7       7.8822      2.00000
      8       8.1551      2.00001
      9       9.8475     -0.00000
     10      10.1891     -0.00000
     11      12.3625     -0.00000
     12      12.9201     -0.00000
     13      23.4462      0.00000
     14      24.0183      0.00000
     15      26.3996      0.00000
     16      27.1924      0.00000
     17      28.9243      0.00000
     18      30.6867      0.00000
     19      38.5820      0.00000
     20      40.1793      0.00000
     21      41.5714      0.00000
     22      43.1734      0.00000
     23      47.1700      0.00000
     24      47.7025      0.00000
     25      54.9320      0.00000
     26      55.4622      0.00000
     27      57.7904      0.00000
     28      59.6461      0.00000
     29      61.5920      0.00000
     30      62.5760      0.00000
     31      63.6778      0.00000
     32      63.9234      0.00000
     33      64.6968      0.00000
     34      64.7426      0.00000
     35      66.7550      0.00000
     36      67.4799      0.00000
     37      68.9412      0.00000
     38      70.6169      0.00000
     39      73.3047      0.00000
     40      73.8622      0.00000

 k-point    94 :       0.3636    0.1818    0.4545
  band No.  band energies     occupation 
      1       3.6403      2.00000
      2       3.8237      2.00000
      3       4.9906      2.00000
      4       5.1999      2.00000
      5       6.6130      2.00000
      6       7.0053      2.00000
      7       8.2981      2.00052
      8       8.4246      2.00861
      9       9.8221     -0.00000
     10      10.0417     -0.00000
     11      14.2981     -0.00000
     12      14.7724      0.00000
     13      20.6914      0.00000
     14      21.0675      0.00000
     15      25.7458      0.00000
     16      26.5149      0.00000
     17      30.5382      0.00000
     18      31.7100      0.00000
     19      36.9259      0.00000
     20      38.0360      0.00000
     21      40.4764      0.00000
     22      42.1294      0.00000
     23      48.0027      0.00000
     24      48.4457      0.00000
     25      58.0672      0.00000
     26      58.4436      0.00000
     27      58.9371      0.00000
     28      60.0843      0.00000
     29      62.0085      0.00000
     30      62.3284      0.00000
     31      62.6947      0.00000
     32      63.0891      0.00000
     33      65.2452      0.00000
     34      65.5410      0.00000
     35      68.2331      0.00000
     36      68.6919      0.00000
     37      70.8630      0.00000
     38      71.1044      0.00000
     39      72.3840      0.00000
     40      73.3660      0.00000

 k-point    95 :       0.2727    0.2727    0.4545
  band No.  band energies     occupation 
      1       4.1068      2.00000
      2       4.2025      2.00000
      3       5.3007      2.00000
      4       5.5494      2.00000
      5       6.0819      2.00000
      6       6.3377      2.00000
      7       7.7246      2.00000
      8       7.9549      2.00000
      9       9.8408     -0.00000
     10      10.0802     -0.00000
     11      14.8283      0.00000
     12      15.3775      0.00000
     13      21.7052      0.00000
     14      22.1812      0.00000
     15      23.8678      0.00000
     16      24.3146      0.00000
     17      30.7892      0.00000
     18      32.4652      0.00000
     19      36.8985      0.00000
     20      38.3723      0.00000
     21      40.1952      0.00000
     22      41.4166      0.00000
     23      50.2768      0.00000
     24      50.7431      0.00000
     25      55.3948      0.00000
     26      55.3949      0.00000
     27      60.3722      0.00000
     28      62.0614      0.00000
     29      62.1026      0.00000
     30      62.6777      0.00000
     31      63.4230      0.00000
     32      63.6309      0.00000
     33      63.9192      0.00000
     34      64.6489      0.00000
     35      67.7923      0.00000
     36      68.0263      0.00000
     37      70.7485      0.00000
     38      71.1526      0.00000
     39      71.3895      0.00000
     40      71.3990      0.00000

 k-point    96 :       0.3636    0.2727    0.4545
  band No.  band energies     occupation 
      1       4.3569      2.00000
      2       4.5207      2.00000
      3       5.2115      2.00000
      4       5.3107      2.00000
      5       6.0864      2.00000
      6       6.2477      2.00000
      7       7.7799      2.00000
      8       7.9504      2.00000
      9       9.8196     -0.00000
     10       9.9065     -0.00000
     11      16.8331      0.00000
     12      17.0061      0.00000
     13      19.8872      0.00000
     14      20.2723      0.00000
     15      23.1954      0.00000
     16      23.6470      0.00000
     17      32.5359      0.00000
     18      33.4875      0.00000
     19      35.9731      0.00000
     20      36.1328      0.00000
     21      39.9647      0.00000
     22      40.7939      0.00000
     23      51.6606      0.00000
     24      52.3259      0.00000
     25      56.4952      0.00000
     26      56.9277      0.00000
     27      59.9719      0.00000
     28      60.3558      0.00000
     29      61.9463      0.00000
     30      62.2426      0.00000
     31      63.4106      0.00000
     32      63.6688      0.00000
     33      64.9431      0.00000
     34      65.2351      0.00000
     35      66.1810      0.00000
     36      67.7134      0.00000
     37      69.4053      0.00000
     38      70.8255      0.00000
     39      73.3156      0.00000
     40      73.7254      0.00000


--------------------------------------------------------------------------------------------------------


 soft charge-density along one line, spin component           1
         0         1         2         3         4         5         6         7         8         9
x     7.7905    0.0000    0.0505   -0.0875   -0.0472   -0.0818    0.0225    0.0000    0.0008   -0.0014
x     0.0000    0.0000
y     7.7905    0.0000    0.0505    0.0875   -0.0472    0.0818    0.0225   -0.0000    0.0008    0.0014
y     0.0000    0.0000
z     7.7905    0.0000    0.0000    0.0000    0.3797    0.0000    0.0000   -0.0000   -0.1410   -0.0000
z     0.0000    0.0000    0.0229   -0.0000    0.0000    0.0000    0.0000    0.0000
 total charge-density along one line
x    16.0000    0.0000    1.3691   -2.3714    0.2385    0.4131   -0.0010   -0.0000    0.0024   -0.0041
x    -0.0005   -0.0009    0.0009   -0.0000   -0.0001    0.0002    0.0001    0.0001   -0.0001    0.0000
x     0.0000    0.0000
y    16.0000    0.0000    1.3691    2.3714    0.2385   -0.4131   -0.0010    0.0000    0.0024    0.0041
y    -0.0005    0.0009    0.0009    0.0000   -0.0001   -0.0002    0.0001   -0.0001   -0.0001   -0.0000
y     0.0000   -0.0000
z    16.0000    0.0000    0.0000    0.0000    5.8221   -0.0000   -0.0000   -0.0000    1.1931    0.0000
z     0.0000   -0.0000    0.0235   -0.0000    0.0000   -0.0000    0.0031    0.0000   -0.0000   -0.0000
z    -0.0006   -0.0000   -0.0000   -0.0000    0.0002    0.0000   -0.0000    0.0000   -0.0001   -0.0000
z     0.0000    0.0000    0.0001    0.0000
 
 pseudopotential strength for first ion, spin component:           1
 -3.306   0.000  -0.000  -0.000  -0.000  -3.902   0.000  -0.000
  0.000  -3.279  -0.000  -0.000   0.000   0.000  -3.876  -0.000
 -0.000  -0.000  -3.288  -0.000  -0.000  -0.000  -0.000  -3.885
 -0.000  -0.000  -0.000  -3.279   0.000  -0.000  -0.000  -0.000
 -0.000   0.000  -0.000   0.000  -3.306  -0.000   0.000  -0.000
 -3.902   0.000  -0.000  -0.000  -0.000  -4.455   0.000  -0.000
  0.000  -3.876  -0.000  -0.000   0.000   0.000  -4.429  -0.000
 -0.000  -0.000  -3.885  -0.000  -0.000  -0.000  -0.000  -4.438
 -0.000  -0.000  -0.000  -3.876   0.000  -0.000  -0.000  -0.000
 -0.000   0.000  -0.000   0.000  -3.902  -0.000   0.000  -0.000
  0.000   0.000  -0.001  -0.000  -0.000   0.000   0.000  -0.001
  0.000   0.000  -0.001  -0.000  -0.000   0.000   0.000  -0.001
 -0.000  -0.000  -0.000  -0.000  -0.001  -0.000  -0.000  -0.000
 -0.000  -0.000  -0.000   0.000  -0.000  -0.000  -0.000  -0.000
 -0.001  -0.000   0.000  -0.000  -0.000  -0.001  -0.000   0.000
 -0.000  -0.000  -0.000  -0.000  -0.001  -0.000  -0.000  -0.000
 -0.000  -0.000  -0.000   0.000  -0.000  -0.000  -0.000  -0.000
 -0.001  -0.000   0.000  -0.000  -0.000  -0.001  -0.000   0.000
 total augmentation occupancy for first ion, spin component:           1
  1.983   0.000   0.000   0.000  -0.000  -1.694   0.000  -0.000   0.000  -0.000   0.000  -0.000   0.000   0.000   0.042  -0.000
  0.000   2.531  -0.000  -0.000  -0.000   0.000  -1.946   0.000   0.000   0.000  -0.000   0.000  -0.000   0.000   0.000   0.000
  0.000   0.000   1.565  -0.000  -0.000  -0.000   0.000  -1.306  -0.000   0.000   0.057  -0.013  -0.000   0.000   0.000   0.000
  0.000  -0.000  -0.000   2.531  -0.000   0.000   0.000   0.000  -1.946  -0.000  -0.000   0.000   0.000   0.000   0.000   0.000
  0.000  -0.000  -0.000   0.000   1.983  -0.000   0.000   0.000   0.000  -1.694   0.000   0.000   0.042   0.000  -0.000  -0.001
 -1.694   0.000  -0.000   0.000  -0.000   2.797   0.000   0.000   0.000   0.000   0.000   0.000  -0.000   0.000  -0.055   0.000
  0.000  -1.946  -0.000   0.000   0.000   0.000   2.713   0.000  -0.000   0.000   0.000   0.000   0.000   0.000   0.000  -0.000
 -0.000  -0.000  -1.306   0.000   0.000   0.000   0.000   2.421   0.000  -0.000  -0.140   0.004   0.000   0.000  -0.000  -0.000
  0.000   0.000   0.000  -1.946   0.000   0.000  -0.000  -0.000   2.713  -0.000  -0.000   0.000   0.000   0.000   0.000   0.000
 -0.000   0.000   0.000   0.000  -1.694   0.000   0.000  -0.000  -0.000   2.797   0.000  -0.000  -0.055  -0.000   0.000   0.002
  0.000  -0.000   0.057   0.000   0.000   0.000  -0.000  -0.140   0.000   0.000   3.182  -0.383  -0.000   0.000  -0.000   0.000
 -0.000   0.000  -0.013   0.000   0.000  -0.000   0.000   0.004   0.000  -0.000  -0.383   0.053   0.000   0.000   0.000   0.000
  0.000   0.000  -0.000   0.000   0.042  -0.000  -0.000   0.000  -0.000  -0.055  -0.000  -0.000   0.444  -0.000  -0.000  -0.032
  0.000   0.000   0.000   0.000   0.000  -0.000   0.000   0.000   0.000  -0.000   0.000   0.000  -0.000   0.417   0.000   0.000
  0.042   0.000   0.000   0.000  -0.000  -0.055   0.000  -0.000   0.000   0.000   0.000   0.000  -0.000  -0.000   0.444   0.000
 -0.000   0.000   0.000   0.000  -0.001   0.000   0.000  -0.000   0.000   0.002   0.000   0.000  -0.032  -0.000   0.000   0.003
 -0.000  -0.000   0.000  -0.000  -0.000   0.000   0.000   0.000   0.000  -0.000   0.000   0.000   0.000  -0.037   0.000  -0.000
 -0.001   0.000  -0.000  -0.000   0.000   0.002   0.000   0.000   0.000  -0.000   0.000   0.000   0.000   0.000  -0.032  -0.000


------------------------ aborting loop because EDIFF is reached ----------------------------------------


    CHARGE:  cpu time    0.0174: real time    0.0174
    FORLOC:  cpu time    0.0002: real time    0.0002
    FORNL :  cpu time    0.0840: real time    0.0840
    STRESS:  cpu time    0.1254: real time    0.1254
    FORCOR:  cpu time    0.0030: real time    0.0030
    FORHAR:  cpu time    0.0007: real time    0.0007
    MIXING:  cpu time    0.0002: real time    0.0002

  FORCE on cell =-STRESS in cart. coord.  units (eV):
  Direction    XX          YY          ZZ          XY          YZ          ZX
  --------------------------------------------------------------------------------------
  Alpha Z   158.92214   158.92214   158.92214
  Ewald    -410.99379  -410.99379  -470.52150     0.00000     0.00000     0.00000
  Hartree    57.48972    57.48972    37.13902    -0.00000    -0.00000    -0.00000
  E(xc)     -80.49070   -80.49070   -80.12809     0.00006     0.00000     0.00000
  Local     103.42095   103.42104   178.35472    -0.00048     0.00000    -0.00000
  n-local   -48.34869   -47.87595   -51.30513    -5.63522     1.44004     0.94438
  augment    74.54678    74.54662    75.40634     0.00047    -0.00000     0.00000
  Kinetic   159.25081   152.66987   153.14172     1.63523    -0.88568     0.21587
  Fock        0.00000     0.00000     0.00000     0.00000     0.00000     0.00000
  -------------------------------------------------------------------------------------
  Total      10.74309    10.74309     1.00922    -0.00000    -0.00000     0.00000
  in kB     989.46328   989.46328    92.95168    -0.00000    -0.00000     0.00000
  external pressure =      690.63 kB  Pullay stress =        0.00 kB


 VOLUME and BASIS-vectors are now :
 -----------------------------------------------------------------------------
  energy-cutoff  :      280.00
  volume of cell :       17.40
      direct lattice vectors                 reciprocal lattice vectors
     2.236800000  0.000000000  0.000000000     0.447067239  0.258114391  0.000000000
    -1.118400000  1.937125623  0.000000000     0.000000000  0.516228781  0.000000000
     0.000000000  0.000000000  4.014720000     0.000000000  0.000000000  0.249083373

  length of vectors
     2.236800000  2.236800000  4.014720000     0.516228781  0.516228781  0.249083373


 FORCES acting on ions
    electron-ion (+dipol)            ewald-force                    non-local-force                 convergence-correction
 -----------------------------------------------------------------------------------------------
   0.831E-06 -.514E-06 0.806E-16   0.550E-12 -.326E-12 -.257E-13   -.105E-16 0.128E-16 0.188E-18   -.665E-08 0.384E-08 0.347E-13
   0.573E-06 0.240E-05 0.611E-13   -.551E-12 0.317E-12 0.257E-13   0.146E-16 -.127E-16 -.379E-19   0.665E-08 -.384E-08 0.266E-13
 -----------------------------------------------------------------------------------------------
   0.140E-05 0.189E-05 0.611E-13   -.155E-14 -.904E-14 0.300E-17   0.416E-17 0.761E-19 0.150E-18   0.179E-11 -.922E-12 0.613E-13
 
 
 POSITION                                       TOTAL-FORCE (eV/Angst)
 -----------------------------------------------------------------------------------
      0.00000      0.00000      0.00000        -0.000000      0.000000      0.000000
      0.00000      1.29142      2.00736         0.000000     -0.000000     -0.000000
 -----------------------------------------------------------------------------------
    total drift:                                0.000001      0.000002      0.000000


--------------------------------------------------------------------------------------------------------



  FREE ENERGIE OF THE ION-ELECTRON SYSTEM (eV)
  ---------------------------------------------------
  free  energy   TOTEN  =       -15.40686410 eV

  energy  without entropy=      -15.40818766  energy(sigma->0) =      -15.40730529
 


--------------------------------------------------------------------------------------------------------


    POTLOK:  cpu time    0.0051: real time    0.0051


--------------------------------------------------------------------------------------------------------


 writing wavefunctions
     LOOP+:  cpu time    9.8309: real time    9.8516
    4ORBIT:  cpu time    0.0000: real time    0.0000

 total amount of memory used by VASP MPI-rank0    47721. kBytes
=======================================================================

   base      :      30000. kBytes
   nonl-proj :       2715. kBytes
   grid      :        721. kBytes
   one-center:         31. kBytes
   wavefun   :      14254. kBytes
 
  
  
 General timing and accounting informations for this job:
 ========================================================
  
                  Total CPU time used (sec):        9.987
                            User time (sec):        9.939
                          System time (sec):        0.048
                         Elapsed time (sec):        9.999
  
                   Maximum memory used (kb):       52708.
                   Average memory used (kb):          N/A
  
                          Minor page faults:         6923
                          Major page faults:            0
                 Voluntary context switches:           26
