 vasp.6.2.0 18Jan21 (build Mar 17 2021 09:06:54) complex                        
  
 POSCAR found type information on POSCAR Fe
 POSCAR found :  1 types and       2 ions
 LDA part: xc-table for Pade appr. of Perdew
 POSCAR, INCAR and KPOINTS ok, starting setup
 FFT: planning ...
 WAVECAR not read
 WARNING: chargedensity file is incomplete
 entering main loop
       N       E                     dE             d eps       ncg     rms          rms(c)
DAV:   1     0.596860043382E+02    0.59686E+02   -0.24242E+03  9504   0.335E+02
DAV:   2    -0.140894552990E+02   -0.73775E+02   -0.63183E+02  7968   0.978E+01
DAV:   3    -0.180445999562E+02   -0.39551E+01   -0.37968E+01  9592   0.235E+01
DAV:   4    -0.180577329018E+02   -0.13133E-01   -0.13128E-01  8784   0.141E+00
DAV:   5    -0.180577404140E+02   -0.75122E-05   -0.75113E-05  9376   0.324E-02    0.204E+01
DAV:   6    -0.155614332937E+02    0.24963E+01   -0.12823E+00 11304   0.208E+01    0.188E+00
DAV:   7    -0.154509251420E+02    0.11051E+00   -0.48655E-02  9544   0.287E+00    0.178E+00
DAV:   8    -0.154111048942E+02    0.39820E-01   -0.23519E-03 10632   0.299E-01    0.525E-01
DAV:   9    -0.154069176800E+02    0.41872E-02   -0.57436E-04 10288   0.134E-01    0.673E-02
DAV:  10    -0.154069017033E+02    0.15977E-04   -0.16375E-05  8408   0.211E-02    0.290E-02
DAV:  11    -0.154068643957E+02    0.37308E-04   -0.40290E-07  8544   0.459E-03    0.269E-03
DAV:  12    -0.154068625656E+02    0.18301E-05   -0.89351E-08  6616   0.129E-03    0.125E-03
DAV:  13    -0.154068639585E+02   -0.13930E-05   -0.91746E-09  5040   0.443E-04    0.198E-04
DAV:  14    -0.154068641009E+02   -0.14231E-06   -0.27161E-10  4768   0.808E-05
   1 F= -.15406864E+02 E0= -.15407305E+02  d E =0.132356E-02
 writing wavefunctions
