<?xml version="1.0" encoding="ISO-8859-1"?>
<modeling>
 <generator>
  <i name="program" type="string">vasp </i>
  <i name="version" type="string">6.2.0  </i>
  <i name="subversion" type="string">18Jan21 (build Mar 17 2021 09:06:54) complex                          serial </i>
  <i name="platform" type="string">LinuxIFC </i>
  <i name="date" type="string">2021 09 09 </i>
  <i name="time" type="string">11:58:41 </i>
 </generator>
 <incar>
  <i type="string" name="PREC">normal</i>
  <i type="int" name="ICHARG">     1</i>
  <i type="int" name="IBRION">     1</i>
  <i name="EDIFF">      0.00000100</i>
  <i type="int" name="NSW">     0</i>
  <i type="int" name="ISIF">     2</i>
  <i name="ENCUT">    280.00000000</i>
  <i type="int" name="NBANDS">    40</i>
  <i type="int" name="ISMEAR">     1</i>
  <i name="SIGMA">      0.20000000</i>
  <i type="logical" name="LCHARG"> T  </i>
  <i type="int" name="KPAR">     1</i>
  <i type="int" name="NCORE">     1</i>
  <i type="string" name="GGA">PE</i>
 </incar>
 <primitive_cell>
  <structure name="primitive_cell" >
   <crystal>
    <varray name="basis" >
     <v>       2.23680000       0.00000000       0.00000000 </v>
     <v>      -1.11840000       1.93712562       0.00000000 </v>
     <v>       0.00000000       0.00000000       4.01472000 </v>
    </varray>
    <i name="volume">     17.39563159 </i>
    <varray name="rec_basis" >
     <v>       0.44706724       0.25811439       0.00000000 </v>
     <v>       0.00000000       0.51622878       0.00000000 </v>
     <v>       0.00000000       0.00000000       0.24908337 </v>
    </varray>
   </crystal>
   <varray name="positions" >
    <v>       0.00000000       0.00000000       0.00000000 </v>
    <v>       0.33333333       0.66666667       0.50000000 </v>
   </varray>
  </structure>
  <varray name="primitive_index" >
   <v type="int" >        1 </v>
   <v type="int" >        2 </v>
  </varray>
 </primitive_cell>
 <kpoints>
  <generation param="Monkhorst-Pack">
   <v type="int" name="divisions">      11       11       11 </v>
   <v name="usershift">      0.00000000       0.00000000       0.00000000 </v>
   <v name="genvec1">      0.09090909      -0.00000000       0.00000000 </v>
   <v name="genvec2">      0.00000000       0.09090909       0.00000000 </v>
   <v name="genvec3">      0.00000000       0.00000000       0.09090909 </v>
   <v name="shift">      0.00000000       0.00000000       0.00000000 </v>
  </generation>
  <varray name="kpointlist" >
   <v>       0.00000000       0.00000000       0.00000000 </v>
   <v>       0.09090909       0.00000000       0.00000000 </v>
   <v>       0.18181818       0.00000000       0.00000000 </v>
   <v>       0.27272727       0.00000000       0.00000000 </v>
   <v>       0.36363636       0.00000000       0.00000000 </v>
   <v>       0.45454545       0.00000000       0.00000000 </v>
   <v>       0.09090909       0.09090909       0.00000000 </v>
   <v>       0.18181818       0.09090909       0.00000000 </v>
   <v>       0.27272727       0.09090909       0.00000000 </v>
   <v>       0.36363636       0.09090909       0.00000000 </v>
   <v>       0.45454545       0.09090909       0.00000000 </v>
   <v>       0.18181818       0.18181818       0.00000000 </v>
   <v>       0.27272727       0.18181818       0.00000000 </v>
   <v>       0.36363636       0.18181818       0.00000000 </v>
   <v>       0.27272727       0.27272727       0.00000000 </v>
   <v>       0.36363636       0.27272727       0.00000000 </v>
   <v>       0.00000000       0.00000000       0.09090909 </v>
   <v>       0.09090909       0.00000000       0.09090909 </v>
   <v>       0.18181818       0.00000000       0.09090909 </v>
   <v>       0.27272727       0.00000000       0.09090909 </v>
   <v>       0.36363636       0.00000000       0.09090909 </v>
   <v>       0.45454545       0.00000000       0.09090909 </v>
   <v>       0.09090909       0.09090909       0.09090909 </v>
   <v>       0.18181818       0.09090909       0.09090909 </v>
   <v>       0.27272727       0.09090909       0.09090909 </v>
   <v>       0.36363636       0.09090909       0.09090909 </v>
   <v>       0.45454545       0.09090909       0.09090909 </v>
   <v>       0.18181818       0.18181818       0.09090909 </v>
   <v>       0.27272727       0.18181818       0.09090909 </v>
   <v>       0.36363636       0.18181818       0.09090909 </v>
   <v>       0.27272727       0.27272727       0.09090909 </v>
   <v>       0.36363636       0.27272727       0.09090909 </v>
   <v>       0.00000000       0.00000000       0.18181818 </v>
   <v>       0.09090909       0.00000000       0.18181818 </v>
   <v>       0.18181818       0.00000000       0.18181818 </v>
   <v>       0.27272727       0.00000000       0.18181818 </v>
   <v>       0.36363636       0.00000000       0.18181818 </v>
   <v>       0.45454545       0.00000000       0.18181818 </v>
   <v>       0.09090909       0.09090909       0.18181818 </v>
   <v>       0.18181818       0.09090909       0.18181818 </v>
   <v>       0.27272727       0.09090909       0.18181818 </v>
   <v>       0.36363636       0.09090909       0.18181818 </v>
   <v>       0.45454545       0.09090909       0.18181818 </v>
   <v>       0.18181818       0.18181818       0.18181818 </v>
   <v>       0.27272727       0.18181818       0.18181818 </v>
   <v>       0.36363636       0.18181818       0.18181818 </v>
   <v>       0.27272727       0.27272727       0.18181818 </v>
   <v>       0.36363636       0.27272727       0.18181818 </v>
   <v>       0.00000000       0.00000000       0.27272727 </v>
   <v>       0.09090909       0.00000000       0.27272727 </v>
   <v>       0.18181818       0.00000000       0.27272727 </v>
   <v>       0.27272727       0.00000000       0.27272727 </v>
   <v>       0.36363636       0.00000000       0.27272727 </v>
   <v>       0.45454545       0.00000000       0.27272727 </v>
   <v>       0.09090909       0.09090909       0.27272727 </v>
   <v>       0.18181818       0.09090909       0.27272727 </v>
   <v>       0.27272727       0.09090909       0.27272727 </v>
   <v>       0.36363636       0.09090909       0.27272727 </v>
   <v>       0.45454545       0.09090909       0.27272727 </v>
   <v>       0.18181818       0.18181818       0.27272727 </v>
   <v>       0.27272727       0.18181818       0.27272727 </v>
   <v>       0.36363636       0.18181818       0.27272727 </v>
   <v>       0.27272727       0.27272727       0.27272727 </v>
   <v>       0.36363636       0.27272727       0.27272727 </v>
   <v>       0.00000000       0.00000000       0.36363636 </v>
   <v>       0.09090909       0.00000000       0.36363636 </v>
   <v>       0.18181818       0.00000000       0.36363636 </v>
   <v>       0.27272727       0.00000000       0.36363636 </v>
   <v>       0.36363636       0.00000000       0.36363636 </v>
   <v>       0.45454545       0.00000000       0.36363636 </v>
   <v>       0.09090909       0.09090909       0.36363636 </v>
   <v>       0.18181818       0.09090909       0.36363636 </v>
   <v>       0.27272727       0.09090909       0.36363636 </v>
   <v>       0.36363636       0.09090909       0.36363636 </v>
   <v>       0.45454545       0.09090909       0.36363636 </v>
   <v>       0.18181818       0.18181818       0.36363636 </v>
   <v>       0.27272727       0.18181818       0.36363636 </v>
   <v>       0.36363636       0.18181818       0.36363636 </v>
   <v>       0.27272727       0.27272727       0.36363636 </v>
   <v>       0.36363636       0.27272727       0.36363636 </v>
   <v>       0.00000000       0.00000000       0.45454545 </v>
   <v>       0.09090909       0.00000000       0.45454545 </v>
   <v>       0.18181818       0.00000000       0.45454545 </v>
   <v>       0.27272727       0.00000000       0.45454545 </v>
   <v>       0.36363636       0.00000000       0.45454545 </v>
   <v>       0.45454545       0.00000000       0.45454545 </v>
   <v>       0.09090909       0.09090909       0.45454545 </v>
   <v>       0.18181818       0.09090909       0.45454545 </v>
   <v>       0.27272727       0.09090909       0.45454545 </v>
   <v>       0.36363636       0.09090909       0.45454545 </v>
   <v>       0.45454545       0.09090909       0.45454545 </v>
   <v>       0.18181818       0.18181818       0.45454545 </v>
   <v>       0.27272727       0.18181818       0.45454545 </v>
   <v>       0.36363636       0.18181818       0.45454545 </v>
   <v>       0.27272727       0.27272727       0.45454545 </v>
   <v>       0.36363636       0.27272727       0.45454545 </v>
  </varray>
  <varray name="weights" >
   <v>       0.00075131 </v>
   <v>       0.00450789 </v>
   <v>       0.00450789 </v>
   <v>       0.00450789 </v>
   <v>       0.00450789 </v>
   <v>       0.00450789 </v>
   <v>       0.00450789 </v>
   <v>       0.00901578 </v>
   <v>       0.00901578 </v>
   <v>       0.00901578 </v>
   <v>       0.00450789 </v>
   <v>       0.00450789 </v>
   <v>       0.00901578 </v>
   <v>       0.00901578 </v>
   <v>       0.00450789 </v>
   <v>       0.00450789 </v>
   <v>       0.00150263 </v>
   <v>       0.00901578 </v>
   <v>       0.00901578 </v>
   <v>       0.00901578 </v>
   <v>       0.00901578 </v>
   <v>       0.00901578 </v>
   <v>       0.00901578 </v>
   <v>       0.01803156 </v>
   <v>       0.01803156 </v>
   <v>       0.01803156 </v>
   <v>       0.00901578 </v>
   <v>       0.00901578 </v>
   <v>       0.01803156 </v>
   <v>       0.01803156 </v>
   <v>       0.00901578 </v>
   <v>       0.00901578 </v>
   <v>       0.00150263 </v>
   <v>       0.00901578 </v>
   <v>       0.00901578 </v>
   <v>       0.00901578 </v>
   <v>       0.00901578 </v>
   <v>       0.00901578 </v>
   <v>       0.00901578 </v>
   <v>       0.01803156 </v>
   <v>       0.01803156 </v>
   <v>       0.01803156 </v>
   <v>       0.00901578 </v>
   <v>       0.00901578 </v>
   <v>       0.01803156 </v>
   <v>       0.01803156 </v>
   <v>       0.00901578 </v>
   <v>       0.00901578 </v>
   <v>       0.00150263 </v>
   <v>       0.00901578 </v>
   <v>       0.00901578 </v>
   <v>       0.00901578 </v>
   <v>       0.00901578 </v>
   <v>       0.00901578 </v>
   <v>       0.00901578 </v>
   <v>       0.01803156 </v>
   <v>       0.01803156 </v>
   <v>       0.01803156 </v>
   <v>       0.00901578 </v>
   <v>       0.00901578 </v>
   <v>       0.01803156 </v>
   <v>       0.01803156 </v>
   <v>       0.00901578 </v>
   <v>       0.00901578 </v>
   <v>       0.00150263 </v>
   <v>       0.00901578 </v>
   <v>       0.00901578 </v>
   <v>       0.00901578 </v>
   <v>       0.00901578 </v>
   <v>       0.00901578 </v>
   <v>       0.00901578 </v>
   <v>       0.01803156 </v>
   <v>       0.01803156 </v>
   <v>       0.01803156 </v>
   <v>       0.00901578 </v>
   <v>       0.00901578 </v>
   <v>       0.01803156 </v>
   <v>       0.01803156 </v>
   <v>       0.00901578 </v>
   <v>       0.00901578 </v>
   <v>       0.00150263 </v>
   <v>       0.00901578 </v>
   <v>       0.00901578 </v>
   <v>       0.00901578 </v>
   <v>       0.00901578 </v>
   <v>       0.00901578 </v>
   <v>       0.00901578 </v>
   <v>       0.01803156 </v>
   <v>       0.01803156 </v>
   <v>       0.01803156 </v>
   <v>       0.00901578 </v>
   <v>       0.00901578 </v>
   <v>       0.01803156 </v>
   <v>       0.01803156 </v>
   <v>       0.00901578 </v>
   <v>       0.00901578 </v>
  </varray>
 </kpoints>
 <parameters>
  <separator name="general" >
   <i type="string" name="SYSTEM">unknown system</i>
   <i type="logical" name="LCOMPAT"> F  </i>
  </separator>
  <separator name="electronic" >
   <i type="string" name="PREC">normal</i>
   <i name="ENMAX">    280.00000000</i>
   <i name="ENAUG">    511.36800000</i>
   <i name="EDIFF">      0.00000100</i>
   <i type="int" name="IALGO">    38</i>
   <i type="int" name="IWAVPR">     0</i>
   <i type="int" name="NBANDS">    40</i>
   <i type="int" name="NBANDSLOW">    -1</i>
   <i type="int" name="NBANDSHIGH">    -1</i>
   <i name="NELECT">     16.00000000</i>
   <i type="int" name="TURBO">     0</i>
   <i type="int" name="IRESTART">     0</i>
   <i type="int" name="NREBOOT">     0</i>
   <i type="int" name="NMIN">     0</i>
   <i name="EREF">      0.00000000</i>
   <separator name="electronic smearing" >
    <i type="int" name="ISMEAR">     1</i>
    <i name="SIGMA">      0.20000000</i>
    <i name="KSPACING">      0.50000000</i>
    <i type="logical" name="KGAMMA"> T  </i>
    <i type="logical" name="KBLOWUP"> T  </i>
   </separator>
   <separator name="electronic projectors" >
    <i type="logical" name="LREAL"> F  </i>
    <v name="ROPT">      0.00000000</v>
    <i type="int" name="LMAXPAW">  -100</i>
    <i type="int" name="LMAXMIX">     2</i>
    <i type="logical" name="NLSPLINE"> F  </i>
   </separator>
   <separator name="electronic startup" >
    <i type="int" name="ISTART">     0</i>
    <i type="int" name="ICHARG">     1</i>
    <i type="int" name="INIWAV">     1</i>
   </separator>
   <separator name="electronic spin" >
    <i type="int" name="ISPIN">     1</i>
    <i type="logical" name="LNONCOLLINEAR"> F  </i>
    <v name="MAGMOM">      1.00000000      1.00000000</v>
    <i name="NUPDOWN">     -1.00000000</i>
    <i type="logical" name="LSORBIT"> F  </i>
    <v name="SAXIS">      0.00000000      0.00000000      1.00000000</v>
    <i type="logical" name="LSPIRAL"> F  </i>
    <v name="QSPIRAL">      0.00000000      0.00000000      0.00000000</v>
    <i type="logical" name="LZEROZ"> F  </i>
   </separator>
   <separator name="electronic exchange-correlation" >
    <i type="logical" name="LASPH"> F  </i>
    <i type="logical" name="LMETAGGA"> F  </i>
   </separator>
   <separator name="electronic convergence" >
    <i type="int" name="NELM">    60</i>
    <i type="int" name="NELMDL">    -5</i>
    <i type="int" name="NELMIN">     2</i>
    <i name="ENINI">    280.00000000</i>
    <separator name="electronic convergence detail" >
     <i type="logical" name="LDIAG"> T  </i>
     <i type="logical" name="LSUBROT"> F  </i>
     <i name="WEIMIN">      0.00000000</i>
     <i name="EBREAK">      0.00000001</i>
     <i name="DEPER">      0.30000000</i>
     <i type="int" name="NRMM">     4</i>
     <i name="TIME">      0.40000000</i>
    </separator>
   </separator>
   <separator name="electronic mixer" >
    <i name="AMIX">      0.40000000</i>
    <i name="BMIX">      1.00000000</i>
    <i name="AMIN">      0.10000000</i>
    <i name="AMIX_MAG">      1.60000000</i>
    <i name="BMIX_MAG">      1.00000000</i>
    <separator name="electronic mixer details" >
     <i type="int" name="IMIX">     4</i>
     <i type="logical" name="MIXFIRST"> F  </i>
     <i type="int" name="MAXMIX">   -45</i>
     <i name="WC">    100.00000000</i>
     <i type="int" name="INIMIX">     1</i>
     <i type="int" name="MIXPRE">     1</i>
     <i type="int" name="MREMOVE">     5</i>
    </separator>
   </separator>
   <separator name="electronic dipolcorrection" >
    <i type="logical" name="LDIPOL"> F  </i>
    <i type="logical" name="LMONO"> F  </i>
    <i type="int" name="IDIPOL">     0</i>
    <i name="EPSILON">      1.00000000</i>
    <v name="DIPOL">   -100.00000000   -100.00000000   -100.00000000</v>
    <i name="EFIELD">      0.00000000</i>
   </separator>
  </separator>
  <separator name="grids" >
   <i type="int" name="NGX">    10</i>
   <i type="int" name="NGY">    10</i>
   <i type="int" name="NGZ">    16</i>
   <i type="int" name="NGXF">    20</i>
   <i type="int" name="NGYF">    20</i>
   <i type="int" name="NGZF">    32</i>
   <i type="logical" name="ADDGRID"> F  </i>
  </separator>
  <separator name="ionic" >
   <i type="int" name="NSW">     0</i>
   <i type="int" name="IBRION">    -1</i>
   <i type="int" name="MDALGO">     0</i>
   <i type="int" name="ISIF">     2</i>
   <i name="PSTRESS">      0.00000000</i>
   <i name="EDIFFG">      0.00001000</i>
   <i type="int" name="NFREE">     0</i>
   <i name="POTIM">      0.50000000</i>
   <i name="SMASS">     -3.00000000</i>
   <i name="SCALEE">      1.00000000</i>
  </separator>
  <separator name="ionic md" >
   <i name="TEBEG">      0.00010000</i>
   <i name="TEEND">      0.00010000</i>
   <i type="int" name="NBLOCK">     1</i>
   <i type="int" name="KBLOCK">     1</i>
   <i type="int" name="NPACO">   256</i>
   <i name="APACO">     16.00000000</i>
  </separator>
  <separator name="symmetry" >
   <i type="int" name="ISYM">     2</i>
   <i name="SYMPREC">      0.00001000</i>
  </separator>
  <separator name="dos" >
   <i type="int" name="LORBIT">     0</i>
   <v name="RWIGS">     -1.00000000</v>
   <i type="int" name="NEDOS">   301</i>
   <i name="EMIN">     10.00000000</i>
   <i name="EMAX">    -10.00000000</i>
   <i name="EFERMI">      0.00000000</i>
  </separator>
  <separator name="writing" >
   <i type="int" name="NWRITE">     2</i>
   <i type="logical" name="LWAVE"> T  </i>
   <i type="logical" name="LDOWNSAMPLE"> F  </i>
   <i type="logical" name="LCHARG"> T  </i>
   <i type="logical" name="LPARD"> F  </i>
   <i type="logical" name="LVTOT"> F  </i>
   <i type="logical" name="LVHAR"> F  </i>
   <i type="logical" name="LELF"> F  </i>
   <i type="logical" name="LOPTICS"> F  </i>
   <v name="STM">      0.00000000      0.00000000      0.00000000      0.00000000      0.00000000      0.00000000      0.00000000</v>
  </separator>
  <separator name="performance" >
   <i type="int" name="NPAR">     1</i>
   <i type="int" name="NSIM">     4</i>
   <i type="int" name="NBLK">    -1</i>
   <i type="logical" name="LPLANE"> T  </i>
   <i type="logical" name="LSCALAPACK"> F  </i>
   <i type="logical" name="LSCAAWARE"> F  </i>
   <i type="logical" name="LSCALU"> F  </i>
   <i type="logical" name="LASYNC"> F  </i>
   <i type="logical" name="LORBITALREAL"> F  </i>
  </separator>
  <separator name="miscellaneous" >
   <i type="int" name="IDIOT">     3</i>
   <i type="int" name="PHON_NSTRUCT">    -1</i>
   <i type="logical" name="LMUSIC"> F  </i>
   <v name="POMASS">     55.84700000</v>
   <v name="DARWINR">      0.00000000</v>
   <v name="DARWINV">      1.00000000</v>
   <i type="logical" name="LCORR"> T  </i>
  </separator>
  <i type="logical" name="GGA_COMPAT"> T  </i>
  <i type="logical" name="LBERRY"> F  </i>
  <i type="int" name="ICORELEVEL">     0</i>
  <i type="logical" name="LDAU"> F  </i>
  <i type="int" name="I_CONSTRAINED_M">     0</i>
  <separator name="electronic exchange-correlation" >
   <i type="string" name="GGA">PE</i>
   <i type="int" name="VOSKOWN">     0</i>
   <i type="logical" name="LHFCALC"> F  </i>
   <i type="string" name="PRECFOCK"></i>
   <i type="logical" name="LSYMGRAD"> F  </i>
   <i type="logical" name="LHFONE"> F  </i>
   <i type="logical" name="LRHFCALC"> F  </i>
   <i type="logical" name="LTHOMAS"> F  </i>
   <i type="logical" name="LMODELHF"> F  </i>
   <i type="logical" name="LFOCKACE"> F  </i>
   <i name="ENCUT4O">     -1.00000000</i>
   <i type="int" name="EXXOEP">     0</i>
   <i type="int" name="FOURORBIT">     0</i>
   <i name="AEXX">      0.00000000</i>
   <i name="HFALPHA">      0.00000000</i>
   <i name="MCALPHA">      0.00000000</i>
   <i name="ALDAX">      1.00000000</i>
   <i name="AGGAX">      1.00000000</i>
   <i name="ALDAC">      1.00000000</i>
   <i name="AGGAC">      1.00000000</i>
   <i type="int" name="NKREDX">     1</i>
   <i type="int" name="NKREDY">     1</i>
   <i type="int" name="NKREDZ">     1</i>
   <i type="logical" name="SHIFTRED"> F  </i>
   <i type="logical" name="ODDONLY"> F  </i>
   <i type="logical" name="EVENONLY"> F  </i>
   <i type="int" name="LMAXFOCK">     0</i>
   <i type="int" name="NMAXFOCKAE">     0</i>
   <i type="logical" name="LFOCKAEDFT"> F  </i>
   <i name="HFSCREEN">      0.00000000</i>
   <i name="HFSCREENC">      0.00000000</i>
   <i type="int" name="NBANDSGWLOW">     0</i>
  </separator>
  <separator name="vdW DFT" >
   <i type="logical" name="LUSE_VDW"> F  </i>
   <i name="Zab_VDW">     -0.84910000</i>
   <i name="PARAM1">      0.12340000</i>
   <i name="PARAM2">      1.00000000</i>
   <i name="PARAM3">      0.00000000</i>
  </separator>
  <separator name="model GW" >
   <i type="int" name="MODEL_GW">     0</i>
   <i name="MODEL_EPS0">      5.21868948</i>
   <i name="MODEL_ALPHA">      1.00000000</i>
  </separator>
  <separator name="linear response parameters" >
   <i type="logical" name="LEPSILON"> F  </i>
   <i type="logical" name="LRPA"> F  </i>
   <i type="logical" name="LNABLA"> F  </i>
   <i type="logical" name="LVEL"> F  </i>
   <i type="int" name="KINTER">     0</i>
   <i name="CSHIFT">      0.10000000</i>
   <i name="OMEGAMAX">     -1.00000000</i>
   <i name="DEG_THRESHOLD">      0.00200000</i>
   <i name="RTIME">     -0.10000000</i>
   <i name="WPLASMAI">      0.00000000</i>
   <v name="DFIELD">      0.00000000      0.00000000      0.00000000</v>
   <v name="WPLASMA">      0.00000000      0.00000000      0.00000000      0.00000000      0.00000000      0.00000000      0.00000000      0.00000000      0.00000000</v>
  </separator>
  <separator name="orbital magnetization" >
   <i type="logical" name="NUCIND"> F  </i>
   <v name="MAGPOS">      0.00000000      0.00000000      0.00000000</v>
   <i type="logical" name="LNICSALL"> T  </i>
   <i type="logical" name="ORBITALMAG"> F  </i>
   <i type="logical" name="LMAGBLOCH"> F  </i>
   <i type="logical" name="LCHIMAG"> F  </i>
   <i type="logical" name="LGAUGE"> T  </i>
   <i type="int" name="MAGATOM">     0</i>
   <v name="MAGDIPOL">      0.00000000      0.00000000      0.00000000</v>
   <v name="AVECCONST">      0.00000000      0.00000000      0.00000000</v>
  </separator>
  <separator name="response functions" >
   <i type="logical" name="LFINITE_TEMPERATURE"> F  </i>
   <i type="logical" name="LADDER"> F  </i>
   <i type="logical" name="LRPAFORCE"> F  </i>
   <i type="logical" name="LFXC"> F  </i>
   <i type="logical" name="LHARTREE"> T  </i>
   <i type="int" name="IBSE">     0</i>
   <v type="int" name="KPOINT">    -1     0     0     0</v>
   <i type="logical" name="LTCTC"> F  </i>
   <i type="logical" name="LTCTE"> F  </i>
   <i type="logical" name="LTETE"> F  </i>
   <i type="logical" name="LTRIPLET"> F  </i>
   <i type="logical" name="LFXCEPS"> F  </i>
   <i type="logical" name="LFXHEG"> F  </i>
   <i type="int" name="NATURALO">     2</i>
   <i type="logical" name="LHOLEGF"> F  </i>
   <i type="logical" name="L2ORDER"> F  </i>
   <i type="logical" name="LDMP1"> F  </i>
   <i type="logical" name="LMP2LT"> F  </i>
   <i type="logical" name="LSMP2LT"> F  </i>
   <i type="logical" name="LGWLF"> F  </i>
   <i name="ENCUTGW">     -2.00000000</i>
   <i name="ENCUTGWSOFT">     -2.00000000</i>
   <i name="ENCUTLF">     -1.00000000</i>
   <i type="logical" name="LESF_SPLINES"> F  </i>
   <i type="int" name="LMAXMP2">    -1</i>
   <i name="SCISSOR">      0.00000000</i>
   <i type="int" name="NOMEGA">     0</i>
   <i type="int" name="NOMEGAR">     0</i>
   <i type="int" name="NBANDSGW">    -1</i>
   <i type="int" name="NBANDSO">    -1</i>
   <i type="int" name="NBANDSV">    -1</i>
   <i type="int" name="NELM">     1</i>
   <i type="int" name="NELMHF">     1</i>
   <i type="int" name="DIM">     3</i>
   <i type="int" name="IESPILON">     4</i>
   <i type="int" name="ANTIRES">     0</i>
   <i name="OMEGAMAX">    -30.00000000</i>
   <i name="OMEGAMIN">    -30.00000000</i>
   <i name="OMEGATL">   -200.00000000</i>
   <i type="int" name="OMEGAGRID">     0</i>
   <i name="CSHIFT">     -0.10000000</i>
   <i type="logical" name="LSELFENERGY"> F  </i>
   <i type="logical" name="LSPECTRAL"> F  </i>
   <i type="logical" name="LSPECTRALGW"> F  </i>
   <i type="logical" name="LSINGLES"> F  </i>
   <i type="logical" name="LFERMIGW"> F  </i>
   <i type="logical" name="ODDONLYGW"> F  </i>
   <i type="logical" name="EVENONLYGW"> F  </i>
   <i type="int" name="NKREDLFX">     1</i>
   <i type="int" name="NKREDLFY">     1</i>
   <i type="int" name="NKREDLFZ">     1</i>
   <i type="int" name="MAXMEM">  2800</i>
   <i type="int" name="TELESCOPE">     0</i>
   <i type="int" name="NTAUPAR">    -1</i>
   <i type="int" name="NOMEGAPAR">    -1</i>
   <i name="DAMP_NEWTON">      0.80000001</i>
   <i name="LAMBDA">      1.00000000</i>
  </separator>
  <separator name="External order field" >
   <i name="OFIELD_KAPPA">      0.00000000</i>
   <v name="OFIELD_K">      0.00000000      0.00000000      0.00000000</v>
   <i name="OFIELD_Q6_NEAR">      0.00000000</i>
   <i name="OFIELD_Q6_FAR">      0.00000000</i>
   <i name="OFIELD_A">      0.00000000</i>
  </separator>
 </parameters>
 <atominfo>
  <atoms>       2 </atoms>
  <types>       1 </types>
  <array name="atoms" >
   <dimension dim="1">ion</dimension>
   <field type="string">element</field>
   <field type="int">atomtype</field>
   <set>
    <rc><c>Fe</c><c>   1</c></rc>
    <rc><c>Fe</c><c>   1</c></rc>
   </set>
  </array>
  <array name="atomtypes" >
   <dimension dim="1">type</dimension>
   <field type="int">atomspertype</field>
   <field type="string">element</field>
   <field>mass</field>
   <field>valence</field>
   <field type="string">pseudopotential</field>
   <set>
    <rc><c>   2</c><c>Fe</c><c>     55.84700000</c><c>      8.00000000</c><c>  PAW_PBE Fe 06Sep2000                  </c></rc>
   </set>
  </array>
 </atominfo>
 <structure name="initialpos" >
  <crystal>
   <varray name="basis" >
    <v>       2.23680000       0.00000000       0.00000000 </v>
    <v>      -1.11840000       1.93712562       0.00000000 </v>
    <v>       0.00000000       0.00000000       4.01472000 </v>
   </varray>
   <i name="volume">     17.39563159 </i>
   <varray name="rec_basis" >
    <v>       0.44706724       0.25811439       0.00000000 </v>
    <v>       0.00000000       0.51622878       0.00000000 </v>
    <v>       0.00000000       0.00000000       0.24908337 </v>
   </varray>
  </crystal>
  <varray name="positions" >
   <v>       0.00000000       0.00000000       0.00000000 </v>
   <v>       0.33333333       0.66666667       0.50000000 </v>
  </varray>
 </structure>
 <calculation>
  <scstep>
   <time name="dav">    0.73    0.75</time>
   <time name="total">    0.74    0.76</time>
   <energy>
    <i name="alphaZ">    158.92214241 </i>
    <i name="ewald">  -1292.50823790 </i>
    <i name="hartreedc">   -184.80951903 </i>
    <i name="XCdc">      9.56065112 </i>
    <i name="pawpsdc">   1109.69170683 </i>
    <i name="pawaedc">  -1125.09647265 </i>
    <i name="eentropy">      0.00200029 </i>
    <i name="bandstr">    195.34882516 </i>
    <i name="atom">   1188.57490811 </i>
    <i name="e_fr_energy">     59.68600434 </i>
    <i name="e_wo_entrp">     59.68400405 </i>
    <i name="e_0_energy">     59.68533757 </i>
   </energy>
  </scstep>
  <scstep>
   <time name="dav">    0.62    0.62</time>
   <time name="total">    0.63    0.63</time>
   <energy>
    <i name="e_fr_energy">    -14.08945530 </i>
    <i name="e_wo_entrp">    -14.08898189 </i>
    <i name="e_0_energy">    -14.08929750 </i>
   </energy>
  </scstep>
  <scstep>
   <time name="dav">    0.72    0.72</time>
   <time name="total">    0.72    0.72</time>
   <energy>
    <i name="e_fr_energy">    -18.04459996 </i>
    <i name="e_wo_entrp">    -18.04495386 </i>
    <i name="e_0_energy">    -18.04471792 </i>
   </energy>
  </scstep>
  <scstep>
   <time name="dav">    0.66    0.66</time>
   <time name="total">    0.67    0.67</time>
   <energy>
    <i name="e_fr_energy">    -18.05773290 </i>
    <i name="e_wo_entrp">    -18.05811161 </i>
    <i name="e_0_energy">    -18.05785914 </i>
   </energy>
  </scstep>
  <scstep>
   <time name="dav">    0.70    0.70</time>
   <time name="total">    0.72    0.72</time>
   <energy>
    <i name="e_fr_energy">    -18.05774041 </i>
    <i name="e_wo_entrp">    -18.05811915 </i>
    <i name="e_0_energy">    -18.05786666 </i>
   </energy>
  </scstep>
  <scstep>
   <time name="dav">    0.82    0.82</time>
   <time name="total">    0.85    0.85</time>
   <energy>
    <i name="e_fr_energy">    -15.56143329 </i>
    <i name="e_wo_entrp">    -15.56287553 </i>
    <i name="e_0_energy">    -15.56191404 </i>
   </energy>
  </scstep>
  <scstep>
   <time name="dav">    0.71    0.71</time>
   <time name="total">    0.74    0.74</time>
   <energy>
    <i name="e_fr_energy">    -15.45092514 </i>
    <i name="e_wo_entrp">    -15.45216324 </i>
    <i name="e_0_energy">    -15.45133784 </i>
   </energy>
  </scstep>
  <scstep>
   <time name="dav">    0.78    0.78</time>
   <time name="total">    0.81    0.81</time>
   <energy>
    <i name="e_fr_energy">    -15.41110489 </i>
    <i name="e_wo_entrp">    -15.41242250 </i>
    <i name="e_0_energy">    -15.41154410 </i>
   </energy>
  </scstep>
  <scstep>
   <time name="dav">    0.75    0.75</time>
   <time name="total">    0.78    0.78</time>
   <energy>
    <i name="e_fr_energy">    -15.40691768 </i>
    <i name="e_wo_entrp">    -15.40824193 </i>
    <i name="e_0_energy">    -15.40735910 </i>
   </energy>
  </scstep>
  <scstep>
   <time name="dav">    0.64    0.64</time>
   <time name="total">    0.66    0.66</time>
   <energy>
    <i name="e_fr_energy">    -15.40690170 </i>
    <i name="e_wo_entrp">    -15.40822553 </i>
    <i name="e_0_energy">    -15.40734298 </i>
   </energy>
  </scstep>
  <scstep>
   <time name="dav">    0.66    0.66</time>
   <time name="total">    0.69    0.69</time>
   <energy>
    <i name="e_fr_energy">    -15.40686440 </i>
    <i name="e_wo_entrp">    -15.40818799 </i>
    <i name="e_0_energy">    -15.40730559 </i>
   </energy>
  </scstep>
  <scstep>
   <time name="dav">    0.56    0.56</time>
   <time name="total">    0.59    0.59</time>
   <energy>
    <i name="e_fr_energy">    -15.40686257 </i>
    <i name="e_wo_entrp">    -15.40818613 </i>
    <i name="e_0_energy">    -15.40730375 </i>
   </energy>
  </scstep>
  <scstep>
   <time name="dav">    0.46    0.46</time>
   <time name="total">    0.49    0.49</time>
   <energy>
    <i name="e_fr_energy">    -15.40686396 </i>
    <i name="e_wo_entrp">    -15.40818752 </i>
    <i name="e_0_energy">    -15.40730515 </i>
   </energy>
  </scstep>
  <scstep>
   <time name="dav">    0.45    0.45</time>
   <time name="total">    0.46    0.46</time>
   <energy>
    <i name="alphaZ">    158.92214241 </i>
    <i name="ewald">  -1292.50823790 </i>
    <i name="hartreedc">   -152.11854731 </i>
    <i name="XCdc">      8.01393228 </i>
    <i name="pawpsdc">   1702.04319173 </i>
    <i name="pawaedc">  -1721.46279906 </i>
    <i name="eentropy">      0.00132356 </i>
    <i name="bandstr">     93.12722208 </i>
    <i name="atom">   1188.57490811 </i>
    <i name="e_fr_energy">    -15.40686410 </i>
    <i name="e_wo_entrp">    -15.40818766 </i>
    <i name="e_0_energy">    -15.40730529 </i>
   </energy>
  </scstep>
  <structure>
   <crystal>
    <varray name="basis" >
     <v>       2.23680000       0.00000000       0.00000000 </v>
     <v>      -1.11840000       1.93712562       0.00000000 </v>
     <v>       0.00000000       0.00000000       4.01472000 </v>
    </varray>
    <i name="volume">     17.39563159 </i>
    <varray name="rec_basis" >
     <v>       0.44706724       0.25811439       0.00000000 </v>
     <v>       0.00000000       0.51622878       0.00000000 </v>
     <v>       0.00000000       0.00000000       0.24908337 </v>
    </varray>
   </crystal>
   <varray name="positions" >
    <v>       0.00000000       0.00000000       0.00000000 </v>
    <v>       0.33333333       0.66666667       0.50000000 </v>
   </varray>
  </structure>
  <varray name="forces" >
   <v>      -0.00000000       0.00000000       0.00000000 </v>
   <v>       0.00000000      -0.00000000      -0.00000000 </v>
  </varray>
  <varray name="stress" >
   <v>     989.46327535      -0.00000000       0.00000000 </v>
   <v>      -0.00000000     989.46327535       0.00000000 </v>
   <v>      -0.00000000      -0.00000000      92.95168115 </v>
  </varray>
  <energy>
   <i name="e_fr_energy">    -15.40686410 </i>
   <i name="e_wo_entrp">    -15.40818766 </i>
   <i name="e_0_energy">    -15.40730529 </i>
  </energy>
  <time name="totalsc">    9.83    9.85</time>
  <eigenvalues>
   <array>
    <dimension dim="1">band</dimension>
    <dimension dim="2">kpoint</dimension>
    <dimension dim="3">spin</dimension>
    <field>eigene</field>
    <field>occ</field>
    <set>
     <set comment="spin 1">
      <set comment="kpoint 1">
       <r>   -0.9621    1.0000 </r>
       <r>    2.8969    1.0000 </r>
       <r>    5.9499    1.0000 </r>
       <r>    6.8764    1.0000 </r>
       <r>    6.8764    1.0000 </r>
       <r>    7.2409    1.0000 </r>
       <r>    7.2409    1.0000 </r>
       <r>    7.8089    1.0000 </r>
       <r>    8.5644    1.0286 </r>
       <r>    8.5644    1.0286 </r>
       <r>    9.8075   -0.0000 </r>
       <r>    9.8075   -0.0000 </r>
       <r>   17.5077    0.0000 </r>
       <r>   33.4476    0.0000 </r>
       <r>   33.9520    0.0000 </r>
       <r>   37.2263    0.0000 </r>
       <r>   41.2575    0.0000 </r>
       <r>   41.2575    0.0000 </r>
       <r>   41.8388    0.0000 </r>
       <r>   41.9380    0.0000 </r>
       <r>   41.9380    0.0000 </r>
       <r>   43.9087    0.0000 </r>
       <r>   43.9087    0.0000 </r>
       <r>   44.9633    0.0000 </r>
       <r>   48.3151    0.0000 </r>
       <r>   48.3151    0.0000 </r>
       <r>   49.3810    0.0000 </r>
       <r>   53.5430    0.0000 </r>
       <r>   53.5430    0.0000 </r>
       <r>   55.0388    0.0000 </r>
       <r>   55.0389    0.0000 </r>
       <r>   57.8984    0.0000 </r>
       <r>   64.7817    0.0000 </r>
       <r>   65.3167    0.0000 </r>
       <r>   65.5923    0.0000 </r>
       <r>   65.5923    0.0000 </r>
       <r>   66.6284    0.0000 </r>
       <r>   69.5136    0.0000 </r>
       <r>   69.5137    0.0000 </r>
       <r>   71.3022    0.0000 </r>
      </set>
      <set comment="kpoint 2">
       <r>   -0.5818    1.0000 </r>
       <r>    3.1934    1.0000 </r>
       <r>    6.0040    1.0000 </r>
       <r>    6.7602    1.0000 </r>
       <r>    6.8732    1.0000 </r>
       <r>    7.0884    1.0000 </r>
       <r>    7.1181    1.0000 </r>
       <r>    7.4677    1.0000 </r>
       <r>    8.3532    1.0010 </r>
       <r>    8.4226    1.0041 </r>
       <r>    9.8459   -0.0000 </r>
       <r>   11.0315   -0.0000 </r>
       <r>   17.5186    0.0000 </r>
       <r>   33.0269    0.0000 </r>
       <r>   33.8783    0.0000 </r>
       <r>   35.9881    0.0000 </r>
       <r>   38.0688    0.0000 </r>
       <r>   39.4601    0.0000 </r>
       <r>   39.9274    0.0000 </r>
       <r>   41.6495    0.0000 </r>
       <r>   43.3934    0.0000 </r>
       <r>   44.7519    0.0000 </r>
       <r>   45.1147    0.0000 </r>
       <r>   45.7301    0.0000 </r>
       <r>   49.5258    0.0000 </r>
       <r>   49.7343    0.0000 </r>
       <r>   50.6292    0.0000 </r>
       <r>   50.8844    0.0000 </r>
       <r>   53.8753    0.0000 </r>
       <r>   56.6977    0.0000 </r>
       <r>   57.3837    0.0000 </r>
       <r>   59.4070    0.0000 </r>
       <r>   63.6157    0.0000 </r>
       <r>   64.5226    0.0000 </r>
       <r>   64.6980    0.0000 </r>
       <r>   65.4962    0.0000 </r>
       <r>   66.0482    0.0000 </r>
       <r>   69.8020    0.0000 </r>
       <r>   71.3623    0.0000 </r>
       <r>   71.7415    0.0000 </r>
      </set>
      <set comment="kpoint 3">
       <r>    0.4782    1.0000 </r>
       <r>    3.8695    1.0000 </r>
       <r>    5.6067    1.0000 </r>
       <r>    5.8706    1.0000 </r>
       <r>    6.4955    1.0000 </r>
       <r>    7.2120    1.0000 </r>
       <r>    7.8048    1.0000 </r>
       <r>    7.8525    1.0000 </r>
       <r>    8.0880    1.0000 </r>
       <r>    8.1057    1.0000 </r>
       <r>    9.9061   -0.0000 </r>
       <r>   13.0931   -0.0000 </r>
       <r>   17.6030    0.0000 </r>
       <r>   29.5295    0.0000 </r>
       <r>   34.5635    0.0000 </r>
       <r>   34.6672    0.0000 </r>
       <r>   34.9291    0.0000 </r>
       <r>   35.2410    0.0000 </r>
       <r>   40.6412    0.0000 </r>
       <r>   41.2728    0.0000 </r>
       <r>   42.0230    0.0000 </r>
       <r>   42.5793    0.0000 </r>
       <r>   46.2771    0.0000 </r>
       <r>   47.3609    0.0000 </r>
       <r>   50.4182    0.0000 </r>
       <r>   51.0520    0.0000 </r>
       <r>   52.3401    0.0000 </r>
       <r>   54.7471    0.0000 </r>
       <r>   57.5501    0.0000 </r>
       <r>   58.9767    0.0000 </r>
       <r>   60.0981    0.0000 </r>
       <r>   61.5812    0.0000 </r>
       <r>   62.5694    0.0000 </r>
       <r>   63.0389    0.0000 </r>
       <r>   63.5198    0.0000 </r>
       <r>   63.9436    0.0000 </r>
       <r>   67.5457    0.0000 </r>
       <r>   70.6139    0.0000 </r>
       <r>   71.4679    0.0000 </r>
       <r>   72.1531    0.0000 </r>
      </set>
      <set comment="kpoint 4">
       <r>    1.9132    1.0000 </r>
       <r>    4.0848    1.0000 </r>
       <r>    4.5916    1.0000 </r>
       <r>    5.8995    1.0000 </r>
       <r>    6.3055    1.0000 </r>
       <r>    7.2358    1.0000 </r>
       <r>    7.7087    1.0000 </r>
       <r>    8.1837    1.0000 </r>
       <r>    8.7788    0.8151 </r>
       <r>    8.9998    0.0411 </r>
       <r>    9.9296   -0.0000 </r>
       <r>   15.3941    0.0000 </r>
       <r>   17.7973    0.0000 </r>
       <r>   25.3577    0.0000 </r>
       <r>   30.8752    0.0000 </r>
       <r>   32.2118    0.0000 </r>
       <r>   33.0919    0.0000 </r>
       <r>   35.2726    0.0000 </r>
       <r>   39.0693    0.0000 </r>
       <r>   41.5147    0.0000 </r>
       <r>   41.9591    0.0000 </r>
       <r>   42.3755    0.0000 </r>
       <r>   43.6942    0.0000 </r>
       <r>   47.0918    0.0000 </r>
       <r>   53.9885    0.0000 </r>
       <r>   55.2991    0.0000 </r>
       <r>   56.1169    0.0000 </r>
       <r>   57.3374    0.0000 </r>
       <r>   57.8431    0.0000 </r>
       <r>   59.6497    0.0000 </r>
       <r>   61.0474    0.0000 </r>
       <r>   62.4777    0.0000 </r>
       <r>   62.8882    0.0000 </r>
       <r>   63.1484    0.0000 </r>
       <r>   64.2192    0.0000 </r>
       <r>   67.3576    0.0000 </r>
       <r>   67.9443    0.0000 </r>
       <r>   71.2915    0.0000 </r>
       <r>   71.3264    0.0000 </r>
       <r>   72.1005    0.0000 </r>
      </set>
      <set comment="kpoint 5">
       <r>    3.0037    1.0000 </r>
       <r>    3.7163    1.0000 </r>
       <r>    3.9028    1.0000 </r>
       <r>    6.1298    1.0000 </r>
       <r>    6.6983    1.0000 </r>
       <r>    6.9174    1.0000 </r>
       <r>    7.3958    1.0000 </r>
       <r>    9.7676   -0.0000 </r>
       <r>    9.7689   -0.0000 </r>
       <r>    9.9044   -0.0000 </r>
       <r>    9.9237   -0.0000 </r>
       <r>   17.6600    0.0000 </r>
       <r>   17.8263    0.0000 </r>
       <r>   22.2695    0.0000 </r>
       <r>   27.4065    0.0000 </r>
       <r>   30.1241    0.0000 </r>
       <r>   30.2511    0.0000 </r>
       <r>   34.4971    0.0000 </r>
       <r>   37.9902    0.0000 </r>
       <r>   41.4130    0.0000 </r>
       <r>   41.5864    0.0000 </r>
       <r>   43.3366    0.0000 </r>
       <r>   43.5301    0.0000 </r>
       <r>   47.0315    0.0000 </r>
       <r>   54.4990    0.0000 </r>
       <r>   56.4190    0.0000 </r>
       <r>   57.2970    0.0000 </r>
       <r>   60.4349    0.0000 </r>
       <r>   60.6097    0.0000 </r>
       <r>   60.7356    0.0000 </r>
       <r>   61.7974    0.0000 </r>
       <r>   63.7198    0.0000 </r>
       <r>   64.2261    0.0000 </r>
       <r>   64.9774    0.0000 </r>
       <r>   65.7664    0.0000 </r>
       <r>   67.4179    0.0000 </r>
       <r>   70.9257    0.0000 </r>
       <r>   71.8740    0.0000 </r>
       <r>   71.8983    0.0000 </r>
       <r>   72.1969    0.0000 </r>
      </set>
      <set comment="kpoint 6">
       <r>    3.1949    1.0000 </r>
       <r>    3.5335    1.0000 </r>
       <r>    3.5576    1.0000 </r>
       <r>    6.3902    1.0000 </r>
       <r>    6.8462    1.0000 </r>
       <r>    7.2193    1.0000 </r>
       <r>    7.2218    1.0000 </r>
       <r>    9.9122   -0.0000 </r>
       <r>   10.3886   -0.0000 </r>
       <r>   10.5147   -0.0000 </r>
       <r>   11.8101   -0.0000 </r>
       <r>   15.7485    0.0000 </r>
       <r>   20.0979    0.0000 </r>
       <r>   22.1102    0.0000 </r>
       <r>   24.6530    0.0000 </r>
       <r>   27.4355    0.0000 </r>
       <r>   28.9432    0.0000 </r>
       <r>   33.8424    0.0000 </r>
       <r>   37.6280    0.0000 </r>
       <r>   40.1164    0.0000 </r>
       <r>   41.4599    0.0000 </r>
       <r>   44.3135    0.0000 </r>
       <r>   45.9749    0.0000 </r>
       <r>   46.4687    0.0000 </r>
       <r>   51.1659    0.0000 </r>
       <r>   57.3763    0.0000 </r>
       <r>   58.0220    0.0000 </r>
       <r>   61.2010    0.0000 </r>
       <r>   61.9902    0.0000 </r>
       <r>   63.1355    0.0000 </r>
       <r>   64.0340    0.0000 </r>
       <r>   64.3136    0.0000 </r>
       <r>   65.1739    0.0000 </r>
       <r>   67.0869    0.0000 </r>
       <r>   67.8750    0.0000 </r>
       <r>   69.9705    0.0000 </r>
       <r>   70.7573    0.0000 </r>
       <r>   70.7678    0.0000 </r>
       <r>   73.7221    0.0000 </r>
       <r>   74.1807    0.0000 </r>
      </set>
      <set comment="kpoint 7">
       <r>    0.1429    1.0000 </r>
       <r>    3.7094    1.0000 </r>
       <r>    5.8888    1.0000 </r>
       <r>    5.9441    1.0000 </r>
       <r>    6.7827    1.0000 </r>
       <r>    6.8040    1.0000 </r>
       <r>    7.6224    1.0000 </r>
       <r>    7.8464    1.0000 </r>
       <r>    7.9644    1.0000 </r>
       <r>    8.3607    1.0012 </r>
       <r>    9.8486   -0.0000 </r>
       <r>   12.5221   -0.0000 </r>
       <r>   17.5735    0.0000 </r>
       <r>   31.1758    0.0000 </r>
       <r>   32.9446    0.0000 </r>
       <r>   34.5580    0.0000 </r>
       <r>   36.3977    0.0000 </r>
       <r>   38.7004    0.0000 </r>
       <r>   38.7669    0.0000 </r>
       <r>   40.4302    0.0000 </r>
       <r>   41.3335    0.0000 </r>
       <r>   46.3673    0.0000 </r>
       <r>   47.2102    0.0000 </r>
       <r>   48.1170    0.0000 </r>
       <r>   48.4356    0.0000 </r>
       <r>   49.2663    0.0000 </r>
       <r>   49.4756    0.0000 </r>
       <r>   55.2268    0.0000 </r>
       <r>   57.5025    0.0000 </r>
       <r>   58.3663    0.0000 </r>
       <r>   58.5417    0.0000 </r>
       <r>   61.1884    0.0000 </r>
       <r>   61.8357    0.0000 </r>
       <r>   63.8594    0.0000 </r>
       <r>   63.9935    0.0000 </r>
       <r>   65.0569    0.0000 </r>
       <r>   65.8346    0.0000 </r>
       <r>   70.9667    0.0000 </r>
       <r>   71.2780    0.0000 </r>
       <r>   72.5395    0.0000 </r>
      </set>
      <set comment="kpoint 8">
       <r>    1.4322    1.0000 </r>
       <r>    4.3217    1.0000 </r>
       <r>    4.9638    1.0000 </r>
       <r>    5.5694    1.0000 </r>
       <r>    6.4083    1.0000 </r>
       <r>    7.2642    1.0000 </r>
       <r>    7.3423    1.0000 </r>
       <r>    8.0286    1.0000 </r>
       <r>    8.5210    1.0187 </r>
       <r>    8.8937    0.3609 </r>
       <r>    9.8312   -0.0000 </r>
       <r>   14.5983    0.0000 </r>
       <r>   17.7660    0.0000 </r>
       <r>   27.4854    0.0000 </r>
       <r>   30.3676    0.0000 </r>
       <r>   32.7417    0.0000 </r>
       <r>   34.8656    0.0000 </r>
       <r>   36.2500    0.0000 </r>
       <r>   39.2099    0.0000 </r>
       <r>   39.5637    0.0000 </r>
       <r>   40.8829    0.0000 </r>
       <r>   45.7845    0.0000 </r>
       <r>   46.0108    0.0000 </r>
       <r>   47.8045    0.0000 </r>
       <r>   50.7505    0.0000 </r>
       <r>   51.3500    0.0000 </r>
       <r>   53.7374    0.0000 </r>
       <r>   57.9537    0.0000 </r>
       <r>   59.3091    0.0000 </r>
       <r>   59.9025    0.0000 </r>
       <r>   60.6426    0.0000 </r>
       <r>   62.1578    0.0000 </r>
       <r>   62.3855    0.0000 </r>
       <r>   63.3337    0.0000 </r>
       <r>   64.7451    0.0000 </r>
       <r>   65.0563    0.0000 </r>
       <r>   66.7933    0.0000 </r>
       <r>   71.0054    0.0000 </r>
       <r>   71.6514    0.0000 </r>
       <r>   72.9559    0.0000 </r>
      </set>
      <set comment="kpoint 9">
       <r>    2.8270    1.0000 </r>
       <r>    4.1320    1.0000 </r>
       <r>    4.2120    1.0000 </r>
       <r>    5.7386    1.0000 </r>
       <r>    6.5446    1.0000 </r>
       <r>    6.7746    1.0000 </r>
       <r>    7.5635    1.0000 </r>
       <r>    8.3544    1.0010 </r>
       <r>    9.5035   -0.0000 </r>
       <r>    9.8035   -0.0000 </r>
       <r>   10.1021   -0.0000 </r>
       <r>   16.9392    0.0000 </r>
       <r>   18.0944    0.0000 </r>
       <r>   23.5992    0.0000 </r>
       <r>   28.4959    0.0000 </r>
       <r>   29.2152    0.0000 </r>
       <r>   32.8496    0.0000 </r>
       <r>   33.8408    0.0000 </r>
       <r>   38.9701    0.0000 </r>
       <r>   40.3016    0.0000 </r>
       <r>   40.6438    0.0000 </r>
       <r>   45.0484    0.0000 </r>
       <r>   45.2265    0.0000 </r>
       <r>   48.5310    0.0000 </r>
       <r>   52.8728    0.0000 </r>
       <r>   55.2630    0.0000 </r>
       <r>   56.6082    0.0000 </r>
       <r>   56.7170    0.0000 </r>
       <r>   59.1257    0.0000 </r>
       <r>   61.1646    0.0000 </r>
       <r>   61.2676    0.0000 </r>
       <r>   63.8165    0.0000 </r>
       <r>   64.6841    0.0000 </r>
       <r>   65.1181    0.0000 </r>
       <r>   65.4333    0.0000 </r>
       <r>   66.7586    0.0000 </r>
       <r>   70.3121    0.0000 </r>
       <r>   71.0553    0.0000 </r>
       <r>   71.3333    0.0000 </r>
       <r>   73.3116    0.0000 </r>
      </set>
      <set comment="kpoint 10">
       <r>    3.4493    1.0000 </r>
       <r>    3.7541    1.0000 </r>
       <r>    3.7966    1.0000 </r>
       <r>    6.3214    1.0000 </r>
       <r>    6.4599    1.0000 </r>
       <r>    7.0450    1.0000 </r>
       <r>    7.1769    1.0000 </r>
       <r>    9.5444   -0.0000 </r>
       <r>    9.7720   -0.0000 </r>
       <r>   10.1752   -0.0000 </r>
       <r>   11.5882   -0.0000 </r>
       <r>   17.2737    0.0000 </r>
       <r>   19.3741    0.0000 </r>
       <r>   21.9418    0.0000 </r>
       <r>   26.0828    0.0000 </r>
       <r>   26.9810    0.0000 </r>
       <r>   29.4640    0.0000 </r>
       <r>   32.8673    0.0000 </r>
       <r>   38.0351    0.0000 </r>
       <r>   39.8152    0.0000 </r>
       <r>   42.2171    0.0000 </r>
       <r>   45.1920    0.0000 </r>
       <r>   45.9834    0.0000 </r>
       <r>   47.7721    0.0000 </r>
       <r>   53.1503    0.0000 </r>
       <r>   55.4944    0.0000 </r>
       <r>   57.1621    0.0000 </r>
       <r>   58.8372    0.0000 </r>
       <r>   60.9985    0.0000 </r>
       <r>   62.0134    0.0000 </r>
       <r>   62.9967    0.0000 </r>
       <r>   64.0395    0.0000 </r>
       <r>   64.4744    0.0000 </r>
       <r>   67.5193    0.0000 </r>
       <r>   68.6634    0.0000 </r>
       <r>   68.7863    0.0000 </r>
       <r>   69.6721    0.0000 </r>
       <r>   72.4300    0.0000 </r>
       <r>   72.5382    0.0000 </r>
       <r>   74.0738    0.0000 </r>
      </set>
      <set comment="kpoint 11">
       <r>    3.4122    1.0000 </r>
       <r>    3.6019    1.0000 </r>
       <r>    3.7636    1.0000 </r>
       <r>    6.3552    1.0000 </r>
       <r>    6.8479    1.0000 </r>
       <r>    7.0274    1.0000 </r>
       <r>    7.1474    1.0000 </r>
       <r>    9.7585   -0.0000 </r>
       <r>   10.2293   -0.0000 </r>
       <r>   10.2659   -0.0000 </r>
       <r>   12.9770   -0.0000 </r>
       <r>   15.5174    0.0000 </r>
       <r>   21.0168    0.0000 </r>
       <r>   22.5710    0.0000 </r>
       <r>   24.2222    0.0000 </r>
       <r>   26.0349    0.0000 </r>
       <r>   27.9335    0.0000 </r>
       <r>   32.5112    0.0000 </r>
       <r>   37.6204    0.0000 </r>
       <r>   39.6572    0.0000 </r>
       <r>   42.6306    0.0000 </r>
       <r>   45.8240    0.0000 </r>
       <r>   46.7436    0.0000 </r>
       <r>   47.4756    0.0000 </r>
       <r>   51.0704    0.0000 </r>
       <r>   56.6211    0.0000 </r>
       <r>   57.6630    0.0000 </r>
       <r>   59.2330    0.0000 </r>
       <r>   62.2260    0.0000 </r>
       <r>   62.5305    0.0000 </r>
       <r>   64.2827    0.0000 </r>
       <r>   64.4009    0.0000 </r>
       <r>   65.1372    0.0000 </r>
       <r>   66.8023    0.0000 </r>
       <r>   69.0531    0.0000 </r>
       <r>   71.3307    0.0000 </r>
       <r>   71.4776    0.0000 </r>
       <r>   71.6865    0.0000 </r>
       <r>   71.8213    0.0000 </r>
       <r>   74.8040    0.0000 </r>
      </set>
      <set comment="kpoint 12">
       <r>    2.8047    1.0000 </r>
       <r>    4.3948    1.0000 </r>
       <r>    4.8451    1.0000 </r>
       <r>    5.0033    1.0000 </r>
       <r>    6.5140    1.0000 </r>
       <r>    6.6913    1.0000 </r>
       <r>    7.6361    1.0000 </r>
       <r>    7.7208    1.0000 </r>
       <r>    9.4708   -0.0001 </r>
       <r>    9.6648   -0.0000 </r>
       <r>   10.1916   -0.0000 </r>
       <r>   16.6648    0.0000 </r>
       <r>   18.2732    0.0000 </r>
       <r>   25.2990    0.0000 </r>
       <r>   26.3582    0.0000 </r>
       <r>   30.6679    0.0000 </r>
       <r>   32.5869    0.0000 </r>
       <r>   35.3847    0.0000 </r>
       <r>   36.0532    0.0000 </r>
       <r>   39.9774    0.0000 </r>
       <r>   42.3711    0.0000 </r>
       <r>   47.0613    0.0000 </r>
       <r>   47.8056    0.0000 </r>
       <r>   49.2772    0.0000 </r>
       <r>   50.3596    0.0000 </r>
       <r>   52.5167    0.0000 </r>
       <r>   53.5868    0.0000 </r>
       <r>   57.9990    0.0000 </r>
       <r>   60.1161    0.0000 </r>
       <r>   60.1313    0.0000 </r>
       <r>   60.6497    0.0000 </r>
       <r>   64.0007    0.0000 </r>
       <r>   64.0576    0.0000 </r>
       <r>   65.4645    0.0000 </r>
       <r>   66.5427    0.0000 </r>
       <r>   68.0182    0.0000 </r>
       <r>   68.2224    0.0000 </r>
       <r>   70.4898    0.0000 </r>
       <r>   71.0990    0.0000 </r>
       <r>   74.1164    0.0000 </r>
      </set>
      <set comment="kpoint 13">
       <r>    3.9983    1.0000 </r>
       <r>    4.0221    1.0000 </r>
       <r>    4.4147    1.0000 </r>
       <r>    5.3843    1.0000 </r>
       <r>    6.3558    1.0000 </r>
       <r>    6.8783    1.0000 </r>
       <r>    7.2018    1.0000 </r>
       <r>    8.3792    1.0017 </r>
       <r>    9.5248   -0.0000 </r>
       <r>   10.0798   -0.0000 </r>
       <r>   11.7881   -0.0000 </r>
       <r>   18.8745    0.0000 </r>
       <r>   19.0472    0.0000 </r>
       <r>   22.2662    0.0000 </r>
       <r>   24.5176    0.0000 </r>
       <r>   28.0402    0.0000 </r>
       <r>   30.7796    0.0000 </r>
       <r>   31.6923    0.0000 </r>
       <r>   34.7499    0.0000 </r>
       <r>   42.3293    0.0000 </r>
       <r>   42.9034    0.0000 </r>
       <r>   46.8861    0.0000 </r>
       <r>   48.7894    0.0000 </r>
       <r>   50.7571    0.0000 </r>
       <r>   51.4297    0.0000 </r>
       <r>   53.4233    0.0000 </r>
       <r>   54.8687    0.0000 </r>
       <r>   56.0995    0.0000 </r>
       <r>   59.2384    0.0000 </r>
       <r>   60.9551    0.0000 </r>
       <r>   62.9983    0.0000 </r>
       <r>   63.9313    0.0000 </r>
       <r>   64.6894    0.0000 </r>
       <r>   67.2559    0.0000 </r>
       <r>   68.6682    0.0000 </r>
       <r>   68.7586    0.0000 </r>
       <r>   70.7991    0.0000 </r>
       <r>   71.6183    0.0000 </r>
       <r>   73.6775    0.0000 </r>
       <r>   75.2243    0.0000 </r>
      </set>
      <set comment="kpoint 14">
       <r>    3.8488    1.0000 </r>
       <r>    4.0623    1.0000 </r>
       <r>    4.3469    1.0000 </r>
       <r>    6.0809    1.0000 </r>
       <r>    6.3132    1.0000 </r>
       <r>    6.7201    1.0000 </r>
       <r>    7.2146    1.0000 </r>
       <r>    9.2974   -0.0042 </r>
       <r>    9.4450   -0.0001 </r>
       <r>   10.0604   -0.0000 </r>
       <r>   13.6426   -0.0000 </r>
       <r>   17.1137    0.0000 </r>
       <r>   21.4576    0.0000 </r>
       <r>   22.4860    0.0000 </r>
       <r>   23.5514    0.0000 </r>
       <r>   25.2984    0.0000 </r>
       <r>   28.5632    0.0000 </r>
       <r>   30.0416    0.0000 </r>
       <r>   34.0721    0.0000 </r>
       <r>   42.9744    0.0000 </r>
       <r>   44.6025    0.0000 </r>
       <r>   46.9562    0.0000 </r>
       <r>   48.0595    0.0000 </r>
       <r>   49.4749    0.0000 </r>
       <r>   53.5402    0.0000 </r>
       <r>   53.9949    0.0000 </r>
       <r>   55.5346    0.0000 </r>
       <r>   56.8194    0.0000 </r>
       <r>   60.8345    0.0000 </r>
       <r>   61.5355    0.0000 </r>
       <r>   62.3646    0.0000 </r>
       <r>   64.3621    0.0000 </r>
       <r>   64.5082    0.0000 </r>
       <r>   65.6460    0.0000 </r>
       <r>   69.3279    0.0000 </r>
       <r>   70.8816    0.0000 </r>
       <r>   71.8110    0.0000 </r>
       <r>   73.3266    0.0000 </r>
       <r>   73.5684    0.0000 </r>
       <r>   73.7833    0.0000 </r>
      </set>
      <set comment="kpoint 15">
       <r>    4.0228    1.0000 </r>
       <r>    4.6522    1.0000 </r>
       <r>    5.0317    1.0000 </r>
       <r>    5.1132    1.0000 </r>
       <r>    6.1599    1.0000 </r>
       <r>    6.6805    1.0000 </r>
       <r>    7.2523    1.0000 </r>
       <r>    8.7089    0.9782 </r>
       <r>    9.2817   -0.0056 </r>
       <r>   10.0117   -0.0000 </r>
       <r>   13.8264   -0.0000 </r>
       <r>   19.3902    0.0000 </r>
       <r>   20.0465    0.0000 </r>
       <r>   21.5176    0.0000 </r>
       <r>   23.3594    0.0000 </r>
       <r>   27.2394    0.0000 </r>
       <r>   27.7216    0.0000 </r>
       <r>   30.4136    0.0000 </r>
       <r>   31.3034    0.0000 </r>
       <r>   44.0738    0.0000 </r>
       <r>   45.0867    0.0000 </r>
       <r>   49.8373    0.0000 </r>
       <r>   50.5997    0.0000 </r>
       <r>   50.9671    0.0000 </r>
       <r>   51.2574    0.0000 </r>
       <r>   51.7661    0.0000 </r>
       <r>   54.8950    0.0000 </r>
       <r>   57.3114    0.0000 </r>
       <r>   57.4547    0.0000 </r>
       <r>   61.2460    0.0000 </r>
       <r>   61.7598    0.0000 </r>
       <r>   64.6256    0.0000 </r>
       <r>   64.6782    0.0000 </r>
       <r>   65.5429    0.0000 </r>
       <r>   69.7165    0.0000 </r>
       <r>   70.9392    0.0000 </r>
       <r>   71.0583    0.0000 </r>
       <r>   72.0147    0.0000 </r>
       <r>   73.5454    0.0000 </r>
       <r>   75.6905    0.0000 </r>
      </set>
      <set comment="kpoint 16">
       <r>    4.0637    1.0000 </r>
       <r>    4.7588    1.0000 </r>
       <r>    4.9207    1.0000 </r>
       <r>    5.5167    1.0000 </r>
       <r>    6.2547    1.0000 </r>
       <r>    6.2812    1.0000 </r>
       <r>    7.4272    1.0000 </r>
       <r>    9.1890   -0.0211 </r>
       <r>    9.1938   -0.0200 </r>
       <r>    9.5894   -0.0000 </r>
       <r>   15.7338    0.0000 </r>
       <r>   17.3669    0.0000 </r>
       <r>   19.6544    0.0000 </r>
       <r>   23.6759    0.0000 </r>
       <r>   24.3481    0.0000 </r>
       <r>   25.1561    0.0000 </r>
       <r>   27.2006    0.0000 </r>
       <r>   28.6141    0.0000 </r>
       <r>   30.6733    0.0000 </r>
       <r>   44.3704    0.0000 </r>
       <r>   47.7331    0.0000 </r>
       <r>   48.7126    0.0000 </r>
       <r>   49.9269    0.0000 </r>
       <r>   50.3704    0.0000 </r>
       <r>   51.8183    0.0000 </r>
       <r>   53.2652    0.0000 </r>
       <r>   56.6403    0.0000 </r>
       <r>   57.2014    0.0000 </r>
       <r>   57.4744    0.0000 </r>
       <r>   60.8370    0.0000 </r>
       <r>   61.5615    0.0000 </r>
       <r>   62.2652    0.0000 </r>
       <r>   64.7548    0.0000 </r>
       <r>   65.0828    0.0000 </r>
       <r>   69.0420    0.0000 </r>
       <r>   71.0389    0.0000 </r>
       <r>   72.3857    0.0000 </r>
       <r>   72.9327    0.0000 </r>
       <r>   73.7620    0.0000 </r>
       <r>   74.7189    0.0000 </r>
      </set>
      <set comment="kpoint 17">
       <r>   -0.8733    1.0000 </r>
       <r>    2.8763    1.0000 </r>
       <r>    5.9271    1.0000 </r>
       <r>    6.8689    1.0000 </r>
       <r>    6.8689    1.0000 </r>
       <r>    7.2222    1.0000 </r>
       <r>    7.2223    1.0000 </r>
       <r>    7.5815    1.0000 </r>
       <r>    8.6069    1.0352 </r>
       <r>    8.6070    1.0352 </r>
       <r>    9.7962   -0.0000 </r>
       <r>    9.7962   -0.0000 </r>
       <r>   17.8881    0.0000 </r>
       <r>   32.7265    0.0000 </r>
       <r>   34.2229    0.0000 </r>
       <r>   37.0449    0.0000 </r>
       <r>   41.2720    0.0000 </r>
       <r>   41.2721    0.0000 </r>
       <r>   41.9309    0.0000 </r>
       <r>   41.9310    0.0000 </r>
       <r>   42.3106    0.0000 </r>
       <r>   43.9148    0.0000 </r>
       <r>   43.9148    0.0000 </r>
       <r>   45.2577    0.0000 </r>
       <r>   48.0635    0.0000 </r>
       <r>   48.0635    0.0000 </r>
       <r>   49.6326    0.0000 </r>
       <r>   53.7523    0.0000 </r>
       <r>   53.7524    0.0000 </r>
       <r>   55.3674    0.0000 </r>
       <r>   55.3674    0.0000 </r>
       <r>   57.6496    0.0000 </r>
       <r>   64.0000    0.0000 </r>
       <r>   64.9853    0.0000 </r>
       <r>   65.4793    0.0000 </r>
       <r>   65.4793    0.0000 </r>
       <r>   68.1457    0.0000 </r>
       <r>   68.5703    0.0000 </r>
       <r>   68.5703    0.0000 </r>
       <r>   69.6808    0.0000 </r>
      </set>
      <set comment="kpoint 18">
       <r>   -0.4954    1.0000 </r>
       <r>    3.1771    1.0000 </r>
       <r>    5.9881    1.0000 </r>
       <r>    6.6914    1.0000 </r>
       <r>    6.7326    1.0000 </r>
       <r>    7.1074    1.0000 </r>
       <r>    7.1292    1.0000 </r>
       <r>    7.4469    1.0000 </r>
       <r>    8.4035    1.0029 </r>
       <r>    8.4713    1.0095 </r>
       <r>    9.8305   -0.0000 </r>
       <r>   10.8765   -0.0000 </r>
       <r>   17.9308    0.0000 </r>
       <r>   32.7625    0.0000 </r>
       <r>   33.6305    0.0000 </r>
       <r>   35.9217    0.0000 </r>
       <r>   38.1333    0.0000 </r>
       <r>   38.9714    0.0000 </r>
       <r>   40.4420    0.0000 </r>
       <r>   41.8900    0.0000 </r>
       <r>   43.1630    0.0000 </r>
       <r>   44.8630    0.0000 </r>
       <r>   45.1869    0.0000 </r>
       <r>   45.9183    0.0000 </r>
       <r>   49.2283    0.0000 </r>
       <r>   49.5869    0.0000 </r>
       <r>   51.0869    0.0000 </r>
       <r>   51.2965    0.0000 </r>
       <r>   53.7811    0.0000 </r>
       <r>   56.8758    0.0000 </r>
       <r>   57.6169    0.0000 </r>
       <r>   59.1776    0.0000 </r>
       <r>   62.4293    0.0000 </r>
       <r>   64.4942    0.0000 </r>
       <r>   64.7099    0.0000 </r>
       <r>   65.5185    0.0000 </r>
       <r>   66.9470    0.0000 </r>
       <r>   68.9966    0.0000 </r>
       <r>   69.6525    0.0000 </r>
       <r>   70.4303    0.0000 </r>
      </set>
      <set comment="kpoint 19">
       <r>    0.5539    1.0000 </r>
       <r>    3.8670    1.0000 </r>
       <r>    5.5160    1.0000 </r>
       <r>    5.8892    1.0000 </r>
       <r>    6.4570    1.0000 </r>
       <r>    7.1339    1.0000 </r>
       <r>    7.7587    1.0000 </r>
       <r>    7.9776    1.0000 </r>
       <r>    8.0458    1.0000 </r>
       <r>    8.2148    1.0000 </r>
       <r>    9.8818   -0.0000 </r>
       <r>   12.7325   -0.0000 </r>
       <r>   18.1398    0.0000 </r>
       <r>   29.5777    0.0000 </r>
       <r>   33.7350    0.0000 </r>
       <r>   34.7594    0.0000 </r>
       <r>   35.0230    0.0000 </r>
       <r>   35.3188    0.0000 </r>
       <r>   40.0676    0.0000 </r>
       <r>   41.5541    0.0000 </r>
       <r>   42.1757    0.0000 </r>
       <r>   42.7425    0.0000 </r>
       <r>   46.5386    0.0000 </r>
       <r>   47.8167    0.0000 </r>
       <r>   50.6488    0.0000 </r>
       <r>   50.9681    0.0000 </r>
       <r>   52.1498    0.0000 </r>
       <r>   54.8200    0.0000 </r>
       <r>   56.9719    0.0000 </r>
       <r>   59.3719    0.0000 </r>
       <r>   60.3257    0.0000 </r>
       <r>   60.8769    0.0000 </r>
       <r>   61.8437    0.0000 </r>
       <r>   62.7906    0.0000 </r>
       <r>   63.9640    0.0000 </r>
       <r>   64.6921    0.0000 </r>
       <r>   67.4497    0.0000 </r>
       <r>   69.9332    0.0000 </r>
       <r>   69.9471    0.0000 </r>
       <r>   72.1838    0.0000 </r>
      </set>
      <set comment="kpoint 20">
       <r>    1.9569    1.0000 </r>
       <r>    4.0878    1.0000 </r>
       <r>    4.5724    1.0000 </r>
       <r>    5.8814    1.0000 </r>
       <r>    6.2754    1.0000 </r>
       <r>    7.2726    1.0000 </r>
       <r>    7.7338    1.0000 </r>
       <r>    8.2253    1.0000 </r>
       <r>    8.7906    0.7762 </r>
       <r>    8.9841    0.0717 </r>
       <r>    9.9024   -0.0000 </r>
       <r>   14.6799    0.0000 </r>
       <r>   18.6369    0.0000 </r>
       <r>   25.4233    0.0000 </r>
       <r>   30.5333    0.0000 </r>
       <r>   32.3330    0.0000 </r>
       <r>   33.2574    0.0000 </r>
       <r>   35.1390    0.0000 </r>
       <r>   38.6753    0.0000 </r>
       <r>   40.9771    0.0000 </r>
       <r>   41.1273    0.0000 </r>
       <r>   43.3228    0.0000 </r>
       <r>   44.5285    0.0000 </r>
       <r>   47.7091    0.0000 </r>
       <r>   54.1074    0.0000 </r>
       <r>   54.8577    0.0000 </r>
       <r>   55.6984    0.0000 </r>
       <r>   55.7344    0.0000 </r>
       <r>   59.4354    0.0000 </r>
       <r>   59.9455    0.0000 </r>
       <r>   61.2482    0.0000 </r>
       <r>   62.4386    0.0000 </r>
       <r>   62.5178    0.0000 </r>
       <r>   63.1525    0.0000 </r>
       <r>   64.6046    0.0000 </r>
       <r>   66.8372    0.0000 </r>
       <r>   68.0605    0.0000 </r>
       <r>   70.3577    0.0000 </r>
       <r>   70.7381    0.0000 </r>
       <r>   72.8299    0.0000 </r>
      </set>
      <set comment="kpoint 21">
       <r>    2.9649    1.0000 </r>
       <r>    3.6528    1.0000 </r>
       <r>    4.0532    1.0000 </r>
       <r>    5.8156    1.0000 </r>
       <r>    6.8665    1.0000 </r>
       <r>    7.1447    1.0000 </r>
       <r>    7.4370    1.0000 </r>
       <r>    9.7228   -0.0000 </r>
       <r>    9.7521   -0.0000 </r>
       <r>    9.7971   -0.0000 </r>
       <r>    9.9921   -0.0000 </r>
       <r>   16.2401    0.0000 </r>
       <r>   19.2688    0.0000 </r>
       <r>   22.3601    0.0000 </r>
       <r>   27.1096    0.0000 </r>
       <r>   30.2572    0.0000 </r>
       <r>   30.5551    0.0000 </r>
       <r>   34.5038    0.0000 </r>
       <r>   37.8881    0.0000 </r>
       <r>   39.9754    0.0000 </r>
       <r>   41.6659    0.0000 </r>
       <r>   43.0764    0.0000 </r>
       <r>   44.7906    0.0000 </r>
       <r>   47.6910    0.0000 </r>
       <r>   53.3969    0.0000 </r>
       <r>   57.0262    0.0000 </r>
       <r>   57.4972    0.0000 </r>
       <r>   59.3208    0.0000 </r>
       <r>   59.9669    0.0000 </r>
       <r>   61.7482    0.0000 </r>
       <r>   62.2332    0.0000 </r>
       <r>   63.8420    0.0000 </r>
       <r>   64.3327    0.0000 </r>
       <r>   65.1113    0.0000 </r>
       <r>   65.7574    0.0000 </r>
       <r>   67.3482    0.0000 </r>
       <r>   69.8982    0.0000 </r>
       <r>   71.4894    0.0000 </r>
       <r>   72.0026    0.0000 </r>
       <r>   72.8734    0.0000 </r>
      </set>
      <set comment="kpoint 22">
       <r>    3.1544    1.0000 </r>
       <r>    3.2835    1.0000 </r>
       <r>    3.9093    1.0000 </r>
       <r>    5.8840    1.0000 </r>
       <r>    7.0827    1.0000 </r>
       <r>    7.2671    1.0000 </r>
       <r>    7.5995    1.0000 </r>
       <r>    9.8414   -0.0000 </r>
       <r>   10.3931   -0.0000 </r>
       <r>   10.5145   -0.0000 </r>
       <r>   11.6987   -0.0000 </r>
       <r>   15.5135    0.0000 </r>
       <r>   20.0793    0.0000 </r>
       <r>   22.0999    0.0000 </r>
       <r>   24.8033    0.0000 </r>
       <r>   27.7429    0.0000 </r>
       <r>   29.0857    0.0000 </r>
       <r>   33.8788    0.0000 </r>
       <r>   37.5773    0.0000 </r>
       <r>   39.0666    0.0000 </r>
       <r>   42.5400    0.0000 </r>
       <r>   43.2865    0.0000 </r>
       <r>   45.0280    0.0000 </r>
       <r>   48.3780    0.0000 </r>
       <r>   51.0604    0.0000 </r>
       <r>   57.4710    0.0000 </r>
       <r>   57.9508    0.0000 </r>
       <r>   60.5316    0.0000 </r>
       <r>   61.9525    0.0000 </r>
       <r>   63.2630    0.0000 </r>
       <r>   63.9611    0.0000 </r>
       <r>   64.2541    0.0000 </r>
       <r>   65.7832    0.0000 </r>
       <r>   66.5641    0.0000 </r>
       <r>   68.4303    0.0000 </r>
       <r>   69.7670    0.0000 </r>
       <r>   70.8293    0.0000 </r>
       <r>   71.5749    0.0000 </r>
       <r>   73.5813    0.0000 </r>
       <r>   73.8100    0.0000 </r>
      </set>
      <set comment="kpoint 23">
       <r>    0.2229    1.0000 </r>
       <r>    3.7028    1.0000 </r>
       <r>    5.8315    1.0000 </r>
       <r>    5.9014    1.0000 </r>
       <r>    6.6883    1.0000 </r>
       <r>    6.8297    1.0000 </r>
       <r>    7.5950    1.0000 </r>
       <r>    7.8604    1.0000 </r>
       <r>    8.0382    1.0000 </r>
       <r>    8.4093    1.0032 </r>
       <r>    9.8291   -0.0000 </r>
       <r>   12.2274   -0.0000 </r>
       <r>   18.0667    0.0000 </r>
       <r>   31.1989    0.0000 </r>
       <r>   32.9870    0.0000 </r>
       <r>   33.9998    0.0000 </r>
       <r>   36.0491    0.0000 </r>
       <r>   38.8931    0.0000 </r>
       <r>   39.1686    0.0000 </r>
       <r>   39.7256    0.0000 </r>
       <r>   42.0325    0.0000 </r>
       <r>   46.5003    0.0000 </r>
       <r>   47.1901    0.0000 </r>
       <r>   47.7376    0.0000 </r>
       <r>   48.4030    0.0000 </r>
       <r>   49.7431    0.0000 </r>
       <r>   50.0497    0.0000 </r>
       <r>   55.0888    0.0000 </r>
       <r>   57.1980    0.0000 </r>
       <r>   58.4375    0.0000 </r>
       <r>   58.9752    0.0000 </r>
       <r>   60.7906    0.0000 </r>
       <r>   60.8506    0.0000 </r>
       <r>   64.1732    0.0000 </r>
       <r>   64.2410    0.0000 </r>
       <r>   65.0116    0.0000 </r>
       <r>   66.1902    0.0000 </r>
       <r>   69.7893    0.0000 </r>
       <r>   70.4444    0.0000 </r>
       <r>   71.6044    0.0000 </r>
      </set>
      <set comment="kpoint 24">
       <r>    1.4932    1.0000 </r>
       <r>    4.3338    1.0000 </r>
       <r>    4.8996    1.0000 </r>
       <r>    5.5957    1.0000 </r>
       <r>    6.3733    1.0000 </r>
       <r>    7.0472    1.0000 </r>
       <r>    7.6112    1.0000 </r>
       <r>    7.9890    1.0000 </r>
       <r>    8.5865    1.0328 </r>
       <r>    8.8707    0.4562 </r>
       <r>    9.8128   -0.0000 </r>
       <r>   14.0459   -0.0000 </r>
       <r>   18.4647    0.0000 </r>
       <r>   27.5464    0.0000 </r>
       <r>   30.4244    0.0000 </r>
       <r>   32.4874    0.0000 </r>
       <r>   34.4151    0.0000 </r>
       <r>   36.5764    0.0000 </r>
       <r>   38.2159    0.0000 </r>
       <r>   39.9898    0.0000 </r>
       <r>   41.3964    0.0000 </r>
       <r>   45.4000    0.0000 </r>
       <r>   46.5813    0.0000 </r>
       <r>   48.2884    0.0000 </r>
       <r>   50.5376    0.0000 </r>
       <r>   51.4156    0.0000 </r>
       <r>   53.8915    0.0000 </r>
       <r>   56.9877    0.0000 </r>
       <r>   59.1633    0.0000 </r>
       <r>   60.2253    0.0000 </r>
       <r>   61.1016    0.0000 </r>
       <r>   61.9646    0.0000 </r>
       <r>   62.2486    0.0000 </r>
       <r>   63.2494    0.0000 </r>
       <r>   64.8457    0.0000 </r>
       <r>   65.1465    0.0000 </r>
       <r>   66.9737    0.0000 </r>
       <r>   70.1578    0.0000 </r>
       <r>   71.2107    0.0000 </r>
       <r>   72.2708    0.0000 </r>
      </set>
      <set comment="kpoint 25">
       <r>    2.8325    1.0000 </r>
       <r>    4.0986    1.0000 </r>
       <r>    4.2697    1.0000 </r>
       <r>    5.6798    1.0000 </r>
       <r>    6.4859    1.0000 </r>
       <r>    6.9345    1.0000 </r>
       <r>    7.5735    1.0000 </r>
       <r>    8.3690    1.0014 </r>
       <r>    9.5243   -0.0000 </r>
       <r>    9.7004   -0.0000 </r>
       <r>   10.1469   -0.0000 </r>
       <r>   15.8833    0.0000 </r>
       <r>   19.2457    0.0000 </r>
       <r>   23.6698    0.0000 </r>
       <r>   28.4734    0.0000 </r>
       <r>   29.0477    0.0000 </r>
       <r>   32.9779    0.0000 </r>
       <r>   33.8044    0.0000 </r>
       <r>   38.8889    0.0000 </r>
       <r>   39.4685    0.0000 </r>
       <r>   40.9313    0.0000 </r>
       <r>   44.7258    0.0000 </r>
       <r>   46.1543    0.0000 </r>
       <r>   49.0610    0.0000 </r>
       <r>   52.5087    0.0000 </r>
       <r>   54.0175    0.0000 </r>
       <r>   56.3413    0.0000 </r>
       <r>   58.0683    0.0000 </r>
       <r>   59.3170    0.0000 </r>
       <r>   60.5354    0.0000 </r>
       <r>   61.7935    0.0000 </r>
       <r>   63.5847    0.0000 </r>
       <r>   64.5826    0.0000 </r>
       <r>   64.8807    0.0000 </r>
       <r>   65.9096    0.0000 </r>
       <r>   66.8640    0.0000 </r>
       <r>   69.5332    0.0000 </r>
       <r>   70.9788    0.0000 </r>
       <r>   71.8893    0.0000 </r>
       <r>   72.1443    0.0000 </r>
      </set>
      <set comment="kpoint 26">
       <r>    3.3469    1.0000 </r>
       <r>    3.6323    1.0000 </r>
       <r>    4.0809    1.0000 </r>
       <r>    5.8061    1.0000 </r>
       <r>    6.9373    1.0000 </r>
       <r>    7.0295    1.0000 </r>
       <r>    7.3277    1.0000 </r>
       <r>    9.5272   -0.0000 </r>
       <r>    9.6963   -0.0000 </r>
       <r>   10.1919   -0.0000 </r>
       <r>   11.5657   -0.0000 </r>
       <r>   16.6842    0.0000 </r>
       <r>   19.7770    0.0000 </r>
       <r>   22.1675    0.0000 </r>
       <r>   25.8101    0.0000 </r>
       <r>   27.2061    0.0000 </r>
       <r>   29.7745    0.0000 </r>
       <r>   32.7280    0.0000 </r>
       <r>   38.1679    0.0000 </r>
       <r>   39.6315    0.0000 </r>
       <r>   41.5839    0.0000 </r>
       <r>   44.2875    0.0000 </r>
       <r>   47.0822    0.0000 </r>
       <r>   48.3807    0.0000 </r>
       <r>   52.6847    0.0000 </r>
       <r>   55.1646    0.0000 </r>
       <r>   57.1676    0.0000 </r>
       <r>   59.5713    0.0000 </r>
       <r>   61.2015    0.0000 </r>
       <r>   61.8887    0.0000 </r>
       <r>   62.9499    0.0000 </r>
       <r>   64.0250    0.0000 </r>
       <r>   64.4262    0.0000 </r>
       <r>   67.0926    0.0000 </r>
       <r>   68.4984    0.0000 </r>
       <r>   69.1400    0.0000 </r>
       <r>   70.0543    0.0000 </r>
       <r>   71.8712    0.0000 </r>
       <r>   72.2997    0.0000 </r>
       <r>   74.3859    0.0000 </r>
      </set>
      <set comment="kpoint 27">
       <r>    3.3544    1.0000 </r>
       <r>    3.4304    1.0000 </r>
       <r>    4.0652    1.0000 </r>
       <r>    5.8707    1.0000 </r>
       <r>    6.9113    1.0000 </r>
       <r>    7.3268    1.0000 </r>
       <r>    7.3714    1.0000 </r>
       <r>    9.6819   -0.0000 </r>
       <r>   10.2224   -0.0000 </r>
       <r>   10.2644   -0.0000 </r>
       <r>   12.8971   -0.0000 </r>
       <r>   15.4139    0.0000 </r>
       <r>   20.9099    0.0000 </r>
       <r>   22.1150    0.0000 </r>
       <r>   24.8361    0.0000 </r>
       <r>   26.2335    0.0000 </r>
       <r>   28.1442    0.0000 </r>
       <r>   32.3698    0.0000 </r>
       <r>   37.7310    0.0000 </r>
       <r>   39.5754    0.0000 </r>
       <r>   42.2891    0.0000 </r>
       <r>   44.1314    0.0000 </r>
       <r>   46.9691    0.0000 </r>
       <r>   49.3827    0.0000 </r>
       <r>   50.8731    0.0000 </r>
       <r>   55.6128    0.0000 </r>
       <r>   58.1191    0.0000 </r>
       <r>   59.8896    0.0000 </r>
       <r>   62.1852    0.0000 </r>
       <r>   62.5489    0.0000 </r>
       <r>   64.1798    0.0000 </r>
       <r>   64.2404    0.0000 </r>
       <r>   65.4132    0.0000 </r>
       <r>   66.8881    0.0000 </r>
       <r>   68.0577    0.0000 </r>
       <r>   71.0127    0.0000 </r>
       <r>   71.5446    0.0000 </r>
       <r>   71.9231    0.0000 </r>
       <r>   72.9230    0.0000 </r>
       <r>   74.5460    0.0000 </r>
      </set>
      <set comment="kpoint 28">
       <r>    2.8322    1.0000 </r>
       <r>    4.3455    1.0000 </r>
       <r>    4.8917    1.0000 </r>
       <r>    5.0254    1.0000 </r>
       <r>    6.5057    1.0000 </r>
       <r>    6.6421    1.0000 </r>
       <r>    7.6938    1.0000 </r>
       <r>    7.7439    1.0000 </r>
       <r>    9.5152   -0.0000 </r>
       <r>    9.5649   -0.0000 </r>
       <r>   10.2372   -0.0000 </r>
       <r>   15.7559    0.0000 </r>
       <r>   19.2953    0.0000 </r>
       <r>   25.3738    0.0000 </r>
       <r>   26.4423    0.0000 </r>
       <r>   30.4255    0.0000 </r>
       <r>   32.2366    0.0000 </r>
       <r>   35.7613    0.0000 </r>
       <r>   36.2052    0.0000 </r>
       <r>   39.1339    0.0000 </r>
       <r>   42.9639    0.0000 </r>
       <r>   47.6545    0.0000 </r>
       <r>   47.7247    0.0000 </r>
       <r>   49.0918    0.0000 </r>
       <r>   49.6954    0.0000 </r>
       <r>   53.2326    0.0000 </r>
       <r>   53.4087    0.0000 </r>
       <r>   58.1880    0.0000 </r>
       <r>   58.8769    0.0000 </r>
       <r>   60.4932    0.0000 </r>
       <r>   61.7071    0.0000 </r>
       <r>   63.9618    0.0000 </r>
       <r>   64.0361    0.0000 </r>
       <r>   65.3349    0.0000 </r>
       <r>   66.0046    0.0000 </r>
       <r>   68.1134    0.0000 </r>
       <r>   68.7511    0.0000 </r>
       <r>   70.3945    0.0000 </r>
       <r>   71.3608    0.0000 </r>
       <r>   72.3077    0.0000 </r>
      </set>
      <set comment="kpoint 29">
       <r>    3.8411    1.0000 </r>
       <r>    4.1552    1.0000 </r>
       <r>    4.4472    1.0000 </r>
       <r>    5.3560    1.0000 </r>
       <r>    6.4146    1.0000 </r>
       <r>    6.8534    1.0000 </r>
       <r>    7.2408    1.0000 </r>
       <r>    8.4136    1.0035 </r>
       <r>    9.4421   -0.0002 </r>
       <r>   10.1151   -0.0000 </r>
       <r>   11.8071   -0.0000 </r>
       <r>   17.5060    0.0000 </r>
       <r>   20.4224    0.0000 </r>
       <r>   22.4082    0.0000 </r>
       <r>   24.5925    0.0000 </r>
       <r>   27.7568    0.0000 </r>
       <r>   30.4468    0.0000 </r>
       <r>   32.1046    0.0000 </r>
       <r>   35.1261    0.0000 </r>
       <r>   40.8012    0.0000 </r>
       <r>   43.7943    0.0000 </r>
       <r>   47.0686    0.0000 </r>
       <r>   48.5235    0.0000 </r>
       <r>   50.9119    0.0000 </r>
       <r>   51.3918    0.0000 </r>
       <r>   52.5789    0.0000 </r>
       <r>   55.9494    0.0000 </r>
       <r>   56.3803    0.0000 </r>
       <r>   59.0233    0.0000 </r>
       <r>   61.3518    0.0000 </r>
       <r>   62.9875    0.0000 </r>
       <r>   63.9395    0.0000 </r>
       <r>   64.6471    0.0000 </r>
       <r>   67.2593    0.0000 </r>
       <r>   68.4403    0.0000 </r>
       <r>   69.1103    0.0000 </r>
       <r>   70.1733    0.0000 </r>
       <r>   72.1587    0.0000 </r>
       <r>   73.1605    0.0000 </r>
       <r>   74.0734    0.0000 </r>
      </set>
      <set comment="kpoint 30">
       <r>    3.7433    1.0000 </r>
       <r>    4.0885    1.0000 </r>
       <r>    4.5093    1.0000 </r>
       <r>    5.7120    1.0000 </r>
       <r>    6.5367    1.0000 </r>
       <r>    6.7348    1.0000 </r>
       <r>    7.3488    1.0000 </r>
       <r>    9.3047   -0.0037 </r>
       <r>    9.3594   -0.0012 </r>
       <r>   10.0836   -0.0000 </r>
       <r>   13.6575   -0.0000 </r>
       <r>   16.9845    0.0000 </r>
       <r>   21.0516    0.0000 </r>
       <r>   22.9143    0.0000 </r>
       <r>   23.4095    0.0000 </r>
       <r>   25.5414    0.0000 </r>
       <r>   28.9295    0.0000 </r>
       <r>   29.7312    0.0000 </r>
       <r>   34.5043    0.0000 </r>
       <r>   42.2182    0.0000 </r>
       <r>   44.1550    0.0000 </r>
       <r>   46.0841    0.0000 </r>
       <r>   49.1134    0.0000 </r>
       <r>   50.1686    0.0000 </r>
       <r>   52.9168    0.0000 </r>
       <r>   53.4185    0.0000 </r>
       <r>   56.3145    0.0000 </r>
       <r>   57.6785    0.0000 </r>
       <r>   60.9919    0.0000 </r>
       <r>   61.3325    0.0000 </r>
       <r>   62.5386    0.0000 </r>
       <r>   64.3322    0.0000 </r>
       <r>   64.4099    0.0000 </r>
       <r>   65.8857    0.0000 </r>
       <r>   69.3091    0.0000 </r>
       <r>   70.5670    0.0000 </r>
       <r>   72.0570    0.0000 </r>
       <r>   72.3436    0.0000 </r>
       <r>   73.0620    0.0000 </r>
       <r>   74.2811    0.0000 </r>
      </set>
      <set comment="kpoint 31">
       <r>    4.0196    1.0000 </r>
       <r>    4.6726    1.0000 </r>
       <r>    5.0121    1.0000 </r>
       <r>    5.0882    1.0000 </r>
       <r>    6.2554    1.0000 </r>
       <r>    6.5902    1.0000 </r>
       <r>    7.2898    1.0000 </r>
       <r>    8.7557    0.8825 </r>
       <r>    9.1939   -0.0200 </r>
       <r>   10.0432   -0.0000 </r>
       <r>   13.8697   -0.0000 </r>
       <r>   18.9309    0.0000 </r>
       <r>   20.1196    0.0000 </r>
       <r>   21.6738    0.0000 </r>
       <r>   23.6918    0.0000 </r>
       <r>   27.0143    0.0000 </r>
       <r>   27.3561    0.0000 </r>
       <r>   30.9021    0.0000 </r>
       <r>   31.7587    0.0000 </r>
       <r>   42.5429    0.0000 </r>
       <r>   45.8347    0.0000 </r>
       <r>   48.9733    0.0000 </r>
       <r>   49.1735    0.0000 </r>
       <r>   51.7091    0.0000 </r>
       <r>   51.7419    0.0000 </r>
       <r>   52.8390    0.0000 </r>
       <r>   55.6596    0.0000 </r>
       <r>   57.1899    0.0000 </r>
       <r>   57.4851    0.0000 </r>
       <r>   61.3336    0.0000 </r>
       <r>   61.9383    0.0000 </r>
       <r>   64.5187    0.0000 </r>
       <r>   64.5577    0.0000 </r>
       <r>   65.7694    0.0000 </r>
       <r>   69.5497    0.0000 </r>
       <r>   70.8909    0.0000 </r>
       <r>   70.9183    0.0000 </r>
       <r>   72.3322    0.0000 </r>
       <r>   73.5794    0.0000 </r>
       <r>   75.4505    0.0000 </r>
      </set>
      <set comment="kpoint 32">
       <r>    4.0746    1.0000 </r>
       <r>    4.7807    1.0000 </r>
       <r>    4.9505    1.0000 </r>
       <r>    5.4284    1.0000 </r>
       <r>    6.2232    1.0000 </r>
       <r>    6.3207    1.0000 </r>
       <r>    7.4515    1.0000 </r>
       <r>    9.0982   -0.0353 </r>
       <r>    9.2290   -0.0128 </r>
       <r>    9.6269   -0.0000 </r>
       <r>   15.8149    0.0000 </r>
       <r>   17.3494    0.0000 </r>
       <r>   19.6485    0.0000 </r>
       <r>   23.5085    0.0000 </r>
       <r>   23.5293    0.0000 </r>
       <r>   25.8592    0.0000 </r>
       <r>   27.0724    0.0000 </r>
       <r>   29.0042    0.0000 </r>
       <r>   31.1652    0.0000 </r>
       <r>   43.3798    0.0000 </r>
       <r>   46.4805    0.0000 </r>
       <r>   48.7178    0.0000 </r>
       <r>   49.2682    0.0000 </r>
       <r>   51.5299    0.0000 </r>
       <r>   52.4524    0.0000 </r>
       <r>   54.2567    0.0000 </r>
       <r>   56.3060    0.0000 </r>
       <r>   57.5111    0.0000 </r>
       <r>   57.7603    0.0000 </r>
       <r>   60.5504    0.0000 </r>
       <r>   61.5080    0.0000 </r>
       <r>   62.5766    0.0000 </r>
       <r>   64.6944    0.0000 </r>
       <r>   64.9949    0.0000 </r>
       <r>   68.9923    0.0000 </r>
       <r>   70.8823    0.0000 </r>
       <r>   72.3347    0.0000 </r>
       <r>   72.6513    0.0000 </r>
       <r>   74.2566    0.0000 </r>
       <r>   74.7877    0.0000 </r>
      </set>
      <set comment="kpoint 33">
       <r>   -0.6110    1.0000 </r>
       <r>    2.7952    1.0000 </r>
       <r>    5.8578    1.0000 </r>
       <r>    6.8528    1.0000 </r>
       <r>    6.8528    1.0000 </r>
       <r>    7.0244    1.0000 </r>
[...]
       <r>   25.7458    0.0000 </r>
       <r>   26.5149    0.0000 </r>
       <r>   30.5382    0.0000 </r>
       <r>   31.7100    0.0000 </r>
       <r>   36.9259    0.0000 </r>
       <r>   38.0360    0.0000 </r>
       <r>   40.4764    0.0000 </r>
       <r>   42.1294    0.0000 </r>
       <r>   48.0027    0.0000 </r>
       <r>   48.4457    0.0000 </r>
       <r>   58.0672    0.0000 </r>
       <r>   58.4436    0.0000 </r>
       <r>   58.9371    0.0000 </r>
       <r>   60.0843    0.0000 </r>
       <r>   62.0085    0.0000 </r>
       <r>   62.3284    0.0000 </r>
       <r>   62.6947    0.0000 </r>
       <r>   63.0891    0.0000 </r>
       <r>   65.2452    0.0000 </r>
       <r>   65.5410    0.0000 </r>
       <r>   68.2331    0.0000 </r>
       <r>   68.6919    0.0000 </r>
       <r>   70.8630    0.0000 </r>
       <r>   71.1044    0.0000 </r>
       <r>   72.3840    0.0000 </r>
       <r>   73.3660    0.0000 </r>
      </set>
      <set comment="kpoint 95">
       <r>    4.1068    1.0000 </r>
       <r>    4.2025    1.0000 </r>
       <r>    5.3007    1.0000 </r>
       <r>    5.5494    1.0000 </r>
       <r>    6.0819    1.0000 </r>
       <r>    6.3377    1.0000 </r>
       <r>    7.7246    1.0000 </r>
       <r>    7.9549    1.0000 </r>
       <r>    9.8408   -0.0000 </r>
       <r>   10.0802   -0.0000 </r>
       <r>   14.8283    0.0000 </r>
       <r>   15.3775    0.0000 </r>
       <r>   21.7052    0.0000 </r>
       <r>   22.1812    0.0000 </r>
       <r>   23.8678    0.0000 </r>
       <r>   24.3146    0.0000 </r>
       <r>   30.7892    0.0000 </r>
       <r>   32.4652    0.0000 </r>
       <r>   36.8985    0.0000 </r>
       <r>   38.3723    0.0000 </r>
       <r>   40.1952    0.0000 </r>
       <r>   41.4166    0.0000 </r>
       <r>   50.2768    0.0000 </r>
       <r>   50.7431    0.0000 </r>
       <r>   55.3948    0.0000 </r>
       <r>   55.3949    0.0000 </r>
       <r>   60.3722    0.0000 </r>
       <r>   62.0614    0.0000 </r>
       <r>   62.1026    0.0000 </r>
       <r>   62.6777    0.0000 </r>
       <r>   63.4230    0.0000 </r>
       <r>   63.6309    0.0000 </r>
       <r>   63.9192    0.0000 </r>
       <r>   64.6489    0.0000 </r>
       <r>   67.7923    0.0000 </r>
       <r>   68.0263    0.0000 </r>
       <r>   70.7485    0.0000 </r>
       <r>   71.1526    0.0000 </r>
       <r>   71.3895    0.0000 </r>
       <r>   71.3990    0.0000 </r>
      </set>
      <set comment="kpoint 96">
       <r>    4.3569    1.0000 </r>
       <r>    4.5207    1.0000 </r>
       <r>    5.2115    1.0000 </r>
       <r>    5.3107    1.0000 </r>
       <r>    6.0864    1.0000 </r>
       <r>    6.2477    1.0000 </r>
       <r>    7.7799    1.0000 </r>
       <r>    7.9504    1.0000 </r>
       <r>    9.8196   -0.0000 </r>
       <r>    9.9065   -0.0000 </r>
       <r>   16.8331    0.0000 </r>
       <r>   17.0061    0.0000 </r>
       <r>   19.8872    0.0000 </r>
       <r>   20.2723    0.0000 </r>
       <r>   23.1954    0.0000 </r>
       <r>   23.6470    0.0000 </r>
       <r>   32.5359    0.0000 </r>
       <r>   33.4875    0.0000 </r>
       <r>   35.9731    0.0000 </r>
       <r>   36.1328    0.0000 </r>
       <r>   39.9647    0.0000 </r>
       <r>   40.7939    0.0000 </r>
       <r>   51.6606    0.0000 </r>
       <r>   52.3259    0.0000 </r>
       <r>   56.4952    0.0000 </r>
       <r>   56.9277    0.0000 </r>
       <r>   59.9719    0.0000 </r>
       <r>   60.3558    0.0000 </r>
       <r>   61.9463    0.0000 </r>
       <r>   62.2426    0.0000 </r>
       <r>   63.4106    0.0000 </r>
       <r>   63.6688    0.0000 </r>
       <r>   64.9431    0.0000 </r>
       <r>   65.2351    0.0000 </r>
       <r>   66.1810    0.0000 </r>
       <r>   67.7134    0.0000 </r>
       <r>   69.4053    0.0000 </r>
       <r>   70.8255    0.0000 </r>
       <r>   73.3156    0.0000 </r>
       <r>   73.7254    0.0000 </r>
      </set>
     </set>
    </set>
   </array>
  </eigenvalues>
  <separator name="orbital magnetization" >
   <v name="MAGDIPOLOUT">      0.00000000      0.00000000      0.00000000</v>
  </separator>
  <dos>
   <i name="efermi">      8.86030891 </i>
   <total>
    <array>
     <dimension dim="1">gridpoints</dimension>
     <dimension dim="2">spin</dimension>
     <field>energy</field>
     <field>total</field>
     <field>integrated</field>
     <set>
      <set comment="spin 1">
       <r>    -4.7948     0.0000     0.0000 </r>
       <r>    -4.5137     0.0000     0.0000 </r>
       <r>    -4.2326     0.0000     0.0000 </r>
       <r>    -3.9516     0.0000     0.0000 </r>
       <r>    -3.6705     0.0000     0.0000 </r>
       <r>    -3.3895     0.0000     0.0000 </r>
       <r>    -3.1084     0.0000     0.0000 </r>
       <r>    -2.8273    -0.0000    -0.0000 </r>
       <r>    -2.5463    -0.0000    -0.0000 </r>
       <r>    -2.2652    -0.0000    -0.0000 </r>
       <r>    -1.9842    -0.0000    -0.0000 </r>
       <r>    -1.7031    -0.0000    -0.0000 </r>
       <r>    -1.4220    -0.0000    -0.0000 </r>
       <r>    -1.1410    -0.0004    -0.0001 </r>
       <r>    -0.8599     0.0088     0.0023 </r>
       <r>    -0.5789     0.0414     0.0140 </r>
       <r>    -0.2978     0.0941     0.0404 </r>
       <r>    -0.0167     0.0530     0.0553 </r>
       <r>     0.2643     0.1254     0.0906 </r>
       <r>     0.5454     0.1530     0.1336 </r>
       <r>     0.8264     0.1878     0.1864 </r>
       <r>     1.1075     0.0891     0.2114 </r>
       <r>     1.3886     0.1657     0.2580 </r>
       <r>     1.6696     0.3102     0.3451 </r>
       <r>     1.9507     0.2688     0.4207 </r>
       <r>     2.2317     0.3319     0.5140 </r>
       <r>     2.5128     0.2214     0.5762 </r>
       <r>     2.7939     0.5006     0.7169 </r>
       <r>     3.0749     1.7620     1.2121 </r>
       <r>     3.3560     1.8369     1.7284 </r>
       <r>     3.6370     2.1876     2.3433 </r>
       <r>     3.9181     2.2767     2.9831 </r>
       <r>     4.1992     2.6264     3.7213 </r>
       <r>     4.4802     2.0090     4.2860 </r>
       <r>     4.7613     2.3241     4.9392 </r>
       <r>     5.0423     2.6991     5.6978 </r>
       <r>     5.3234     2.5848     6.4243 </r>
       <r>     5.6044     2.5673     7.1458 </r>
       <r>     5.8855     1.9692     7.6993 </r>
       <r>     6.1666     1.7989     8.2049 </r>
       <r>     6.4476     3.2497     9.1182 </r>
       <r>     6.7287     2.8991     9.9331 </r>
       <r>     7.0097     3.0807    10.7989 </r>
       <r>     7.2908     3.1191    11.6756 </r>
       <r>     7.5719     2.7059    12.4361 </r>
       <r>     7.8529     3.0713    13.2993 </r>
       <r>     8.1340     2.7368    14.0685 </r>
       <r>     8.4150     2.5725    14.7916 </r>
       <r>     8.6961     2.8823    15.6017 </r>
       <r>     8.9772     2.3510    16.2624 </r>
       <r>     9.2582     2.4240    16.9437 </r>
       <r>     9.5393     3.4729    17.9198 </r>
       <r>     9.8203     4.0408    19.0555 </r>
       <r>    10.1014     3.2884    19.9797 </r>
       <r>    10.3825     3.4313    20.9442 </r>
       <r>    10.6635     1.0759    21.2465 </r>
       <r>    10.9446     0.1358    21.2847 </r>
       <r>    11.2256     0.4862    21.4214 </r>
       <r>    11.5067     0.4920    21.5597 </r>
       <r>    11.7878     0.6008    21.7285 </r>
       <r>    12.0688     0.7661    21.9438 </r>
       <r>    12.3499     0.4891    22.0813 </r>
       <r>    12.6309     0.3924    22.1916 </r>
       <r>    12.9120     0.2875    22.2724 </r>
       <r>    13.1931     0.3957    22.3836 </r>
       <r>    13.4741     0.3569    22.4839 </r>
       <r>    13.7552     0.4594    22.6130 </r>
       <r>    14.0362     0.5854    22.7775 </r>
       <r>    14.3173     0.3363    22.8721 </r>
       <r>    14.5984     0.4568    23.0004 </r>
       <r>    14.8794     0.4648    23.1311 </r>
       <r>    15.1605     0.1843    23.1829 </r>
       <r>    15.4415     0.2514    23.2536 </r>
       <r>    15.7226     0.3382    23.3486 </r>
       <r>    16.0037     0.3521    23.4476 </r>
       <r>    16.2847     0.3643    23.5500 </r>
       <r>    16.5658     0.1463    23.5911 </r>
       <r>    16.8468     0.3214    23.6814 </r>
       <r>    17.1279     0.3913    23.7914 </r>
       <r>    17.4090     0.3446    23.8883 </r>
       <r>    17.6900     0.2721    23.9647 </r>
       <r>    17.9711     0.2224    24.0272 </r>
       <r>    18.2521     0.2467    24.0966 </r>
       <r>    18.5332     0.1322    24.1337 </r>
       <r>    18.8143     0.1070    24.1638 </r>
       <r>    19.0953     0.2111    24.2231 </r>
       <r>    19.3764     0.3772    24.3292 </r>
       <r>    19.6574     0.3014    24.4139 </r>
       <r>    19.9385     0.3748    24.5192 </r>
       <r>    20.2196     0.4953    24.6584 </r>
       <r>    20.5006     0.9395    24.9225 </r>
       <r>    20.7817     0.7352    25.1291 </r>
       <r>    21.0627     0.7638    25.3438 </r>
       <r>    21.3438     0.3984    25.4557 </r>
       <r>    21.6249     0.5341    25.6058 </r>
       <r>    21.9059     0.5450    25.7590 </r>
       <r>    22.1870     0.6691    25.9471 </r>
       <r>    22.4680     0.7865    26.1681 </r>
       <r>    22.7491     0.7237    26.3715 </r>
       <r>    23.0302     0.8108    26.5994 </r>
       <r>    23.3112     0.2734    26.6762 </r>
       <r>    23.5923     0.6679    26.8639 </r>
       <r>    23.8733     0.7390    27.0716 </r>
       <r>    24.1544     0.5904    27.2376 </r>
       <r>    24.4355     0.6104    27.4091 </r>
       <r>    24.7165     0.4695    27.5411 </r>
       <r>    24.9976     0.7473    27.7511 </r>
       <r>    25.2786     0.3387    27.8463 </r>
       <r>    25.5597     0.6865    28.0393 </r>
       <r>    25.8408     0.7596    28.2528 </r>
       <r>    26.1218     0.5262    28.4007 </r>
       <r>    26.4029     0.5415    28.5528 </r>
       <r>    26.6839     0.6514    28.7359 </r>
       <r>    26.9650     0.5825    28.8996 </r>
       <r>    27.2460     0.8515    29.1390 </r>
       <r>    27.5271     1.1390    29.4591 </r>
       <r>    27.8082     0.9139    29.7160 </r>
       <r>    28.0892     0.5780    29.8784 </r>
       <r>    28.3703     0.7555    30.0908 </r>
       <r>    28.6513     0.6123    30.2629 </r>
       <r>    28.9324     0.8465    30.5008 </r>
       <r>    29.2135     1.2893    30.8632 </r>
       <r>    29.4945     0.6481    31.0453 </r>
       <r>    29.7756     0.9108    31.3013 </r>
       <r>    30.0566     0.8011    31.5264 </r>
       <r>    30.3377     0.6406    31.7065 </r>
       <r>    30.6188     1.3920    32.0977 </r>
       <r>    30.8998     1.0746    32.3998 </r>
       <r>    31.1809     0.7634    32.6144 </r>
       <r>    31.4619     0.4402    32.7381 </r>
       <r>    31.7430     0.6457    32.9196 </r>
       <r>    32.0241     1.1686    33.2480 </r>
       <r>    32.3051     0.7076    33.4469 </r>
       <r>    32.5862     0.8483    33.6853 </r>
       <r>    32.8672     1.0014    33.9668 </r>
       <r>    33.1483     0.7441    34.1759 </r>
       <r>    33.4294     0.6107    34.3475 </r>
       <r>    33.7104     0.6123    34.5196 </r>
       <r>    33.9915     0.8681    34.7636 </r>
       <r>    34.2725     0.5309    34.9128 </r>
       <r>    34.5536     0.5570    35.0694 </r>
       <r>    34.8347     0.5429    35.2220 </r>
       <r>    35.1157     0.7389    35.4297 </r>
       <r>    35.3968     0.7323    35.6355 </r>
       <r>    35.6778     0.4620    35.7653 </r>
       <r>    35.9589     0.6439    35.9463 </r>
       <r>    36.2400     0.6015    36.1154 </r>
       <r>    36.5210     0.7036    36.3131 </r>
       <r>    36.8021     0.7250    36.5169 </r>
       <r>    37.0831     0.7336    36.7231 </r>
       <r>    37.3642     0.5727    36.8841 </r>
       <r>    37.6453     0.8025    37.1096 </r>
       <r>    37.9263     0.4290    37.2302 </r>
       <r>    38.2074     0.7812    37.4497 </r>
       <r>    38.4884     0.9533    37.7177 </r>
       <r>    38.7695     0.9698    37.9903 </r>
       <r>    39.0506     0.9597    38.2600 </r>
       <r>    39.3316     0.7853    38.4807 </r>
       <r>    39.6127     0.5275    38.6290 </r>
       <r>    39.8937     1.1353    38.9480 </r>
       <r>    40.1748     0.9511    39.2153 </r>
       <r>    40.4559     0.6961    39.4110 </r>
       <r>    40.7369     0.7901    39.6331 </r>
       <r>    41.0180     1.2988    39.9981 </r>
       <r>    41.2990     0.9321    40.2601 </r>
       <r>    41.5801     1.0693    40.5606 </r>
       <r>    41.8612     0.8988    40.8132 </r>
       <r>    42.1422     0.9022    41.0668 </r>
       <r>    42.4233     0.7487    41.2772 </r>
       <r>    42.7043     0.6203    41.4515 </r>
       <r>    42.9854     0.4435    41.5762 </r>
       <r>    43.2665     0.7878    41.7976 </r>
       <r>    43.5475     0.9089    42.0530 </r>
       <r>    43.8286     0.4844    42.1892 </r>
       <r>    44.1096     0.5405    42.3411 </r>
       <r>    44.3907     0.7058    42.5395 </r>
       <r>    44.6718     1.1036    42.8497 </r>
       <r>    44.9528     0.8375    43.0851 </r>
       <r>    45.2339     0.6865    43.2780 </r>
       <r>    45.5149     0.7247    43.4817 </r>
       <r>    45.7960     0.7161    43.6830 </r>
       <r>    46.0771     0.6129    43.8553 </r>
       <r>    46.3581     0.7270    44.0596 </r>
       <r>    46.6392     0.7569    44.2723 </r>
       <r>    46.9202     0.6445    44.4535 </r>
       <r>    47.2013     1.2069    44.7927 </r>
       <r>    47.4824     0.8873    45.0420 </r>
       <r>    47.7634     1.1454    45.3640 </r>
       <r>    48.0445     1.3228    45.7357 </r>
       <r>    48.3255     0.7142    45.9365 </r>
       <r>    48.6066     1.0865    46.2419 </r>
       <r>    48.8876     0.8299    46.4751 </r>
       <r>    49.1687     1.3162    46.8450 </r>
       <r>    49.4498     1.1612    47.1714 </r>
       <r>    49.7308     1.1000    47.4806 </r>
       <r>    50.0119     0.9826    47.7567 </r>
       <r>    50.2929     0.6916    47.9511 </r>
       <r>    50.5740     0.8100    48.1788 </r>
       <r>    50.8551     0.8659    48.4221 </r>
       <r>    51.1361     0.9475    48.6884 </r>
       <r>    51.4172     0.9692    48.9608 </r>
       <r>    51.6982     1.0420    49.2537 </r>
       <r>    51.9793     0.6562    49.4381 </r>
       <r>    52.2604     0.5363    49.5889 </r>
       <r>    52.5414     0.7436    49.7978 </r>
       <r>    52.8225     1.2986    50.1628 </r>
       <r>    53.1035     1.0124    50.4474 </r>
       <r>    53.3846     0.7001    50.6442 </r>
       <r>    53.6657     0.7191    50.8463 </r>
       <r>    53.9467     1.1337    51.1649 </r>
       <r>    54.2278     1.2222    51.5084 </r>
       <r>    54.5088     0.8191    51.7387 </r>
       <r>    54.7899     0.6726    51.9277 </r>
       <r>    55.0710     0.9968    52.2079 </r>
       <r>    55.3520     0.9504    52.4750 </r>
       <r>    55.6331     1.0258    52.7633 </r>
       <r>    55.9141     0.7382    52.9708 </r>
       <r>    56.1952     1.1254    53.2871 </r>
       <r>    56.4763     1.6153    53.7411 </r>
       <r>    56.7573     1.0723    54.0425 </r>
       <r>    57.0384     1.2182    54.3849 </r>
       <r>    57.3194     1.3036    54.7512 </r>
       <r>    57.6005     0.9820    55.0272 </r>
       <r>    57.8816     0.9371    55.2906 </r>
       <r>    58.1626     1.5764    55.7337 </r>
       <r>    58.4437     0.7652    55.9487 </r>
       <r>    58.7247     0.7359    56.1555 </r>
       <r>    59.0058     1.1611    56.4819 </r>
       <r>    59.2869     1.2545    56.8345 </r>
       <r>    59.5679     1.3383    57.2106 </r>
       <r>    59.8490     1.1446    57.5323 </r>
       <r>    60.1300     1.4163    57.9304 </r>
       <r>    60.4111     1.3003    58.2958 </r>
       <r>    60.6922     1.5794    58.7398 </r>
       <r>    60.9732     1.3109    59.1082 </r>
       <r>    61.2543     1.6641    59.5759 </r>
       <r>    61.5353     1.5524    60.0122 </r>
       <r>    61.8164     1.2478    60.3629 </r>
       <r>    62.0975     2.0533    60.9400 </r>
       <r>    62.3785     2.0759    61.5235 </r>
       <r>    62.6596     2.0876    62.1102 </r>
       <r>    62.9406     1.6516    62.5744 </r>
       <r>    63.2217     2.0750    63.1576 </r>
       <r>    63.5028     1.8331    63.6728 </r>
       <r>    63.7838     2.2084    64.2935 </r>
       <r>    64.0649     3.0723    65.1571 </r>
       <r>    64.3459     2.5847    65.8835 </r>
       <r>    64.6270     2.2170    66.5066 </r>
       <r>    64.9081     1.8962    67.0396 </r>
       <r>    65.1891     1.7044    67.5186 </r>
       <r>    65.4702     1.3101    67.8868 </r>
       <r>    65.7512     1.6525    68.3513 </r>
       <r>    66.0323     1.8576    68.8734 </r>
       <r>    66.3134     1.0947    69.1811 </r>
       <r>    66.5944     1.1014    69.4906 </r>
       <r>    66.8755     0.9927    69.7696 </r>
       <r>    67.1565     1.6276    70.2271 </r>
       <r>    67.4376     1.5118    70.6520 </r>
       <r>    67.7187     1.0753    70.9543 </r>
       <r>    67.9997     1.4681    71.3669 </r>
       <r>    68.2808     1.1861    71.7003 </r>
       <r>    68.5618     1.4101    72.0966 </r>
       <r>    68.8429     1.5619    72.5356 </r>
       <r>    69.1239     1.3679    72.9200 </r>
       <r>    69.4050     1.3057    73.2870 </r>
       <r>    69.6861     1.1673    73.6151 </r>
       <r>    69.9671     1.0911    73.9218 </r>
       <r>    70.2482     1.3874    74.3117 </r>
       <r>    70.5292     1.3635    74.6949 </r>
       <r>    70.8103     1.3604    75.0773 </r>
       <r>    71.0914     1.9051    75.6127 </r>
       <r>    71.3724     1.2056    75.9516 </r>
       <r>    71.6535     0.9814    76.2274 </r>
       <r>    71.9345     1.1681    76.5557 </r>
       <r>    72.2156     1.7761    77.0549 </r>
       <r>    72.4967     1.6747    77.5256 </r>
       <r>    72.7777     0.7863    77.7466 </r>
       <r>    73.0588     0.9339    78.0091 </r>
       <r>    73.3398     1.2566    78.3623 </r>
       <r>    73.6209     0.8297    78.5955 </r>
       <r>    73.9020     1.2680    78.9518 </r>
       <r>    74.1830     0.9174    79.2097 </r>
       <r>    74.4641     0.9579    79.4789 </r>
       <r>    74.7451     0.6281    79.6554 </r>
       <r>    75.0262     0.6687    79.8434 </r>
       <r>    75.3073     0.4002    79.9559 </r>
       <r>    75.5883     0.1198    79.9895 </r>
       <r>    75.8694     0.0386    80.0004 </r>
       <r>    76.1504    -0.0013    80.0000 </r>
       <r>    76.4315    -0.0001    80.0000 </r>
       <r>    76.7126    -0.0000    80.0000 </r>
       <r>    76.9936    -0.0000    80.0000 </r>
       <r>    77.2747     0.0000    80.0000 </r>
       <r>    77.5557     0.0000    80.0000 </r>
       <r>    77.8368     0.0000    80.0000 </r>
       <r>    78.1179     0.0000    80.0000 </r>
       <r>    78.3989     0.0000    80.0000 </r>
       <r>    78.6800     0.0000    80.0000 </r>
       <r>    78.9610     0.0000    80.0000 </r>
       <r>    79.2421     0.0000    80.0000 </r>
       <r>    79.5232     0.0000    80.0000 </r>
      </set>
     </set>
    </array>
   </total>
  </dos>
 </calculation>
 <structure name="finalpos" >
  <crystal>
   <varray name="basis" >
    <v>       2.23680000       0.00000000       0.00000000 </v>
    <v>      -1.11840000       1.93712562       0.00000000 </v>
    <v>       0.00000000       0.00000000       4.01472000 </v>
   </varray>
   <i name="volume">     17.39563159 </i>
   <varray name="rec_basis" >
    <v>       0.44706724       0.25811439       0.00000000 </v>
    <v>       0.00000000       0.51622878       0.00000000 </v>
    <v>       0.00000000       0.00000000       0.24908337 </v>
   </varray>
  </crystal>
  <varray name="positions" >
   <v>       0.00000000       0.00000000       0.00000000 </v>
   <v>       0.33333333       0.66666667       0.50000000 </v>
  </varray>
 </structure>
</modeling>
