unknown system                          
   1.00000000000000     
     2.399900    0.000000    0.000000
    -1.199950    2.078374    0.000000
     0.000000    0.000000    4.391920
   Fe
     2
Direct
  0.000000  0.000000  0.000000
  0.333333  0.666667  0.500000
 
   20   20   36
  184.35      174.11      146.74      110.37      74.005      44.262      24.249      13.782      10.040      8.9046    
  8.5276      8.9053      10.041      13.782      24.249      44.261      74.005      110.37      146.74      174.11    
  174.12      174.11      155.35      123.71      87.864      55.590      31.627      17.332      11.107      9.2635    
  8.5299      8.5289      9.2624      11.108      17.334      31.625      55.588      87.870      123.72      155.37    
  146.75      155.34      146.74      123.71      93.020      62.298      37.300      20.774      12.446      9.5946    
  8.5704      8.2209      8.5679      9.5939      12.449      20.774      37.294      62.293      93.025      123.72    
  110.36      123.65      123.65      110.37      87.864      62.298      39.429      22.893      13.598      9.9107    
  8.6339      8.0087      8.0080      8.6330      9.9114      13.599      22.892      39.423      62.287      87.853    
  73.984      87.771      92.905      87.788      74.005      55.589      37.300      22.894      14.053      10.128    
  8.6928      7.8891      7.6278      7.8899      8.6932      10.128      14.056      22.899      37.300      55.578    
  44.260      55.517      62.174      62.180      55.527      44.261      31.627      20.774      13.598      10.128    
  8.7169      7.8394      7.4180      7.4191      7.8402      8.7151      10.127      13.604      20.788      31.637    
  24.264      31.615      37.242      39.347      37.236      31.604      24.249      17.333      12.447      9.9103    
  8.6929      7.8395      7.3522      7.2011      7.3537      7.8384      8.6875      9.9051      12.449      17.344    
  13.781      17.356      20.794      22.895      22.888      20.780      17.346      13.782      11.108      9.5942    
  8.6339      7.8894      7.4178      7.2010      7.2021      7.4197      7.8888      8.6277      9.5828      11.097    
  10.024      11.126      12.496      13.660      14.114      13.655      12.496      11.137      10.041      9.2633    
  8.5701      8.0091      7.6277      7.4189      7.3541      7.4197      7.6316      8.0145      8.5698      9.2523    
  8.9044      9.2872      9.6475      9.9919      10.226      10.228      9.9985      9.6585      9.2969      8.9048    
  8.5297      8.2212      8.0082      7.8896      7.8405      7.8386      7.8883      8.0143      8.2339      8.5399    
  8.5427      8.5774      8.6438      8.7325      8.8140      8.8497      8.8195      8.7378      8.6422      8.5667    
  8.5276      8.5288      8.5682      8.6328      8.6929      8.7153      8.6871      8.6274      8.5704      8.5401    
  8.9038      8.5772      8.3119      8.1314      8.0366      8.0041      8.0057      8.0373      8.1249      8.2992    
  8.5676      8.9049      9.2625      9.5939      9.9110      10.129      10.127      9.9051      9.5833      9.2526    
  10.024      9.2869      8.6444      8.1315      7.7877      7.6040      7.5488      7.6036      7.7841      8.1257    
  8.6441      9.2978      10.041      11.109      12.448      13.599      14.057      13.604      12.448      11.097    
  13.781      11.126      9.6479      8.7326      8.0361      7.6040      7.4082      7.4073      7.6025      8.0371    
  8.7389      9.6588      11.136      13.782      17.334      20.774      22.892      22.899      20.787      17.344    
  24.264      17.356      12.496      9.9918      8.8136      8.0041      7.5491      7.4072      7.5469      8.0047    
  8.8195      9.9978      12.494      17.345      24.249      31.625      37.294      39.422      37.300      31.637    
  44.260      31.615      20.793      13.660      10.227      8.8499      8.0059      7.6034      7.6023      8.0049    
  8.8515      10.227      13.654      20.780      31.605      44.261      55.587      62.293      62.288      55.578    
  73.984      55.516      37.242      22.895      14.115      10.228      8.8193      8.0372      7.7839      8.0374    
  8.8196      10.227      14.111      22.889      37.242      55.529      74.005      87.870      93.025      87.854    
  110.36      87.771      62.174      39.347      22.889      13.655      9.9981      8.7379      8.1251      8.1258    
  8.7389      9.9975      13.653      22.889      39.353      62.184      87.781      110.37      123.72      123.72    
  146.75      123.65      92.905      62.180      37.236      20.779      12.496      9.6590      8.6426      8.2989    
  8.6438      9.6588      12.494      20.780      37.242      62.185      92.899      123.64      146.74      155.37    
  174.12      155.34      123.65      87.787      55.526      31.603      17.346      11.138      9.2970      8.5663    
  8.5673      9.2982      11.136      17.345      31.605      55.529      87.781      123.64      155.32      174.11    
  173.74      164.11      138.31      104.00      69.671      41.643      22.901      13.225      9.8255      8.7388    
  8.3738      8.7395      9.8259      13.225      22.900      41.643      69.672      104.00      138.31      164.10    
  164.11      164.10      146.42      116.58      82.743      52.294      29.777      16.476      10.783      9.0821    
  8.3712      8.3702      9.0810      10.784      16.477      29.776      52.292      82.749      116.60      146.44    
  138.32      146.42      138.31      116.58      87.607      58.610      35.084      19.649      11.985      9.3946    
  8.4064      8.0695      8.4040      9.3939      11.987      19.649      35.079      58.606      87.612      116.59    
  103.99      116.54      116.54      104.00      82.743      58.610      37.078      21.611      13.026      9.6767    
  8.4648      7.8630      7.8623      8.4639      9.6773      13.027      21.610      37.073      58.600      82.734    
  69.653      82.676      87.526      82.691      69.671      52.294      35.084      21.611      13.439      9.8679    
  8.5198      7.7467      7.4965      7.7474      8.5202      9.8684      13.442      21.616      35.084      52.283    
  41.642      52.249      58.532      58.537      52.258      41.643      29.777      19.649      13.026      9.8678    
  8.5425      7.6982      7.2953      7.2963      7.6991      8.5409      9.8669      13.032      19.662      29.787    
  22.914      29.789      35.071      37.050      35.066      29.779      22.901      16.476      11.985      9.6763    
  8.5200      7.6983      7.2323      7.0882      7.2337      7.6974      8.5151      9.6717      11.987      16.486    
  13.224      16.517      19.706      21.662      21.656      19.693      16.508      13.225      10.783      9.3941    
  8.4648      7.7469      7.2951      7.0881      7.0890      7.2967      7.7463      8.4592      9.3838      10.774    
  9.8104      10.817      12.064      13.128      13.545      13.124      12.064      10.827      9.8257      9.0819    
  8.4061      7.8634      7.4964      7.2962      7.2341      7.2968      7.4998      7.8682      8.4058      9.0718    
  8.7386      9.1173      9.4697      9.7885      10.001      10.003      9.7944      9.4797      9.1262      8.7390    
  8.3710      8.0698      7.8625      7.7472      7.6994      7.6976      7.7458      7.8681      8.0815      8.3803    
  8.3876      8.4266      8.4962      8.5859      8.6668      8.7019      8.6718      8.5907      8.4946      8.4168    
  8.3738      8.3702      8.4043      8.4637      8.5200      8.5411      8.5147      8.4589      8.4064      8.3805    
  8.7380      8.4264      8.1739      8.0023      7.9119      7.8807      7.8822      7.9127      7.9964      8.1624    
  8.4176      8.7391      9.0811      9.3938      9.6769      9.8685      9.8671      9.6716      9.3842      9.0721    
  9.8099      9.1170      8.4967      8.0024      7.6708      7.4931      7.4396      7.4929      7.6676      7.9972    
  8.4964      9.1270      9.8257      10.784      11.987      13.027      13.442      13.032      11.987      10.773    
  13.224      10.817      9.4701      8.5860      7.9114      7.4931      7.3032      7.3025      7.4918      7.9124    
  8.5917      9.4800      10.826      13.225      16.477      19.649      21.610      21.616      19.661      16.486    
  22.915      16.518      12.063      9.7884      8.6665      7.8807      7.4399      7.3024      7.4378      7.8812    
  8.6718      9.7938      12.062      16.507      22.901      29.776      35.079      37.072      35.084      29.787    
  41.642      29.789      19.705      13.128      10.002      8.7021      7.8824      7.4927      7.4916      7.8813    
  8.7034      10.002      13.122      19.694      29.780      41.643      52.292      58.606      58.601      52.284    
  69.652      52.249      35.071      21.662      13.545      10.003      8.6716      7.9125      7.6675      7.9127    
  8.6719      10.002      13.541      21.657      35.071      52.260      69.671      82.749      87.612      82.734    
  103.99      82.675      58.532      37.051      21.656      13.123      9.7940      8.5908      7.9966      7.9972    
  8.5917      9.7935      13.122      21.657      37.056      58.541      82.685      104.00      116.60      116.59    
  138.32      116.54      87.526      58.537      35.066      19.693      12.063      9.4801      8.4949      8.1620    
  8.4962      9.4800      12.062      19.694      35.071      58.541      87.521      116.53      138.31      146.44    
  164.11      146.42      116.54      82.690      52.258      29.778      16.509      10.827      9.1263      8.4164    
  8.4174      9.1274      10.826      16.507      29.780      52.260      82.685      116.53      146.40      164.10    
  145.47      137.40      115.78      86.941      58.086      34.700      19.390      11.812      9.2605      8.2866    
  7.9569      8.2872      9.2609      11.812      19.389      34.700      58.086      86.942      115.78      137.40    
  137.41      137.40      122.58      97.506      69.038      43.517      24.916      14.276      9.9570      8.5816    
  7.9377      7.9368      8.5807      9.9580      14.277      24.916      43.516      69.042      97.519      122.60    
  115.79      122.59      115.78      97.507      73.118      48.772      29.232      16.736      10.816      8.8511    
  7.9556      7.6550      7.9535      8.8504      10.817      16.737      29.229      48.768      73.122      97.518    
  86.937      97.507      97.509      86.942      69.038      48.771      30.863      18.277      11.571      9.0622    
  7.9979      7.4624      7.4619      7.9970      9.0625      11.572      18.277      30.859      48.764      69.031    
  58.072      69.036      73.124      69.047      58.086      43.517      29.232      18.278      11.874      9.1940    
  8.0408      7.3537      7.1343      7.3544      8.0411      9.1941      11.876      18.281      29.233      43.509    
  34.699      43.545      48.811      48.815      43.551      34.700      24.916      16.737      11.571      9.1939    
  8.0588      7.3080      6.9558      6.9567      7.3090      8.0578      9.1931      11.575      16.746      24.924    
  19.400      24.990      29.338      30.976      29.334      24.982      19.390      14.276      10.816      9.0619    
  8.0409      7.3081      6.9000      6.7749      6.9013      7.3076      8.0373      9.0585      10.817      14.284    
  11.811      14.368      16.894      18.463      18.458      16.885      14.361      11.812      9.9572      8.8507    
  7.9979      7.3539      6.9556      6.7748      6.7754      6.9567      7.3534      7.9937      8.8430      9.9500    
  9.2488      10.035      10.978      11.788      12.108      11.785      10.978      10.043      9.2607      8.5814    
  7.9554      7.4628      7.1342      6.9566      6.9016      6.9567      7.1365      7.4663      7.9551      8.5736    
  8.2865      8.6542      8.9982      9.2726      9.4407      9.4418      9.2768      9.0056      8.6609      8.2868    
  7.9374      7.6553      7.4620      7.3542      7.3092      7.3077      7.3530      7.4661      7.6641      7.9446    
  7.9674      8.0224      8.1055      8.2034      8.2870      8.3218      8.2906      8.2068      8.1042      8.0149    
  7.9569      7.9367      7.9538      7.9968      8.0409      8.0579      8.0370      7.9934      7.9556      7.9447    
  8.2860      8.0222      7.8132      7.6749      7.6048      7.5819      7.5831      7.6055      7.6705      7.8044    
  8.0156      8.2869      8.5807      8.8504      9.0621      9.1942      9.1933      9.0585      8.8434      8.5739    
  9.2484      8.6540      8.1060      7.6750      7.3887      7.2363      7.1906      7.2365      7.3866      7.6711    
  8.1057      8.6617      9.2607      9.9582      10.817      11.572      11.877      11.576      10.817      9.9499    
  11.811      10.035      8.9986      8.2036      7.6044      7.2363      7.0700      7.0695      7.2355      7.6052    
  8.2078      9.0059      10.042      11.812      14.277      16.737      18.277      18.281      16.746      14.284    
  19.400      14.368      10.978      9.2725      8.2868      7.5820      7.1909      7.0695      7.1891      7.5820    
  8.2906      9.2765      10.976      14.360      19.390      24.915      29.229      30.859      29.232      24.924    
  34.699      24.990      16.893      11.788      9.4409      8.3220      7.5833      7.2363      7.2353      7.5822    
  8.3228      9.4415      11.784      16.885      24.983      34.700      43.516      48.768      48.764      43.509    
  58.072      43.544      29.338      18.463      12.108      9.4418      8.2904      7.6054      7.3865      7.6054    
  8.2907      9.4414      12.106      18.459      29.338      43.552      58.086      69.043      73.122      69.031    
  86.937      69.035      48.811      30.976      18.458      11.785      9.2764      8.2070      7.6707      7.6712    
  8.2078      9.2763      11.784      18.459      30.981      48.818      69.043      86.942      97.519      97.518    
  115.79      97.508      73.124      48.815      29.334      16.884      10.978      9.0060      8.1045      7.8041    
  8.1055      9.0059      10.976      16.885      29.338      48.818      73.120      97.496      115.78      122.60    
  137.41      122.59      97.509      69.047      43.551      24.982      14.361      10.043      8.6610      8.0145    
  8.0154      8.6620      10.042      14.360      24.983      43.553      69.043      97.496      122.57      137.40    
  108.15      102.13      85.936      64.329      42.830      25.745      15.042      10.144      8.4950      7.6618    
  7.3870      7.6623      8.4954      10.144      15.042      25.745      42.830      64.330      85.937      102.13    
  102.13      102.13      91.024      72.217      50.922      32.075      18.773      11.628      8.9502      7.8773    
  7.3380      7.3373      7.8766      8.9511      11.630      18.773      32.074      50.925      72.225      91.034    
  85.943      91.047      85.936      72.218      53.949      35.889      21.757      13.172      9.4261      8.0806    
  7.3255      7.0788      7.3238      8.0799      9.4275      13.173      21.756      35.887      53.950      72.224    
  64.327      72.267      72.268      64.330      50.922      35.889      22.898      14.164      9.8442      8.2363    
  7.3393      6.9015      6.9011      7.3386      8.2362      9.8444      14.163      22.895      35.884      50.918    
  42.821      51.000      54.062      51.007      42.830      32.074      21.758      14.164      10.014      8.3200    
  7.3609      6.7993      6.6235      6.8000      7.3611      8.3197      10.015      14.165      21.758      32.070    
  25.744      32.193      36.075      36.078      32.197      25.744      18.772      13.173      9.8441      8.3199    
  7.3709      6.7551      6.4733      6.4741      6.7561      7.3705      8.3193      9.8467      13.179      18.777    
  15.048      18.927      22.014      23.190      22.012      18.923      15.042      11.629      9.4262      8.2360    
  7.3610      6.7551      6.4265      6.3268      6.4274      6.7551      7.3591      8.2343      9.4275      11.634    
  10.143      11.790      13.466      14.528      14.525      13.461      11.786      10.144      8.9504      8.0802    
  7.3393      6.7994      6.4731      6.3268      6.3270      6.4736      6.7991      7.3368      8.0756      8.9459    
  8.4877      9.0949      9.7129      10.229      10.433      10.227      9.7128      9.0999      8.4952      7.8771    
  7.3253      6.9018      6.6235      6.4740      6.4277      6.4737      6.6243      6.9037      7.3251      7.8722    
  7.6618      8.0122      8.3463      8.6086      8.7523      8.7528      8.6108      8.3506      8.0162      7.6620    
  7.3378      7.0790      6.9012      6.7998      6.7563      6.7552      6.7987      6.9035      7.0845      7.3422    
  7.3935      7.4770      7.5853      7.7006      7.7924      7.8286      7.7943      7.7023      7.5843      7.4723    
  7.3870      7.3373      7.3241      7.3384      7.3610      7.3706      7.3588      7.3367      7.3255      7.3424    
  7.6613      7.4768      7.3412      7.2622      7.2312      7.2266      7.2274      7.2318      7.2595      7.3359    
  7.4729      7.6620      7.8766      8.0799      8.2359      8.3198      8.3195      8.2342      8.0759      7.8725    
  8.4873      8.0120      7.5857      7.2623      7.0561      6.9512      6.9211      6.9518      7.0553      7.2601    
  7.5855      8.0168      8.4952      8.9513      9.4274      9.8445      10.015      9.8467      9.4273      8.9459    
  10.143      9.0950      8.3466      7.7007      7.2309      6.9512      6.8282      6.8280      6.9510      7.2315    
  7.7031      8.3509      9.0991      10.144      11.630      13.173      14.163      14.165      13.178      11.633    
  15.049      11.790      9.7127      8.6085      7.7921      7.2266      6.9213      6.8279      6.9199      7.2263    
  7.7943      8.6108      9.7116      11.785      15.042      18.773      21.755      22.895      21.757      18.777    
  25.744      18.927      13.466      10.229      8.7525      7.8287      7.2276      6.9517      6.9508      7.2264    
  7.8290      8.7530      10.227      13.460      18.922      25.744      32.074      35.886      35.884      32.070    
  42.821      32.192      22.014      14.528      10.434      8.7528      7.7942      7.2317      7.0552      7.2317    
  7.7944      8.7528      10.432      14.526      22.014      32.197      42.830      50.925      53.951      50.918    
  64.327      51.000      36.076      23.191      14.526      10.227      8.6104      7.7024      7.2597      7.2601    
  7.7031      8.6106      10.227      14.526      23.193      36.080      51.005      64.330      72.225      72.224    
  85.943      72.267      54.062      36.078      22.012      13.460      9.7127      8.3509      7.5845      7.3356    
  7.5853      8.3509      9.7116      13.460      22.014      36.080      54.060      72.260      85.936      91.033    
  102.13      91.048      72.268      51.007      32.197      18.922      11.787      9.1002      8.0163      7.4720    
  7.4727      8.0171      9.0993      11.785      18.922      32.198      51.005      72.260      91.037      102.13    
  71.178      67.152      56.355      42.046      28.080      17.443      11.290      8.7521      7.6534      6.9979    
  6.7884      6.9982      7.6536      8.7519      11.290      17.443      28.080      42.046      56.355      67.152    
  67.154      67.152      59.732      47.219      33.239      21.244      13.284      9.4263      7.9682      7.1154    
  6.7022      6.7017      7.1149      7.9689      9.4278      13.285      21.243      33.239      47.223      59.737    
  56.358      59.770      56.355      47.220      35.185      23.584      14.949      10.147      8.2153      7.2320    
  6.6487      6.4638      6.6476      7.2314      8.2163      10.149      14.949      23.582      35.186      47.223    
  42.045      47.313      47.314      42.046      33.239      23.583      15.598      10.628      8.3877      7.3237    
  6.6232      6.2957      6.2954      6.6227      7.3234      8.3876      10.627      15.597      23.581      33.236    
  28.077      33.391      35.397      33.394      28.080      21.243      14.949      10.628      8.4548      7.3736    
  6.6153      6.1936      6.0646      6.1942      6.6155      7.3730      8.4543      10.628      14.949      21.241    
  17.443      21.445      23.905      23.907      21.447      17.443      13.284      10.148      8.3877      7.3735    
  6.6143      6.1469      5.9388      5.9394      6.1478      6.6143      7.3731      8.3887      10.151      13.287    
  11.293      13.516      15.349      16.059      15.348      13.514      11.290      9.4266      8.2154      7.3235    
  6.6153      6.1469      5.8993      5.8250      5.9000      6.1472      6.6148      7.3230      8.2163      9.4290    
  8.7513      9.6593      10.577      11.169      11.168      10.575      9.6581      8.7521      7.9683      7.2317    
  6.6232      6.1937      5.9387      5.8250      5.8249      5.9387      6.1935      6.6223      7.2298      7.9662    
  7.6498      8.1857      8.6357      8.9511      9.0689      8.9500      8.6357      8.1881      7.6535      7.1153    
  6.6486      6.2959      6.0645      5.9393      5.9002      5.9387      6.0644      6.2965      6.6484      7.1129    
  6.9979      7.3216      7.6326      7.8789      8.0148      8.0148      7.8795      7.6342      7.3233      6.9980    
  6.7020      6.4640      6.2955      6.1940      6.1479      6.1473      6.1933      6.2964      6.4664      6.7040    
  6.7913      6.9065      7.0388      7.1677      7.2641      7.3004      7.2647      7.1681      7.0381      6.9044    
  6.7884      6.7017      6.6478      6.6225      6.6153      6.6143      6.6146      6.6221      6.6487      6.7042    
  6.9975      6.9064      6.8525      6.8360      6.8447      6.8579      6.8583      6.8451      6.8349      6.8501    
  6.9047      6.9980      7.1149      7.2314      7.3231      7.3731      7.3732      7.3230      7.2301      7.1131    
  7.6496      7.3214      7.0391      6.8361      6.7160      6.6607      6.6465      6.6616      6.7162      6.8353    
  7.0389      7.3237      7.6535      7.9690      8.2162      8.3876      8.4546      8.3888      8.2162      7.9662    
  8.7515      8.1857      7.6328      7.1678      6.8444      6.6607      6.5835      6.5836      6.6609      6.8448    
  7.1688      7.6345      8.1875      8.7521      9.4279      10.149      10.627      10.628      10.150      9.4289    
  11.293      9.6595      8.6356      7.8788      7.2640      6.8579      6.6467      6.5835      6.6457      6.8573    
  7.2647      7.8798      8.6349      9.6568      11.290      13.285      14.949      15.596      14.949      13.287    
  17.443      13.516      10.577      8.9510      8.0150      7.3005      6.8585      6.6615      6.6608      6.8574    
  7.3003      8.0153      8.9501      10.574      13.513      17.443      21.243      23.582      23.581      21.242    
  28.077      21.445      15.349      11.169      9.0692      8.0149      7.2646      6.8451      6.7162      6.8450    
  7.2648      8.0152      9.0691      11.169      15.349      21.447      28.080      33.240      35.186      33.237    
  42.045      33.390      23.906      16.060      11.168      8.9498      7.8792      7.1682      6.8351      6.8353    
  7.1688      7.8796      8.9501      11.169      16.061      23.908      33.393      42.046      47.223      47.222    
  56.358      47.314      35.397      23.907      15.348      10.575      8.6356      7.6344      7.0383      6.8499    
  7.0388      7.6345      8.6349      10.575      15.349      23.908      35.396      47.311      56.355      59.736    
  67.154      59.771      47.314      33.393      21.447      13.514      9.6582      8.1883      7.3234      6.9041    
  6.9046      7.3239      8.1876      9.6567      13.513      21.447      33.393      47.310      59.766      67.152    
  41.291      38.939      32.684      24.575      16.998      11.665      8.9200      7.6981      6.8737      6.4040    
  6.2581      6.4043      6.8739      7.6979      8.9197      11.665      16.998      24.575      32.684      38.939    
  38.939      38.938      34.617      27.441      19.682      13.423      9.6755      8.0033      7.0495      6.4245    
  6.1356      6.1353      6.4242      7.0499      8.0043      9.6763      13.423      19.682      27.442      34.618    
  32.685      34.666      32.684      27.441      20.714      14.548      10.342      8.2414      7.1888      6.4495    
  6.0379      5.9109      6.0372      6.4491      7.1894      8.2424      10.342      14.548      20.714      27.442    
  24.575      27.567      27.567      24.575      19.682      14.548      10.610      8.3921      7.2741      6.4700    
  5.9682      5.7427      5.7425      5.9679      6.4697      7.2738      8.3917      10.609      14.547      19.682    
  16.998      19.887      20.996      19.887      16.998      13.423      10.342      8.3922      7.3022      6.4811    
  5.9269      5.6326      5.5443      5.6330      5.9271      6.4806      7.3014      8.3918      10.342      13.423    
  11.665      13.686      14.969      14.969      13.686      11.665      9.6754      8.2417      7.2741      6.4811    
  5.9134      5.5786      5.4326      5.4330      5.5793      5.9136      6.4808      7.2742      8.2425      9.6765    
  8.9204      9.9664      10.850      11.198      10.850      9.9663      8.9199      8.0035      7.1889      6.4699    
  5.9269      5.5786      5.3968      5.3422      5.3972      5.5790      5.9272      6.4701      7.1894      8.0042    
  7.6975      8.2953      8.7809      9.0739      9.0738      8.7807      8.2954      7.6981      7.0496      6.4493    
  5.9682      5.6326      5.4325      5.3422      5.3421      5.4323      5.6326      5.9682      6.4491      7.0491    
  6.8727      7.3297      7.7233      7.9876      8.0801      7.9873      7.7233      7.3304      6.8738      6.4244    
  6.0378      5.7428      5.5442      5.4330      5.3973      5.4323      5.5436      5.7426      6.0377      6.4237    
  6.4041      6.6931      6.9671      7.1828      7.3015      7.3013      7.1824      6.9671      6.6934      6.4041    
  6.1355      5.9111      5.7426      5.6329      5.5794      5.5791      5.6324      5.7426      5.9116      6.1359    
  6.2588      6.3985      6.5423      6.6710      6.7616      6.7943      6.7614      6.6707      6.5419      6.3980    
  6.2581      6.1353      6.0373      5.9677      5.9269      5.9136      5.9271      5.9681      6.0379      6.1360    
  6.4038      6.3984      6.4113      6.4387      6.4700      6.4910      6.4912      6.4703      6.4386      6.4109    
  6.3982      6.4041      6.4242      6.4490      6.4695      6.4806      6.4809      6.4701      6.4492      6.4239    
  6.8725      6.6930      6.5425      6.4388      6.3815      6.3579      6.3527      6.3587      6.3821      6.4388    
  6.5424      6.6935      6.8738      7.0500      7.1894      7.2739      7.3016      7.2742      7.1893      7.0491    
  7.6976      7.3297      6.9673      6.6711      6.4698      6.3579      6.3118      6.3120      6.3583      6.4701    
  6.6711      6.9673      7.3300      7.6981      8.0044      8.2424      8.3918      8.3918      8.2423      8.0041    
  8.9207      8.2954      7.7232      7.1827      6.7614      6.4910      6.3528      6.3119      6.3522      6.4905    
  6.7614      7.1828      7.7228      8.2945      8.9199      9.6762      10.342      10.609      10.342      9.6765    
  11.665      9.9664      8.7806      7.9875      7.3016      6.7943      6.4913      6.3586      6.3582      6.4906    
  6.7940      7.3018      7.9876      8.7800      9.9655      11.665      13.423      14.548      14.548      13.423    
  16.998      13.686      10.849      9.0740      8.0803      7.3013      6.7613      6.4702      6.3821      6.4702    
  6.7614      7.3017      8.0808      9.0742      10.849      13.686      16.998      19.682      20.714      19.682    
  24.575      19.887      14.969      11.198      9.0739      7.9871      7.1823      6.6708      6.4387      6.4388    
  6.6711      7.1827      7.9875      9.0742      11.199      14.969      19.887      24.575      27.442      27.441    
  32.685      27.567      20.996      14.969      10.850      8.7805      7.7232      6.9673      6.5421      6.4107    
  6.5423      6.9673      7.7228      8.7801      10.850      14.969      20.996      27.566      32.684      34.618    
  38.939      34.666      27.567      19.887      13.686      9.9663      8.2955      7.3306      6.6934      6.3978    
  6.3981      6.6937      7.3301      8.2944      9.9655      13.686      19.887      27.566      34.665      38.938    
  21.547      20.423      17.492      13.859      10.723      8.7387      7.6499      6.8243      6.2540      5.9449    
  5.8508      5.9451      6.2540      6.8242      7.6497      8.7386      10.723      13.859      17.492      20.423    
  20.422      20.422      18.371      15.074      11.723      9.2699      7.8945      6.9864      6.3017      5.8828    
  5.6957      5.6956      5.8827      6.3019      6.9871      7.8952      9.2701      11.723      15.073      18.371    
  17.491      18.425      17.492      15.074      12.121      9.6258      8.0617      7.0957      6.3363      5.8279    