unknown system                          
   1.00000000000000     
     2.399900    0.000000    0.000000
    -1.199950    2.078374    0.000000
     0.000000    0.000000    4.391920
   Fe
     2
Direct
  0.000000  0.000000  0.000000
  0.333333  0.666667  0.500000
 
   20   20   36
 0.18435064121E+03 0.17411488300E+03 0.14673785856E+03 0.11036989681E+03 0.74004742552E+02
 0.44261667145E+02 0.24249267856E+02 0.13781997070E+02 0.10040399221E+02 0.89046250054E+01
 0.85276260792E+01 0.89052874423E+01 0.10040906281E+02 0.13781741643E+02 0.24248583115E+02
 0.44261355282E+02 0.74005078498E+02 0.11037039984E+03 0.14673802021E+03 0.17411478002E+03
 0.17412488454E+03 0.17411429644E+03 0.15534736063E+03 0.12370514479E+03 0.87863820530E+02
 0.55590009933E+02 0.31626776497E+02 0.17332307158E+02 0.11107268304E+02 0.92635198488E+01
 0.85299240336E+01 0.85288772004E+01 0.92623776573E+01 0.11108427212E+02 0.17333813950E+02
 0.31625159873E+02 0.55587808478E+02 0.87869906059E+02 0.12372418312E+03 0.15537056922E+03
 0.14675304894E+03 0.15533756999E+03 0.14673793361E+03 0.12370571435E+03 0.93019586789E+02
 0.62298235413E+02 0.37299753128E+02 0.20773565876E+02 0.12446458507E+02 0.95946211052E+01
 0.85703709636E+01 0.82208776838E+01 0.85678925424E+01 0.95938951611E+01 0.12448569203E+02
 0.20773629449E+02 0.37294399208E+02 0.62293169204E+02 0.93024759113E+02 0.12372209393E+03
 0.11036394296E+03 0.12365207815E+03 0.12365446923E+03 0.11037099708E+03 0.87863766009E+02
 0.62297773456E+02 0.39428834541E+02 0.22893241100E+02 0.13597849806E+02 0.99106936476E+01
 0.86339232179E+01 0.80087225712E+01 0.80080020121E+01 0.86330255882E+01 0.99114481354E+01
 0.13599435120E+02 0.22892179756E+02 0.39422536661E+02 0.62287432374E+02 0.87853344661E+02
 0.73984386412E+02 0.87771248314E+02 0.92904657087E+02 0.87787836684E+02 0.74004897874E+02
 0.55589081012E+02 0.37299798081E+02 0.22893548026E+02 0.14053215734E+02 0.10127814869E+02
 0.86928048672E+01 0.78891406093E+01 0.76277981427E+01 0.78898832026E+01 0.86931598607E+01
 0.10128434732E+02 0.14056459899E+02 0.22898636635E+02 0.37300062563E+02 0.55577703958E+02
 0.44259658720E+02 0.55516987921E+02 0.62174134421E+02 0.62179753740E+02 0.55526833092E+02
 0.44261134961E+02 0.31626650119E+02 0.20774235685E+02 0.13597785408E+02 0.10127657126E+02
 0.87169454243E+01 0.78394033786E+01 0.74180389892E+01 0.74190788988E+01 0.78402256652E+01
 0.87151216267E+01 0.10126738170E+02 0.13604195437E+02 0.20787519721E+02 0.31636960955E+02
 0.24263611846E+02 0.31615307435E+02 0.37242047793E+02 0.39346838287E+02 0.37236367291E+02
 0.31603661064E+02 0.24248931976E+02 0.17332816311E+02 0.12446531125E+02 0.99102847444E+01
 0.86929323819E+01 0.78394642265E+01 0.73521678654E+01 0.72010618802E+01 0.73536933215E+01
 0.78383982007E+01 0.86874965060E+01 0.99051221593E+01 0.12448569203E+02 0.17343787567E+02
 0.13780618531E+02 0.17355764031E+02 0.20793597704E+02 0.22894788503E+02 0.22888288162E+02
 0.20779665896E+02 0.17345899895E+02 0.13782007738E+02 0.11107540819E+02 0.95941662498E+01
 0.86339343001E+01 0.78893633117E+01 0.74178038789E+01 0.72010225530E+01 0.72020540900E+01
 0.74196523486E+01 0.78887600904E+01 0.86276918218E+01 0.95828245640E+01 0.11097199581E+02
 0.10023983965E+02 0.11126301831E+02 0.12495919724E+02 0.13659901745E+02 0.14114463684E+02
 0.13655216818E+02 0.12495837218E+02 0.11137209844E+02 0.10040624686E+02 0.92633112475E+01
 0.85701395335E+01 0.80090954325E+01 0.76276757207E+01 0.74189269911E+01 0.73540614495E+01
 0.74197355512E+01 0.76315679132E+01 0.80144588907E+01 0.85697861265E+01 0.92522731378E+01
 0.89044118156E+01 0.92872177180E+01 0.96474782966E+01 0.99919468090E+01 0.10226272818E+02
 0.10228133286E+02 0.99985441478E+01 0.96585343605E+01 0.92969290051E+01 0.89048327129E+01
 0.85296573135E+01 0.82211766636E+01 0.80082198058E+01 0.78896107972E+01 0.78404707557E+01
 0.78385824433E+01 0.78882649825E+01 0.80143038230E+01 0.82339470199E+01 0.85398573466E+01
 0.85426548104E+01 0.85773797918E+01 0.86438330917E+01 0.87324602678E+01 0.88139644044E+01
 0.88497446929E+01 0.88194784920E+01 0.87377905651E+01 0.86422291025E+01 0.85667227253E+01
 0.85276210005E+01 0.85288187237E+01 0.85682459494E+01 0.86327741509E+01 0.86929323819E+01
 0.87152858992E+01 0.86871415126E+01 0.86274293024E+01 0.85703709636E+01 0.85400655900E+01
 0.89037977252E+01 0.85771735227E+01 0.83118731068E+01 0.81313843660E+01 0.80365679511E+01
 0.80040579174E+01 0.80056828453E+01 0.80373324648E+01 0.81248752049E+01 0.82992129761E+01
 0.85675870424E+01 0.89048810594E+01 0.92624839673E+01 0.95938704178E+01 0.99109811221E+01
 0.10128526407E+02 0.10126987589E+02 0.99050640493E+01 0.95832546761E+01 0.92525880491E+01
 0.10023529358E+02 0.92869316026E+01 0.86444065487E+01 0.81315209627E+01 0.77877359209E+01
 0.76039897533E+01 0.75487890474E+01 0.76036231777E+01 0.77840509039E+01 0.81257024851E+01
 0.86440702346E+01 0.92978046318E+01 0.10040677138E+02 0.11108663931E+02 0.12448372257E+02
 0.13599481970E+02 0.14057037957E+02 0.13604306685E+02 0.12448299639E+02 0.11097163785E+02
 0.13780894895E+02 0.11126409181E+02 0.96478997600E+01 0.87326184694E+01 0.80360944180E+01
 0.76039726094E+01 0.74082053441E+01 0.74073374243E+01 0.76025210027E+01 0.80370575700E+01
 0.87388557031E+01 0.96587609087E+01 0.11136107669E+02 0.13782028675E+02 0.17334049388E+02
 0.20773641298E+02 0.22892445851E+02 0.22898595803E+02 0.20786861760E+02 0.17343513853E+02
 0.24264296587E+02 0.17356093169E+02 0.12495653897E+02 0.99917969216E+01 0.88136265971E+01
 0.80040966360E+01 0.75491320065E+01 0.74072295317E+01 0.75469479154E+01 0.80047292025E+01
 0.88194784920E+01 0.99977948837E+01 0.12493943634E+02 0.17344650420E+02 0.24248931976E+02
 0.31625079920E+02 0.37294134726E+02 0.39422251299E+02 0.37299753128E+02 0.31637007379E+02
 0.44259983086E+02 0.31615215145E+02 0.20792949192E+02 0.13659650068E+02 0.10226516006E+02
 0.88499047350E+01 0.80059070577E+01 0.76033907252E+01 0.76023056941E+01 0.80049146963E+01
 0.88514657890E+01 0.10227324854E+02 0.13653532759E+02 0.20780226843E+02 0.31605214221E+02
 0.44261147464E+02 0.55587396953E+02 0.62293000636E+02 0.62287725763E+02 0.55578221354E+02
 0.73984083160E+02 0.55516336861E+02 0.37241740879E+02 0.22894975641E+02 0.14115022388E+02
 0.10228200066E+02 0.88192572574E+01 0.80371965930E+01 0.77839463926E+01 0.80373952313E+01
 0.88195950647E+01 0.10227148445E+02 0.14110726607E+02 0.22889411274E+02 0.37241997951E+02
 0.55528529654E+02 0.74004930568E+02 0.87870222888E+02 0.93025217449E+02 0.87853716010E+02
 0.11036346665E+03 0.87770790330E+02 0.62174422740E+02 0.39347499819E+02 0.22888545485E+02
 0.13654903972E+02 0.99981007148E+01 0.87379464503E+01 0.81250908068E+01 0.81257814903E+01
 0.87388533867E+01 0.99975013381E+01 0.13653471590E+02 0.22889481459E+02 0.39353399345E+02
 0.62184487334E+02 0.87781406528E+02 0.11037102381E+03 0.12372433821E+03 0.12372167947E+03
 0.14675288729E+03 0.12365256418E+03 0.92905114441E+02 0.62180153796E+02 0.37236110219E+02
 0.20779103921E+02 0.12495653897E+02 0.96589587974E+01 0.86425654166E+01 0.82988846143E+01
 0.86438330917E+01 0.96587638822E+01 0.12494026140E+02 0.20780313379E+02 0.37242047793E+02
 0.62184599071E+02 0.92898993733E+02 0.12363585114E+03 0.14673793361E+03 0.15536962636E+03
 0.17412497433E+03 0.15533868374E+03 0.12365463406E+03 0.87787311816E+02 0.55526428191E+02
 0.31603439756E+02 0.17346128202E+02 0.11137602686E+02 0.92970229328E+01 0.85662549123E+01
 0.85673254985E+01 0.92981846749E+01 0.11136393161E+02 0.17344549589E+02 0.31605085203E+02
 0.55528775813E+02 0.87781339644E+02 0.12363552994E+03 0.15531528495E+03 0.17411428325E+03
 0.17374109550E+03 0.16410509616E+03 0.13830959330E+03 0.10399917751E+03 0.69671286446E+02
 0.41643397918E+02 0.22900970636E+02 0.13225074511E+02 0.98254595054E+01 0.87388283020E+01
 0.83738069015E+01 0.87394664438E+01 0.98259474122E+01 0.13224826997E+02 0.22900309098E+02
 0.41643096012E+02 0.69671609554E+02 0.10399966234E+03 0.13830974947E+03 0.16410499724E+03
 0.16411425504E+03 0.16410452844E+03 0.14642297437E+03 0.11657881840E+03 0.82743299506E+02
 0.52294444248E+02 0.29777182698E+02 0.16475569429E+02 0.10782731786E+02 0.90821227527E+01
 0.83712221323E+01 0.83702234157E+01 0.90810313206E+01 0.10783863748E+02 0.16477134387E+02
 0.29775867003E+02 0.52292466601E+02 0.82748825045E+02 0.11659623319E+03 0.14644426854E+03
 0.13832352565E+03 0.14641805376E+03 0.13830966509E+03 0.11657936930E+03 0.87607276304E+02
 0.58610355467E+02 0.35083737875E+02 0.19648715227E+02 0.11985284028E+02 0.93945876132E+01
 0.84063575979E+01 0.80695431926E+01 0.84039825550E+01 0.93938619528E+01 0.11987306519E+02
 0.19648940057E+02 0.35078919300E+02 0.58605664670E+02 0.87611920793E+02 0.11659433780E+03
 0.10399377826E+03 0.11654084300E+03 0.11654303145E+03 0.10400024171E+03 0.82743247998E+02
 0.58609909043E+02 0.37078459245E+02 0.21610927845E+02 0.13025900600E+02 0.96767110079E+01
 0.84648187157E+01 0.78630109440E+01 0.78623287857E+01 0.84639398090E+01 0.96773310716E+01
 0.13027282084E+02 0.21609890109E+02 0.37072633179E+02 0.58600395550E+02 0.82733683167E+02
 0.69652716652E+02 0.82675832190E+02 0.87525852777E+02 0.82691002887E+02 0.69671437764E+02
 0.52293546551E+02 0.35083779933E+02 0.21611224123E+02 0.13438960380E+02 0.98679183046E+01
 0.85198480496E+01 0.77466760162E+01 0.74964726216E+01 0.77474190660E+01 0.85201895887E+01
 0.98683784507E+01 0.13441757507E+02 0.21615774185E+02 0.35084036015E+02 0.52283208798E+02
 0.41641607646E+02 0.52249302743E+02 0.58531607561E+02 0.58536763535E+02 0.52258310678E+02
 0.41642883545E+02 0.29777059385E+02 0.19649362076E+02 0.13025840181E+02 0.98677665199E+01
 0.85425254904E+01 0.76982409624E+01 0.72953208604E+01 0.72963388141E+01 0.76991186369E+01
 0.85409129822E+01 0.98668900852E+01 0.13031677794E+02 0.19661581618E+02 0.29786613171E+02
 0.22914085284E+02 0.29789261574E+02 0.35071046350E+02 0.37050136590E+02 0.35065910940E+02
 0.29778662973E+02 0.22900646228E+02 0.16476061772E+02 0.11985355765E+02 0.96763167362E+01
 0.85199690392E+01 0.76982987937E+01 0.72322577162E+01 0.70881554488E+01 0.72337144901E+01
 0.76974073756E+01 0.85150728733E+01 0.96716698917E+01 0.11987306519E+02 0.16486169295E+02
 0.13223729196E+02 0.16517295541E+02 0.19705828505E+02 0.21662070392E+02 0.21656142451E+02
 0.19693143705E+02 0.16508365954E+02 0.13225085799E+02 0.10782994835E+02 0.93941474590E+01
 0.84648272834E+01 0.77468897807E+01 0.72950957527E+01 0.70881184215E+01 0.70890303545E+01
 0.72967293780E+01 0.77463212644E+01 0.84591535348E+01 0.93838065589E+01 0.10773508144E+02
 0.98103602877E+01 0.10816683684E+02 0.12063591333E+02 0.13127857027E+02 0.13544600425E+02
 0.13123533522E+02 0.12063511502E+02 0.10826731284E+02 0.98256758847E+01 0.90819192192E+01
 0.84061339015E+01 0.78633717318E+01 0.74963565150E+01 0.72961935542E+01 0.72340686540E+01
 0.72968092258E+01 0.74997783992E+01 0.78682128615E+01 0.84057934928E+01 0.90717735177E+01
 0.87386344609E+01 0.91173101667E+01 0.94696949449E+01 0.97884945765E+01 0.10001397281E+02
 0.10003045563E+02 0.97944205072E+01 0.94797366663E+01 0.91261866489E+01 0.87390277277E+01
 0.83709660219E+01 0.80698345727E+01 0.78625397489E+01 0.77471555994E+01 0.76993536724E+01
 0.76975845798E+01 0.77458440334E+01 0.78680630370E+01 0.80815283709E+01 0.83803132014E+01
 0.83875830881E+01 0.84265924376E+01 0.84961563964E+01 0.85858669307E+01 0.86668383203E+01
 0.87019254048E+01 0.86718133219E+01 0.85906513791E+01 0.84946239296E+01 0.84168131779E+01
 0.83738034156E+01 0.83701688951E+01 0.84043229637E+01 0.84636946258E+01 0.85199690392E+01
 0.85410719810E+01 0.85147313342E+01 0.84588997839E+01 0.84063575979E+01 0.83805147912E+01
 0.87380418777E+01 0.84263925126E+01 0.81739411517E+01 0.80023081480E+01 0.79119021651E+01
 0.78806524726E+01 0.78821680355E+01 0.79126534097E+01 0.79963731914E+01 0.81623504075E+01
 0.84176344582E+01 0.87390732863E+01 0.90811327950E+01 0.93938360817E+01 0.96768802646E+01
 0.98684684611E+01 0.98671318803E+01 0.96716133564E+01 0.93842208420E+01 0.90720785256E+01
 0.98099220575E+01 0.91170325553E+01 0.84967098359E+01 0.80024408148E+01 0.76708487233E+01
 0.74930944719E+01 0.74395670430E+01 0.74929020320E+01 0.76676233927E+01 0.79971596157E+01
 0.84963851910E+01 0.91270186317E+01 0.98257255612E+01 0.10784092636E+02 0.11987117026E+02
 0.13027328547E+02 0.13442315834E+02 0.13031784676E+02 0.11987045289E+02 0.10773473983E+02
 0.13223996861E+02 0.10816786877E+02 0.94701014210E+01 0.85860211200E+01 0.79114454234E+01
 0.74930774845E+01 0.73032492925E+01 0.73024935890E+01 0.74918243824E+01 0.79123621844E+01
 0.85916941727E+01 0.94799823331E+01 0.10825653634E+02 0.13225105950E+02 0.16477362317E+02
 0.19648951360E+02 0.21610146474E+02 0.21615734271E+02 0.19660946072E+02 0.16485904881E+02
 0.22914746822E+02 0.16517613803E+02 0.12063334123E+02 0.97883504775E+01 0.86665126348E+01
 0.78806889272E+01 0.74398975229E+01 0.73023893029E+01 0.74378057817E+01 0.78811639513E+01
 0.86718133219E+01 0.97938061843E+01 0.12061700564E+02 0.16507050492E+02 0.22900646228E+02
 0.29775788679E+02 0.35078663218E+02 0.37072357510E+02 0.35083737875E+02 0.29786658161E+02
 0.41641920458E+02 0.29789172530E+02 0.19705201939E+02 0.13127613653E+02 0.10001632262E+02
 0.87020791850E+01 0.78823840476E+01 0.74926776736E+01 0.74916170114E+01 0.78813435089E+01
 0.87034377213E+01 0.10002400085E+02 0.13122056061E+02 0.19693523364E+02 0.29779917537E+02
 0.41642894450E+02 0.52292069090E+02 0.58605502427E+02 0.58600679732E+02 0.52283708984E+02
 0.69652422987E+02 0.52248673289E+02 0.35070750008E+02 0.21662250866E+02 0.13545139929E+02
 0.10003109722E+02 0.86715999069E+01 0.79125230730E+01 0.76675227124E+01 0.79126885893E+01
 0.86719255925E+01 0.10002229264E+02 0.13541324090E+02 0.21657240252E+02 0.35070998212E+02
 0.52259799044E+02 0.69671467207E+02 0.82749132074E+02 0.87612363576E+02 0.82734041703E+02
 0.10399331771E+03 0.82675389631E+02 0.58531886467E+02 0.37050775905E+02 0.21656391061E+02
 0.13123231308E+02 0.97939926226E+01 0.85908032754E+01 0.79965810098E+01 0.79972347672E+01
 0.85916918796E+01 0.97935223987E+01 0.13121997222E+02 0.21657308388E+02 0.37056219290E+02
 0.58541134975E+02 0.82685143082E+02 0.10400026598E+03 0.11659638230E+03 0.11659393601E+03
 0.13832336949E+03 0.11654131383E+03 0.87526295330E+02 0.58537150237E+02 0.35065662736E+02
 0.19692600903E+02 0.12063334123E+02 0.94801473467E+01 0.84949485746E+01 0.81620311521E+01
 0.84961563964E+01 0.94799865374E+01 0.12061780395E+02 0.19693607128E+02 0.35071046350E+02
 0.58541242771E+02 0.87520736062E+02 0.11652602380E+03 0.13830966509E+03 0.14644335574E+03
 0.16411434193E+03 0.14641913184E+03 0.11654319164E+03 0.82690495198E+02 0.52257919051E+02
 0.29778449307E+02 0.16508585700E+02 0.10827110288E+02 0.91262783174E+01 0.84163603262E+01
 0.84173815316E+01 0.91273879116E+01 0.10825929446E+02 0.16506951977E+02 0.29779792916E+02
 0.52260036870E+02 0.82685077952E+02 0.11652571316E+03 0.14639765480E+03 0.16410451640E+03
 0.14546554103E+03 0.13740477141E+03 0.11578070870E+03 0.86941382202E+02 0.58085767004E+02
 0.34700398209E+02 0.19389858735E+02 0.11811843051E+02 0.92604645143E+01 0.82866395843E+01
 0.79569179049E+01 0.82872089590E+01 0.92608977820E+01 0.11811617202E+02 0.19389262840E+02
 0.34700125980E+02 0.58086056123E+02 0.86941817078E+02 0.11578084937E+03 0.13740468329E+03
 0.13741174238E+03 0.13740425729E+03 0.12258274581E+03 0.97506110980E+02 0.69038239319E+02
 0.43517314467E+02 0.24916083209E+02 0.14275553859E+02 0.99569944921E+01 0.85816070138E+01
 0.79376569341E+01 0.79367920452E+01 0.85806567759E+01 0.99580381249E+01 0.14277223856E+02
 0.24915506828E+02 0.43515906134E+02 0.69042322181E+02 0.97519318996E+02 0.12259906511E+03
 0.11579137098E+03 0.12259038729E+03 0.11578077134E+03 0.97506608913E+02 0.73118385760E+02
 0.48771754664E+02 0.29232326249E+02 0.16736187351E+02 0.10815550324E+02 0.88511365491E+01
 0.79555701350E+01 0.76549805684E+01 0.79534878473E+01 0.88504258807E+01 0.10817323256E+02
 0.16736791705E+02 0.29228876347E+02 0.48768048451E+02 0.73121680321E+02 0.97517921806E+02
 0.86937412009E+02 0.97507095432E+02 0.97508759492E+02 0.86942344069E+02 0.69038196325E+02
 0.48771352197E+02 0.30863472962E+02 0.18277460682E+02 0.11571140827E+02 0.90622155020E+01
 0.79978638280E+01 0.74624301304E+01 0.74618542014E+01 0.79970498027E+01 0.90625059277E+01
 0.11572011380E+02 0.18276500940E+02 0.30858886536E+02 0.48763997243E+02 0.69030858025E+02
 0.58071818341E+02 0.69035661629E+02 0.73123545135E+02 0.69047157582E+02 0.58085906838E+02
 0.43516505110E+02 0.29232360047E+02 0.18277726864E+02 0.11874415852E+02 0.91940080925E+01
 0.80407553587E+01 0.73536715178E+01 0.71343379805E+01 0.73544017791E+01 0.80410590938E+01
 0.91940795924E+01 0.11876094098E+02 0.18280906009E+02 0.29232592526E+02 0.43508847048E+02
 0.34699160995E+02 0.43544568020E+02 0.48810630445E+02 0.48814580689E+02 0.43551403372E+02
 0.34699934189E+02 0.24915968547E+02 0.16736769253E+02 0.11571091616E+02 0.91938730861E+01
 0.80588367732E+01 0.73080032322E+01 0.69557825948E+01 0.69567263901E+01 0.73089916824E+01
 0.80577563771E+01 0.91931146078E+01 0.11575451465E+02 0.16746212967E+02 0.24923530899E+02
 0.19399784444E+02 0.24990336921E+02 0.29337834479E+02 0.30975892691E+02 0.29334097505E+02
 0.24982442367E+02 0.19389566856E+02 0.14275998600E+02 0.10815619506E+02 0.90618625590E+01
 0.80408581958E+01 0.73080526907E+01 0.69000220121E+01 0.67748613288E+01 0.69012836547E+01
 0.73075917030E+01 0.80373429156E+01 0.90585358532E+01 0.10817323256E+02 0.14283847948E+02
 0.11810602972E+02 0.14367653202E+02 0.16894061752E+02 0.18462584135E+02 0.18458135726E+02
 0.16884595812E+02 0.14361124992E+02 0.11811856056E+02 0.99572307566E+01 0.88507381482E+01
 0.79978655946E+01 0.73538602322E+01 0.69555853953E+01 0.67748306335E+01 0.67754405636E+01
 0.69566771451E+01 0.73533875494E+01 0.79936589630E+01 0.88429838332E+01 0.99499648088E+01
 0.92487995593E+01 0.10035077987E+02 0.10977903053E+02 0.11788251425E+02 0.12107719721E+02
 0.11784874626E+02 0.10977830798E+02 0.10042876238E+02 0.92606553190E+01 0.85814181107E+01
 0.79553683503E+01 0.74627566697E+01 0.71342393511E+01 0.69565996249E+01 0.69015986308E+01
 0.69567475794E+01 0.71364775399E+01 0.74662592707E+01 0.79550644660E+01 0.85735976895E+01
 0.82864980638E+01 0.86542376972E+01 0.89982134495E+01 0.92725880556E+01 0.94406561264E+01
 0.94417680608E+01 0.92768007060E+01 0.90056418169E+01 0.86609487605E+01 0.82868156729E+01
 0.79374305416E+01 0.76552500221E+01 0.74620457745E+01 0.73541635666E+01 0.73091985807E+01
 0.73077491428E+01 0.73529606226E+01 0.74661243045E+01 0.76641477408E+01 0.79445620268E+01
 0.79674395089E+01 0.80223805371E+01 0.81055149430E+01 0.82034280350E+01 0.82870421977E+01
 0.83218346934E+01 0.82906357385E+01 0.82068194530E+01 0.81041848305E+01 0.80148859622E+01
 0.79569185210E+01 0.79367483690E+01 0.79537917315E+01 0.79968226423E+01 0.80408581958E+01
 0.80579005113E+01 0.80370391805E+01 0.79934300360E+01 0.79555701350E+01 0.79447447432E+01
 0.82859663012E+01 0.80221986153E+01 0.78132064123E+01 0.76749205150E+01 0.76047760049E+01
 0.75819217035E+01 0.75831456512E+01 0.76054787579E+01 0.76704700932E+01 0.78043932442E+01
 0.80155879679E+01 0.82868532851E+01 0.85807448277E+01 0.88503972015E+01 0.90621008471E+01
 0.91941647877E+01 0.91933348095E+01 0.90584837157E+01 0.88433535550E+01 0.85738746443E+01
 0.92484076000E+01 0.86539841831E+01 0.81060115635E+01 0.76750420035E+01 0.73887047697E+01
 0.72362680522E+01 0.71906483369E+01 0.72364928481E+01 0.73866362545E+01 0.76711433763E+01
 0.81057201408E+01 0.86616596557E+01 0.92606966274E+01 0.99582449863E+01 0.10817154816E+02
 0.11572056601E+02 0.11876596720E+02 0.11575545897E+02 0.10817085634E+02 0.99499354056E+01
 0.11810845961E+02 0.10035169300E+02 0.89985773778E+01 0.82035708016E+01 0.76043669979E+01
 0.72362515100E+01 0.70700235160E+01 0.70695499310E+01 0.72354957580E+01 0.76051549509E+01
 0.82077878204E+01 0.90059280117E+01 0.10041879148E+02 0.11811873195E+02 0.14277430685E+02
 0.16736801359E+02 0.18276729774E+02 0.18280868661E+02 0.16745640718E+02 0.14283610035E+02
 0.19400380339E+02 0.14367940500E+02 0.10977670289E+02 0.92724603850E+01 0.82867509870E+01
 0.75819517552E+01 0.71909433243E+01 0.70694559576E+01 0.71891130266E+01 0.75820428365E+01
 0.82906357385E+01 0.92765193425E+01 0.10976254179E+02 0.14359681231E+02 0.19389566856E+02
 0.24915433094E+02 0.29228643869E+02 0.30858638361E+02 0.29232326249E+02 0.24923571827E+02
 0.34699441183E+02 0.24990257088E+02 0.16893497452E+02 0.11788031671E+02 0.94408678183E+01
 0.83219707568E+01 0.75833383127E+01 0.72362915742E+01 0.72353110263E+01 0.75822054463E+01
 0.83228204419E+01 0.94415219302E+01 0.11783917600E+02 0.16884538608E+02 0.24982964398E+02
 0.34699942148E+02 0.43515548085E+02 0.48767904153E+02 0.48764255413E+02 0.43509298355E+02
 0.58071551903E+02 0.43543999961E+02 0.29337568078E+02 0.18462745761E+02 0.12108204695E+02
 0.94418248441E+01 0.82904444838E+01 0.76053640879E+01 0.73865465832E+01 0.76054492879E+01
 0.82907356945E+01 0.94413670216E+01 0.12105602843E+02 0.18459149956E+02 0.29337791002E+02
 0.43552368357E+02 0.58085929520E+02 0.69042601394E+02 0.73122079256E+02 0.69031180232E+02
 0.86936996086E+02 0.69035262844E+02 0.48810882537E+02 0.30976468952E+02 0.18458359644E+02
 0.11784602580E+02 0.92764169699E+01 0.82069598282E+01 0.76706558869E+01 0.76712076814E+01
 0.82077854290E+01 0.92762632770E+01 0.11783865309E+02 0.18459212248E+02 0.30980713802E+02
 0.48818001821E+02 0.69042771465E+02 0.86942363022E+02 0.97519451307E+02 0.97517556183E+02
 0.11579123030E+03 0.97507522960E+02 0.73123945525E+02 0.48814929438E+02 0.29333874581E+02
 0.16884107408E+02 0.10977670289E+02 0.90060133054E+01 0.81044762533E+01 0.78041001116E+01
 0.81055149430E+01 0.90059355719E+01 0.10976326435E+02 0.16884614505E+02 0.29337834479E+02
 0.48818098478E+02 0.73119828957E+02 0.97495921406E+02 0.11578077134E+03 0.12259823791E+03
 0.13741182102E+03 0.12259136389E+03 0.97508906369E+02 0.69046698568E+02 0.43551049569E+02
 0.24982250454E+02 0.14361320423E+02 0.10043215998E+02 0.86610337909E+01 0.80144757244E+01
 0.80153596520E+01 0.86619982002E+01 0.10042127595E+02 0.14359589365E+02 0.24982852318E+02
 0.43552582613E+02 0.69042711237E+02 0.97495640755E+02 0.12257488141E+03 0.13740424781E+03
 0.10815231412E+03 0.10212688164E+03 0.85936399714E+02 0.64329159851E+02 0.42829651590E+02
 0.25744792079E+02 0.15042233020E+02 0.10143753716E+02 0.84950280440E+01 0.76618337936E+01
 0.73869827731E+01 0.76623022310E+01 0.84953805354E+01 0.10143558939E+02 0.15041734400E+02
 0.25744567063E+02 0.42829895650E+02 0.64329524352E+02 0.85936517422E+02 0.10212680794E+03
 0.10213114548E+03 0.10212644773E+03 0.91023557051E+02 0.72217219501E+02 0.50922254787E+02
 0.32074722499E+02 0.18772533245E+02 0.11628291719E+02 0.89502330420E+01 0.78773137315E+01
 0.73380153849E+01 0.73373413148E+01 0.78765652226E+01 0.89511166742E+01 0.11629963554E+02
 0.18772754750E+02 0.32073986388E+02 0.50924584272E+02 0.72225245425E+02 0.91033707385E+02
 0.85943004999E+02 0.91046885803E+02 0.85936448982E+02 0.72217638566E+02 0.53948557743E+02
 0.35889073585E+02 0.21757485851E+02 0.13172220292E+02 0.94260902380E+01 0.80805506481E+01
 0.73254724566E+01 0.70787928032E+01 0.73238203100E+01 0.80798979261E+01 0.94274962865E+01
 0.13173184431E+02 0.21755670278E+02 0.35886613965E+02 0.53950240013E+02 0.72224450998E+02
 0.64326926727E+02 0.72266705645E+02 0.72267725268E+02 0.64329969362E+02 0.50922224375E+02
 0.35888736260E+02 0.22897927558E+02 0.14163629398E+02 0.98441511600E+01 0.82362899113E+01
 0.73392750681E+01 0.69014883492E+01 0.69010613410E+01 0.73385851653E+01 0.82362253489E+01
 0.98444402599E+01 0.14162812884E+02 0.22894915896E+02 0.35884079624E+02 0.50917649108E+02
 0.42821373119E+02 0.51000477193E+02 0.54061564489E+02 0.51007443282E+02 0.42829774024E+02
 0.32074044024E+02 0.21757507230E+02 0.14163851081E+02 0.10014407863E+02 0.83200438216E+01
 0.73608780021E+01 0.67992898338E+01 0.66235341662E+01 0.67999647399E+01 0.73611265024E+01
 0.83197072428E+01 0.10014818825E+02 0.14165410509E+02 0.21757705232E+02 0.32069648848E+02
 0.25744202257E+02 0.32192868586E+02 0.36075339532E+02 0.36077790472E+02 0.32197019411E+02
 0.25744402490E+02 0.18772431385E+02 0.13172706072E+02 0.98441183653E+01 0.83199334338E+01
 0.73709296997E+01 0.67550729171E+01 0.64732865977E+01 0.64740914668E+01 0.67561077924E+01
 0.73704630677E+01 0.83193424363E+01 0.98466730781E+01 0.13178681204E+02 0.18777457096E+02
 0.15048221977E+02 0.18927193518E+02 0.22014317782E+02 0.23190048601E+02 0.22012264058E+02
 0.18922598779E+02 0.15041989618E+02 0.11628665760E+02 0.94261554347E+01 0.82359979602E+01
 0.73609548459E+01 0.67551104562E+01 0.64264714811E+01 0.63267858704E+01 0.64274459997E+01
 0.67551193993E+01 0.73590915486E+01 0.82342513106E+01 0.94274962865E+01 0.11633677508E+02
 0.10142697355E+02 0.11790004942E+02 0.13466195310E+02 0.14527965284E+02 0.14525329033E+02
 0.13460659512E+02 0.11786377666E+02 0.10143769112E+02 0.89504296599E+01 0.80802145163E+01
 0.73392676995E+01 0.67994421402E+01 0.64731296024E+01 0.63267640210E+01 0.63270238671E+01
 0.64735946901E+01 0.67991031567E+01 0.73368491238E+01 0.80756275428E+01 0.89459175512E+01
 0.84876605459E+01 0.90949493450E+01 0.97128590995E+01 0.10229401235E+02 0.10433167203E+02
 0.10227218993E+02 0.97127981079E+01 0.90999216795E+01 0.84951813347E+01 0.78771473696E+01
 0.73253032317E+01 0.69017639015E+01 0.66234602799E+01 0.64739911856E+01 0.64277038935E+01
 0.64736514043E+01 0.66243367076E+01 0.69036589658E+01 0.73250527223E+01 0.78722276828E+01
 0.76617623322E+01 0.80122051824E+01 0.83463098581E+01 0.86085779599E+01 0.87522883455E+01
 0.87527771731E+01 0.86107541552E+01 0.83505614908E+01 0.80162432162E+01 0.76619756058E+01
 0.73378321562E+01 0.70790285367E+01 0.69012240027E+01 0.67997638247E+01 0.67562739415E+01
 0.67552480093E+01 0.67987499351E+01 0.69035460752E+01 0.70844646685E+01 0.73422187534E+01
 0.73934703502E+01 0.74769871455E+01 0.75853194263E+01 0.77005756146E+01 0.77923856301E+01
 0.78285891090E+01 0.77943209997E+01 0.77023112648E+01 0.75842862475E+01 0.74723349381E+01
 0.73869883263E+01 0.73373127007E+01 0.73240708193E+01 0.73383856729E+01 0.73609548459E+01
 0.73705853365E+01 0.73588430483E+01 0.73366570000E+01 0.73254724566E+01 0.73423733680E+01
 0.76613205717E+01 0.74768320564E+01 0.73412386200E+01 0.72621743912E+01 0.72312109379E+01
 0.72265707765E+01 0.72274127080E+01 0.72318148396E+01 0.72595432145E+01 0.73358649039E+01
 0.74728686035E+01 0.76620022826E+01 0.78766341476E+01 0.80798661550E+01 0.82358875956E+01
 0.83197850184E+01 0.83195305997E+01 0.82342055086E+01 0.80759319034E+01 0.78724629698E+01
 0.84873369582E+01 0.80119874994E+01 0.75857313907E+01 0.72622791355E+01 0.70560568882E+01
 0.69511978217E+01 0.69210996941E+01 0.69518408155E+01 0.70553165448E+01 0.72600564365E+01
 0.75854897562E+01 0.80167831150E+01 0.84952102384E+01 0.89512912431E+01 0.94273589434E+01
 0.98444831718E+01 0.10015239308E+02 0.98467487848E+01 0.94272937467E+01 0.89458955023E+01
 0.10142903620E+02 0.90950227182E+01 0.83466103930E+01 0.77007012273E+01 0.72308732848E+01
 0.69511819526E+01 0.68281704251E+01 0.68280199323E+01 0.69509907198E+01 0.72314779659E+01
 0.77031409171E+01 0.83508716876E+01 0.90990715838E+01 0.10143780599E+02 0.11630139442E+02
 0.13173191361E+02 0.14163000985E+02 0.14165376927E+02 0.13178202354E+02 0.11633479354E+02
 0.15048720597E+02 0.11790245846E+02 0.97126627559E+01 0.86084747693E+01 0.77921459908E+01
 0.72265913292E+01 0.69213415563E+01 0.68279415590E+01 0.69198961854E+01 0.72262782564E+01
 0.77943209997E+01 0.86108354860E+01 0.97115656956E+01 0.11784894853E+02 0.15041989618E+02
 0.18772687808E+02 0.21755472276E+02 0.22894708703E+02 0.21757485851E+02 0.18777492014E+02
 0.25744434307E+02 0.18927127401E+02 0.13465723737E+02 0.10229216852E+02 0.87524653233E+01
 0.78286989255E+01 0.72275703309E+01 0.69516742762E+01 0.69508400496E+01 0.72264153266E+01
 0.78289673244E+01 0.87529592998E+01 0.10226861221E+02 0.13460155701E+02 0.18922332965E+02
 0.25744409524E+02 0.32073686252E+02 0.35886496408E+02 0.35884299391E+02 0.32070027187E+02
 0.42821147310E+02 0.32192392205E+02 0.22014095847E+02 0.14528098987E+02 0.10433570835E+02
 0.87528230954E+01 0.77941626932E+01 0.72317233804E+01 0.70552436945E+01 0.72317241599E+01
 0.77944023324E+01 0.87528282443E+01 0.10432382913E+02 0.14526190616E+02 0.22014280760E+02
 0.32197384218E+02 0.42829792275E+02 0.50924822000E+02 0.53950574445E+02 0.50917917247E+02
 0.64326577112E+02 0.51000143649E+02 0.36075551363E+02 0.23190530907E+02 0.14525516248E+02
 0.10226991885E+02 0.86104362784E+01 0.77024338704E+01 0.72596963968E+01 0.72601048745E+01
 0.77031379100E+01 0.86106207999E+01 0.10226818496E+02 0.14526244129E+02 0.23193254927E+02
 0.36080008404E+02 0.51004860544E+02 0.64329984248E+02 0.72225353271E+02 0.72224139779E+02
 0.85942887291E+02 0.72267068179E+02 0.54061901615E+02 0.36078082505E+02 0.22012079145E+02
 0.13460252085E+02 0.97126627559E+01 0.83508741774E+01 0.75845278821E+01 0.73356115180E+01
 0.75853194263E+01 0.83508838394E+01 0.97116266871E+01 0.13460219847E+02 0.22014317782E+02
 0.36080088605E+02 0.54059529535E+02 0.72260013763E+02 0.85936448982E+02 0.91033008471E+02
 0.10213121184E+03 0.91047710457E+02 0.72267851857E+02 0.51007056590E+02 0.32196722407E+02
 0.18922439427E+02 0.11786536874E+02 0.91002030159E+01 0.80163177014E+01 0.74719886324E+01
 0.74726773868E+01 0.80170752833E+01 0.90992795471E+01 0.11784813157E+02 0.18922239729E+02
 0.32197563595E+02 0.51004807395E+02 0.72259777818E+02 0.91037423634E+02 0.10212644039E+03
 0.71177568276E+02 0.67152320508E+02 0.56355042066E+02 0.42045740623E+02 0.28080179728E+02
 0.17443099761E+02 0.11290171272E+02 0.87521068643E+01 0.76533573394E+01 0.69978755298E+01
 0.67883671720E+01 0.69982291738E+01 0.76536183557E+01 0.87519489745E+01 0.11289786601E+02
 0.17442933053E+02 0.28080376619E+02 0.42046026775E+02 0.56355132874E+02 0.67152261833E+02
 0.67154223484E+02 0.67151981915E+02 0.59732125398E+02 0.47219473672E+02 0.33238630619E+02
 0.21243522032E+02 0.13284032836E+02 0.94262898723E+01 0.79681900764E+01 0.71153904402E+01