    2    2    1    1
  0.1095321E+02  0.2399900E-09  0.2399900E-09  0.4391920E-09  0.5000000E-15
  1.000000000000000E-004
  CAR 
 unknown system                          
     16     96     40
 
  0.0000000E+00  0.0000000E+00  0.0000000E+00  0.7513148E-03
    1       -2.366676   1.000000
    2        1.403460   1.000000
    3        3.917916   1.000000
    4        4.707045   1.000000
    5        4.707203   1.000000
    6        4.937861   1.000000
    7        4.938023   1.000000
    8        5.127667   1.000000
    9        5.982053   0.964705
   10        5.982088   0.964646
   11        6.792497  -0.000012
   12        6.792534  -0.000012
   13       12.235729   0.000000
   14       27.567716   0.000000
   15       29.429694   0.000000
   16       32.003162   0.000000
   17       33.663746   0.000000
   18       34.150127   0.000000
   19       34.150188   0.000000
   20       34.948549   0.000000
   21       34.948787   0.000000
   22       37.738351   0.000000
   23       37.738377   0.000000
   24       38.658693   0.000000
   25       40.722182   0.000000
   26       40.791155   0.000000
   27       40.791163   0.000000
   28       44.145647   0.000000
   29       44.146066   0.000000
   30       45.778805   0.000000
   31       45.778985   0.000000
   32       47.708534   0.000000
   33       55.009469   0.000000
   34       59.216521   0.000000
   35       59.352861   0.000000
   36       59.353959   0.000000
   37       60.137135   0.000000
   38       60.241522   0.000000
   39       60.241558   0.000000
   40       60.730125   0.000000
 
  0.9090909E-01  0.1839951E-17  0.0000000E+00  0.4507889E-02
    1       -2.045900   1.000000
    2        1.652448   1.000000
    3        3.983405   1.000000
    4        4.483724   1.000000
    5        4.605406   1.000000
    6        4.826070   1.000000
    7        4.887881   1.000000
    8        5.108547   1.000000
    9        5.822471   1.027112
   10        5.886261   1.035297
   11        6.813473  -0.000006
   12        7.708514  -0.000000
   13       12.267592   0.000000
   14       27.962705   0.000000
   15       27.980193   0.000000
   16       30.350893   0.000000
   17       31.450686   0.000000
   18       33.533780   0.000000
   19       33.663164   0.000000
   20       33.828164   0.000000
   21       36.979248   0.000000
   22       37.101953   0.000000
   23       37.875309   0.000000
   24       38.424865   0.000000
   25       41.524326   0.000000
   26       41.775903   0.000000
   27       42.126418   0.000000
   28       42.603790   0.000000
   29       45.605942   0.000000
   30       46.983854   0.000000
   31       48.310134   0.000000
   32       49.947509   0.000000
   33       54.786105   0.000000
   34       56.560982   0.000000
   35       57.704559   0.000000
   36       58.078236   0.000000
   37       58.594579   0.000000
   38       60.114495   0.000000
   39       61.201795   0.000000
   40       62.289614   0.000000
 
  0.1818182E+00 -0.2019011E-17  0.0000000E+00  0.4507889E-02
    1       -1.133992   1.000000
    2        2.249740   1.000000
    3        3.611527   1.000000
    4        3.958373   1.000000
    5        4.374969   1.000000
    6        4.864540   1.000000
    7        5.390808   1.000001
    8        5.443950   1.000008
    9        5.581679   1.000418
   10        5.658988   1.002398
   11        6.841887  -0.000002
   12        9.343709  -0.000000
   13       12.394625   0.000000
   14       24.071483   0.000000
   15       28.717499   0.000000
   16       28.906591   0.000000
   17       29.047325   0.000000
   18       29.530168   0.000000
   19       32.979788   0.000000
   20       34.484599   0.000000
   21       34.547843   0.000000
   22       35.931892   0.000000
   23       38.271796   0.000000
   24       38.676963   0.000000
   25       42.082995   0.000000
   26       43.432150   0.000000
   27       44.863329   0.000000
   28       46.833322   0.000000
   29       47.880332   0.000000
   30       50.695324   0.000000
   31       51.121486   0.000000
   32       53.227061   0.000000
   33       53.703953   0.000000
   34       53.985171   0.000000
   35       55.981921   0.000000
   36       57.038422   0.000000
   37       58.576020   0.000000
   38       59.857847   0.000000
   39       61.828040   0.000000
   40       64.204058   0.000000
 
  0.2727273E+00 -0.1266942E-16  0.0000000E+00  0.4507889E-02
    1        0.176820   1.000000
    2        2.569387   1.000000
    3        2.942154   1.000000
    4        3.969842   1.000000
    5        4.185183   1.000000
    6        4.965743   1.000000
    7        5.395720   1.000002
    8        5.537588   1.000133
    9        6.104197   0.586986
   10        6.240384   0.090319
   11        6.845951  -0.000002
   12       11.247947  -0.000000
   13       12.687936   0.000000
   14       20.046162   0.000000
   15       25.498214   0.000000
   16       26.401494   0.000000
   17       27.065786   0.000000
   18       29.919216   0.000000
   19       31.557671   0.000000
   20       33.656961   0.000000
   21       34.839911   0.000000
   22       35.129192   0.000000
   23       35.766923   0.000000
   24       39.007776   0.000000
   25       45.786018   0.000000
   26       46.820418   0.000000
   27       48.320185   0.000000
   28       48.564764   0.000000
   29       48.710882   0.000000
   30       51.283527   0.000000
   31       52.125927   0.000000
   32       53.319871   0.000000
   33       55.028521   0.000000
   34       56.278754   0.000000
   35       57.026053   0.000000
   36       58.870267   0.000000
   37       59.734593   0.000000
   38       60.614053   0.000000
   39       62.818205   0.000000
   40       63.023090   0.000000
 
  0.3636364E+00 -0.9442033E-17  0.0000000E+00  0.4507889E-02
    1        1.384146   1.000000
    2        2.332564   1.000000
    3        2.514838   1.000000
    4        4.041485   1.000000
    5        4.538877   1.000000
    6        4.673497   1.000000
    7        5.176310   1.000000
    8        6.691083  -0.000233
    9        6.819779  -0.000005
   10        6.830238  -0.000004
   11        6.899912  -0.000000
   12       12.905807   0.000000
   13       13.340571   0.000000
   14       16.953118   0.000000
   15       22.163206   0.000000
   16       23.974279   0.000000
   17       24.643409   0.000000
   18       29.423032   0.000000
   19       30.763688   0.000000
   20       33.786665   0.000000
   21       34.628733   0.000000
   22       35.320092   0.000000
   23       35.500583   0.000000
   24       38.981886   0.000000
   25       45.090760   0.000000
   26       47.178640   0.000000
   27       48.954276   0.000000
   28       51.788060   0.000000
   29       52.235201   0.000000
   30       52.285716   0.000000
   31       53.634983   0.000000
   32       55.605327   0.000000
   33       55.892962   0.000000
   34       58.159384   0.000000
   35       59.689351   0.000000
   36       60.066390   0.000000
   37       61.344987   0.000000
   38       62.412062   0.000000
   39       63.480824   0.000000
   40       64.905187   0.000000
 
  0.4545455E+00 -0.8106395E-18  0.0000000E+00  0.4507889E-02
    1        1.894172   1.000000
    2        2.084548   1.000000
    3        2.312971   1.000000
    4        4.288255   1.000000
    5        4.579081   1.000000
    6        4.901250   1.000000
    7        5.053174   1.000000
    8        6.816083  -0.000006
    9        7.263505  -0.000000
   10        7.340634  -0.000000
   11        8.290989  -0.000000
   12       11.502361  -0.000000
   13       15.370657   0.000000
   14       16.644414   0.000000
   15       19.533533   0.000000
   16       21.173085   0.000000
   17       23.669450   0.000000
   18       28.882596   0.000000
   19       30.498205   0.000000
   20       32.699063   0.000000
   21       34.396786   0.000000
   22       36.473813   0.000000
   23       37.981067   0.000000
   24       38.058518   0.000000
   25       41.738989   0.000000
   26       47.142495   0.000000
   27       49.541479   0.000000
   28       52.908321   0.000000
   29       54.959848   0.000000
   30       55.238095   0.000000
   31       55.628428   0.000000
   32       57.483864   0.000000
   33       58.750782   0.000000
   34       59.458966   0.000000
   35       60.241948   0.000000
   36       60.406511   0.000000
   37       63.463024   0.000000
   38       63.746558   0.000000
   39       63.897731   0.000000
   40       64.763877   0.000000
 
  0.9090909E-01  0.9090909E-01  0.0000000E+00  0.4507889E-02
    1       -1.427179   1.000000
    2        2.093435   1.000000
    3        3.839031   1.000000
    4        3.970153   1.000000
    5        4.563054   1.000000
    6        4.612360   1.000000
    7        5.256876   1.000000
    8        5.471182   1.000019
    9        5.473864   1.000021
   10        5.829043   1.028570
   11        6.805980  -0.000008
   12        8.883531  -0.000000
   13       12.350889   0.000000
   14       25.883337   0.000000
   15       26.954120   0.000000
   16       28.707733   0.000000
   17       30.975908   0.000000
   18       32.423494   0.000000
   19       32.610498   0.000000
   20       33.151480   0.000000
   21       33.583141   0.000000
   22       38.893766   0.000000
   23       39.371143   0.000000
   24       39.439163   0.000000
   25       40.995228   0.000000
   26       41.245332   0.000000
   27       41.715931   0.000000
   28       47.621661   0.000000
   29       48.835935   0.000000
   30       49.121132   0.000000
   31       49.136339   0.000000
   32       53.131340   0.000000
   33       54.217036   0.000000
   34       54.285417   0.000000
   35       55.663390   0.000000
   36       56.926681   0.000000
   37       58.614845   0.000000
   38       60.687453   0.000000
   39       61.711600   0.000000
   40       63.198170   0.000000
 
  0.1818182E+00  0.9090909E-01  0.0000000E+00  0.9015778E-02
    1       -0.292999   1.000000
    2        2.675787   1.000000
    3        3.182071   1.000000
    4        3.755596   1.000000
    5        4.285286   1.000000
    6        4.946352   1.000000
    7        5.038237   1.000000
    8        5.591163   1.000528
    9        5.912617   1.030374
   10        6.146094   0.410776
   11        6.778381  -0.000019
   12       10.575807  -0.000000
   13       12.597742   0.000000
   14       22.116509   0.000000
   15       24.679254   0.000000
   16       27.410820   0.000000
   17       29.323978   0.000000
   18       29.765434   0.000000
   19       31.730794   0.000000
   20       32.459858   0.000000
   21       33.730181   0.000000
   22       37.395471   0.000000
   23       38.610811   0.000000
   24       39.633817   0.000000
   25       42.688468   0.000000
   26       43.793123   0.000000
   27       45.799046   0.000000
   28       48.867145   0.000000
   29       50.339115   0.000000
   30       51.692296   0.000000
   31       51.849060   0.000000
   32       53.572221   0.000000
   33       54.667157   0.000000
   34       55.062341   0.000000
   35       56.098682   0.000000
   36       56.676351   0.000000
   37       59.771191   0.000000
   38       61.063550   0.000000
   39       62.460521   0.000000
   40       63.695924   0.000000
 
  0.2727273E+00  0.9090909E-01  0.0000000E+00  0.9015778E-02
    1        1.053329   1.000000
    2        2.651466   1.000000
    3        2.710377   1.000000
    4        3.825955   1.000000
    5        4.361097   1.000000
    6        4.646278   1.000000
    7        5.267488   1.000000
    8        5.684210   1.003926
    9        6.621691  -0.001243
   10        6.746006  -0.000051
   11        7.020279  -0.000000
   12       12.556339   0.000000
   13       13.078380   0.000000
   14       18.373713   0.000000
   15       23.041743   0.000000
   16       23.928971   0.000000
   17       26.270442   0.000000
   18       28.407903   0.000000
   19       31.658230   0.000000
   20       33.159448   0.000000
   21       33.255267   0.000000
   22       36.746636   0.000000
   23       37.797687   0.000000
   24       40.610870   0.000000
   25       44.511306   0.000000
   26       46.808906   0.000000
   27       47.839804   0.000000
   28       47.855854   0.000000
   29       50.411485   0.000000
   30       52.297656   0.000000
   31       52.865401   0.000000
   32       55.421121   0.000000
   33       56.593124   0.000000
   34       57.361907   0.000000
   35       59.082932   0.000000
   36       61.109074   0.000000
   37       61.443516   0.000000
   38       62.085652   0.000000
   39       62.275012   0.000000
   40       63.549279   0.000000
 
  0.3636364E+00  0.9090909E-01  0.0000000E+00  0.9015778E-02
    1        1.932997   1.000000
    2        2.352688   1.000000
    3        2.445366   1.000000
    4        4.181025   1.000000
    5        4.368515   1.000000
    6        4.763222   1.000000
    7        5.007162   1.000000
    8        6.582500  -0.002830
    9        6.715049  -0.000123
   10        7.093153  -0.000000
   11        8.131598  -0.000000
   12       12.784064   0.000000
   13       14.693028   0.000000
   14       16.515678   0.000000
   15       20.891021   0.000000
   16       21.665443   0.000000
   17       23.085470   0.000000
   18       27.590036   0.000000
   19       30.779279   0.000000
   20       32.713258   0.000000
   21       35.161421   0.000000
   22       37.094023   0.000000
   23       37.928156   0.000000
   24       39.739152   0.000000
   25       43.752666   0.000000
   26       46.922273   0.000000
   27       48.011237   0.000000
   28       50.155548   0.000000
   29       51.671763   0.000000
   30       53.937598   0.000000
   31       55.624733   0.000000
   32       57.499579   0.000000
   33       58.516012   0.000000
   34       59.580614   0.000000
   35       60.421309   0.000000
   36       61.601521   0.000000
   37       62.188013   0.000000
   38       63.199411   0.000000
   39       63.710130   0.000000
   40       64.855277   0.000000
 
  0.4545455E+00  0.9090909E-01  0.0000000E+00  0.4507889E-02
    1        2.132415   1.000000
    2        2.212137   1.000000
    3        2.362798   1.000000
    4        4.266377   1.000000
    5        4.610588   1.000000
    6        4.823402   1.000000
    7        4.909472   1.000000
    8        6.701933  -0.000175
    9        7.111343  -0.000000
   10        7.137942  -0.000000
   11        9.304710  -0.000000
   12       11.272488  -0.000000
   13       16.176428   0.000000
   14       17.091500   0.000000
   15       19.118103   0.000000
   16       20.431253   0.000000
   17       22.000126   0.000000
   18       27.299459   0.000000
   19       30.414951   0.000000
   20       32.570097   0.000000
   21       35.742029   0.000000
   22       37.798915   0.000000
   23       38.687908   0.000000
   24       39.203184   0.000000
   25       41.509551   0.000000
   26       47.665541   0.000000
   27       48.057073   0.000000
   28       50.370585   0.000000
   29       54.537367   0.000000
   30       54.976329   0.000000
   31       57.677346   0.000000
   32       58.160177   0.000000
   33       58.673538   0.000000
   34       59.051852   0.000000
   35       59.185354   0.000000
   36       61.151012   0.000000
   37       64.233656   0.000000
   38       64.314849   0.000000
   39       64.580870   0.000000
   40       64.961621   0.000000
 
  0.1818182E+00  0.1818182E+00  0.0000000E+00  0.4507889E-02
    1        0.946736   1.000000
    2        2.828415   1.000000
    3        3.154160   1.000000
    4        3.346152   1.000000
    5        4.325198   1.000000
    6        4.625351   1.000000
    7        5.164856   1.000000
    8        5.357397   1.000000
    9        6.593867  -0.002250
   10        6.644942  -0.000731
   11        7.088251  -0.000000
   12       12.310290   0.000000
   13       13.159633   0.000000
   14       20.217841   0.000000
   15       20.839213   0.000000
   16       25.652056   0.000000
   17       26.662629   0.000000
   18       28.569595   0.000000
   19       29.022819   0.000000
   20       32.687894   0.000000
   21       35.218648   0.000000
   22       38.738897   0.000000
   23       39.613319   0.000000
   24       41.842396   0.000000
   25       42.746987   0.000000
   26       44.424297   0.000000
   27       45.117970   0.000000
   28       48.754601   0.000000
   29       51.124801   0.000000
   30       51.285109   0.000000
   31       51.678259   0.000000
   32       55.876312   0.000000
   33       56.571358   0.000000
   34       59.172716   0.000000
   35       59.458023   0.000000
   36       59.816009   0.000000
   37       60.187261   0.000000
   38       62.670063   0.000000
   39       63.195662   0.000000
   40       63.278787   0.000000
 
  0.2727273E+00  0.1818182E+00  0.0000000E+00  0.9015778E-02
    1        2.156927   1.000000
    2        2.632892   1.000000
    3        2.881436   1.000000
    4        3.548744   1.000000
    5        4.358919   1.000000
    6        4.601531   1.000000
    7        4.979476   1.000000
    8        5.713695   1.006646
    9        6.530190  -0.007330
   10        7.009313  -0.000000
   11        8.295063  -0.000000
   12       13.987722   0.000000
   13       14.367415   0.000000
   14       17.158034   0.000000
   15       19.297800   0.000000
   16       22.831191   0.000000
   17       25.013023   0.000000
   18       25.222455   0.000000
   19       27.786756   0.000000
   20       34.936641   0.000000
   21       35.704603   0.000000
   22       38.664459   0.000000
   23       41.169397   0.000000
   24       42.611784   0.000000
   25       43.118482   0.000000
   26       45.307906   0.000000
   27       46.252688   0.000000
   28       46.873539   0.000000
   29       50.195185   0.000000
   30       51.212458   0.000000
   31       54.276862   0.000000
   32       57.927209   0.000000
   33       58.946101   0.000000
   34       60.205507   0.000000
   35       62.271237   0.000000
   36       62.368869   0.000000
   37       62.754979   0.000000
   38       63.044298   0.000000
   39       64.075783   0.000000
   40       64.483917   0.000000
 
  0.3636364E+00  0.1818182E+00  0.0000000E+00  0.9015778E-02
    1        2.565804   1.000000
    2        2.584906   1.000000
    3        2.677683   1.000000
    4        4.025005   1.000000
    5        4.279315   1.000000
    6        4.650316   1.000000
    7        4.867984   1.000000
    8        6.394908  -0.033426
    9        6.465965  -0.018311
   10        6.967812  -0.000000
   11        9.842268  -0.000000
   12       12.700818   0.000000
   13       16.513556   0.000000
   14       17.193797   0.000000
   15       18.415749   0.000000
   16       20.126037   0.000000
   17       22.046407   0.000000
   18       24.681547   0.000000
   19       27.160603   0.000000
   20       35.854977   0.000000
   21       37.315914   0.000000
   22       38.819424   0.000000
   23       40.066353   0.000000
   24       41.095983   0.000000
   25       44.275275   0.000000
   26       45.516625   0.000000
   27       46.849978   0.000000
   28       48.233639   0.000000
   29       51.320498   0.000000
   30       53.121294   0.000000
   31       54.207705   0.000000
   32       57.445086   0.000000
   33       58.047357   0.000000
   34       59.440132   0.000000
   35       62.332778   0.000000
   36       63.519980   0.000000
   37       63.867804   0.000000
   38       64.752290   0.000000
   39       65.112071   0.000000
   40       65.157145   0.000000
 
  0.2727273E+00  0.2727273E+00  0.0000000E+00  0.4507889E-02
    1        2.705936   1.000000
    2        2.967885   1.000000
    3        3.232009   1.000000
    4        3.310355   1.000000
    5        4.213555   1.000000
    6        4.577859   1.000000
    7        4.878504   1.000000
    8        5.959231   0.996921
    9        6.339839  -0.031250
   10        6.925074  -0.000000
   11        9.969288  -0.000000
   12       14.713322   0.000000
   13       15.444511   0.000000
   14       16.539256   0.000000
   15       17.772433   0.000000
   16       22.053508   0.000000
   17       22.279411   0.000000
   18       23.809272   0.000000
   19       24.588177   0.000000
   20       36.828573   0.000000
   21       37.421865   0.000000
   22       41.753501   0.000000
   23       42.523085   0.000000
   24       42.604882   0.000000
   25       42.907730   0.000000
   26       43.728681   0.000000
   27       45.905520   0.000000
   28       48.289744   0.000000
   29       48.474685   0.000000
   30       53.021664   0.000000
   31       53.557542   0.000000
   32       55.329271   0.000000
   33       57.904802   0.000000
   34       59.626990   0.000000
   35       63.591219   0.000000
   36       64.048224   0.000000
   37       64.438189   0.000000
   38       64.850378   0.000000
   39       65.345862   0.000000
   40       65.840992   0.000000
 
  0.3636364E+00  0.2727273E+00  0.0000000E+00  0.4507889E-02
    1        2.777298   1.000000
    2        3.102334   1.000000
    3        3.153783   1.000000
    4        3.619318   1.000000
    5        4.262517   1.000000
    6        4.285398   1.000000
    7        5.007465   1.000000
    8        6.268209   0.034443
    9        6.314037  -0.018550
   10        6.606509  -0.001728
   11       11.736829   0.000000
   12       12.875732   0.000000
   13       15.056198   0.000000
   14       18.442144   0.000000
   15       18.729675   0.000000
   16       19.924107   0.000000
   17       22.009608   0.000000
   18       22.050424   0.000000
   19       24.014022   0.000000
   20       37.229894   0.000000
   21       40.042853   0.000000
   22       40.426604   0.000000
   23       41.828333   0.000000
   24       41.891692   0.000000
   25       43.458940   0.000000
   26       44.641768   0.000000
   27       47.796732   0.000000
   28       48.649829   0.000000
   29       48.824504   0.000000
   30       52.197958   0.000000
   31       53.290438   0.000000
   32       53.724680   0.000000
   33       57.244382   0.000000
   34       57.878229   0.000000
   35       63.938317   0.000000
   36       64.773291   0.000000
   37       65.211408   0.000000
   38       65.406090   0.000000
   39       65.591583   0.000000
   40       66.178716   0.000000
 
  0.0000000E+00  0.0000000E+00  0.9090909E-01  0.1502630E-02
    1       -2.295879   1.000000
    2        1.357463   1.000000
    3        3.901165   1.000000
    4        4.703432   1.000000
    5        4.703589   1.000000
    6        4.926807   1.000000
    7        4.926968   1.000000
    8        4.944404   1.000000
    9        6.007428   0.914206
   10        6.007464   0.914123
   11        6.783582  -0.000016
   12        6.783619  -0.000016
   13       12.583602   0.000000
   14       26.875820   0.000000
   15       29.490573   0.000000
   16       31.866637   0.000000
   17       34.200966   0.000000
   18       34.201021   0.000000
   19       34.269345   0.000000
   20       34.963116   0.000000
   21       34.963348   0.000000
   22       37.649885   0.000000
   23       37.649899   0.000000
   24       38.871790   0.000000
   25       40.462135   0.000000
   26       40.462153   0.000000
   27       40.875659   0.000000
   28       44.387062   0.000000
   29       44.387460   0.000000
   30       46.198341   0.000000
   31       46.198500   0.000000
   32       47.594104   0.000000
   33       54.497999   0.000000
   34       58.134248   0.000000
   35       58.439491   0.000000
   36       58.439746   0.000000
   37       58.985186   0.000000
   38       58.986162   0.000000
   39       60.669475   0.000000
   40       60.700291   0.000000
 
  0.9090909E-01  0.1839951E-17  0.9090909E-01  0.9015778E-02
    1       -1.976494   1.000000
    2        1.609886   1.000000
    3        3.969645   1.000000
    4        4.363497   1.000000
    5        4.592502   1.000000
    6        4.837262   1.000000
    7        4.882764   1.000000
    8        5.096596   1.000000
    9        5.855354   1.033501
   10        5.916290   1.029028
   11        6.802663  -0.000009
   12        7.575680  -0.000000
   13       12.653376   0.000000
   14       27.230634   0.000000
   15       28.045106   0.000000
   16       30.332967   0.000000
   17       31.515339   0.000000
   18       33.078936   0.000000
   19       34.046412   0.000000
   20       34.382698   0.000000
   21       36.688821   0.000000
   22       37.183162   0.000000
   23       37.947074   0.000000
   24       38.612774   0.000000
   25       41.447205   0.000000
   26       41.681868   0.000000
   27       42.394247   0.000000
   28       42.923453   0.000000
   29       45.394770   0.000000
   30       47.273224   0.000000
   31       48.613429   0.000000
   32       49.928042   0.000000
   33       53.556654   0.000000
   34       56.787092   0.000000
   35       57.042653   0.000000
   36       57.682982   0.000000
   37       58.762311   0.000000
   38       60.140915   0.000000
   39       60.307815   0.000000
   40       62.081308   0.000000
 
  0.1818182E+00 -0.2019011E-17  0.9090909E-01  0.9015778E-02
    1       -1.070387   1.000000
    2        2.217526   1.000000
    3        3.553404   1.000000
    4        3.967048   1.000000
    5        4.352310   1.000000
    6        4.818258   1.000000
    7        5.369633   1.000001
    8        5.518864   1.000079
    9        5.554346   1.000208
   10        5.721602   1.007580
   11        6.825932  -0.000004
   12        9.004099  -0.000000
   13       12.912876   0.000000
   14       24.122015   0.000000
   15       28.015578   0.000000
   16       28.797224   0.000000
   17       28.862862   0.000000
   18       29.695282   0.000000
   19       33.047597   0.000000
   20       34.789095   0.000000
   21       34.905704   0.000000
   22       35.414030   0.000000
   23       38.732246   0.000000
   24       39.092702   0.000000
   25       42.260109   0.000000
   26       43.353408   0.000000
   27       44.654814   0.000000
   28       46.776942   0.000000
   29       47.694087   0.000000
   30       50.593411   0.000000
   31       51.418061   0.000000
   32       52.167843   0.000000
   33       53.292360   0.000000
   34       55.079049   0.000000
   35       55.225665   0.000000
   36       57.113795   0.000000
   37       58.990523   0.000000
   38       60.418040   0.000000
   39       60.663175   0.000000
   40       63.828304   0.000000
 
  0.2727273E+00 -0.1266942E-16  0.9090909E-01  0.9015778E-02
    1        0.223475   1.000000
    2        2.543976   1.000000
    3        2.936972   1.000000
    4        3.960969   1.000000
    5        4.170827   1.000000
    6        4.966474   1.000000
    7        5.413020   1.000003
    8        5.580500   1.000406
    9        6.110648   0.560038
   10        6.232000   0.110970
   11        6.828608  -0.000004
   12       10.540154  -0.000000
   13       13.529773   0.000000
   14       20.103819   0.000000
   15       25.082888   0.000000
   16       26.496668   0.000000
   17       27.354244   0.000000
   18       29.485475   0.000000
   19       31.482277   0.000000
   20       33.238181   0.000000
   21       34.092360   0.000000
   22       35.747570   0.000000
   23       36.853111   0.000000
   24       39.452305   0.000000
   25       45.867656   0.000000
   26       45.987939   0.000000
   27       47.396936   0.000000
   28       47.941750   0.000000
   29       50.301316   0.000000
   30       51.435667   0.000000
   31       52.385261   0.000000
   32       53.488936   0.000000
   33       54.254362   0.000000
   34       55.835276   0.000000
   35       57.566720   0.000000
   36       58.655191   0.000000
   37       60.374125   0.000000
   38       60.928565   0.000000
   39       61.902009   0.000000
   40       63.839916   0.000000
 
  0.3636364E+00 -0.9442033E-17  0.9090909E-01  0.9015778E-02
    1        1.384939   1.000000
    2        2.291285   1.000000
    3        2.587011   1.000000
    4        3.863096   1.000000
    5        4.629634   1.000000
    6        4.826286   1.000000
    7        5.203676   1.000000
    8        6.659207  -0.000520
    9        6.755838  -0.000038
   10        6.827874  -0.000004
   11        6.931191  -0.000000
   12       11.832565   0.000000
   13       14.460206   0.000000
   14       17.029083   0.000000
   15       21.767987   0.000000
   16       24.402786   0.000000
   17       24.747785   0.000000
   18       29.339688   0.000000
   19       30.705161   0.000000
   20       32.772102   0.000000
   21       33.772361   0.000000
   22       35.691282   0.000000
   23       36.909986   0.000000
   24       39.343440   0.000000
   25       44.090068   0.000000
   26       48.365415   0.000000
   27       48.666773   0.000000
   28       51.184898   0.000000
   29       51.207500   0.000000
   30       53.484385   0.000000
   31       53.540007   0.000000
   32       55.540588   0.000000
   33       56.377831   0.000000
   34       57.727845   0.000000
   35       60.175339   0.000000
   36       60.378919   0.000000
   37       61.204231   0.000000
   38       62.164471   0.000000
   39       63.934039   0.000000
   40       64.976400   0.000000
 
  0.4545455E+00 -0.8106395E-18  0.9090909E-01  0.9015778E-02
    1        1.834237   1.000000
    2        2.029141   1.000000
    3        2.468083   1.000000
    4        3.922796   1.000000
    5        4.769988   1.000000
    6        5.083642   1.000000
    7        5.168545   1.000000
    8        6.772267  -0.000023
    9        7.265430  -0.000000
   10        7.339766  -0.000000
   11        8.212941  -0.000000
   12       11.321023  -0.000000
   13       15.259539   0.000000
   14       16.727139   0.000000
   15       19.555487   0.000000
   16       21.560636   0.000000
   17       23.779371   0.000000
   18       28.864419   0.000000
   19       30.463814   0.000000
   20       31.913051   0.000000
   21       35.229127   0.000000