unknown system                          
   1.00000000000000     
     3.694601    0.000000    0.000000
     0.000000    3.694601    0.000000
     0.000000    0.000000    3.694601
   Pd   Ir   Pt   Cu
     1     1     1     1
Direct
  0.000000  0.000000  0.000000
  0.500000  0.500000  0.000000
  0.500000  0.000000  0.500000
  0.000000  0.500000  0.500000
 
   32   32   32
  312.25      299.10      265.03      221.59      177.81      136.55      98.077      64.710      40.364      26.329    
  19.131      14.806      12.395      11.169      10.516      10.113      9.9569      10.113      10.516      11.169    
  12.395      14.806      19.131      26.329      40.364      64.710      98.077      136.55      177.81      221.59    
  265.03      299.10      299.25      286.72      254.20      212.62      170.55      130.85      93.962      62.166    
  39.123      25.889      19.003      14.833      12.509      11.324      10.693      10.303      10.153      10.303    
  10.693      11.324      12.509      14.833      19.003      25.889      39.123      62.166      93.962      130.85    
  170.55      212.62      254.20      286.72      265.07      254.13      225.58      188.75      151.14      115.61    
  82.992      55.440      35.883      24.748      18.676      14.946      12.872      11.816      11.254      10.910    
  10.778      10.910      11.254      11.816      12.872      14.946      18.676      24.748      35.883      55.440    
  82.992      115.61      151.14      188.75      225.58      254.13      220.36      211.37      187.77      156.92    
  125.10      95.214      68.476      46.710      31.788      23.321      18.312      15.245      13.571      12.741    
  12.318      12.067      11.971      12.067      12.318      12.741      13.571      15.245      18.312      23.321    
  31.788      46.710      68.476      95.214      125.10      156.92      187.77      211.37      174.31      167.22    
  148.45      123.64      97.951      74.244      53.925      38.260      27.987      21.986      18.154      15.918    
  14.789      14.316      14.140      14.056      14.023      14.056      14.140      14.316      14.789      15.918    
  18.154      21.986      27.987      38.260      53.925      74.244      97.951      123.64      148.45      167.22    
  131.19      125.83      111.58      92.657      73.201      55.794      41.701      31.537      25.107      21.021    
  18.490      17.224      16.808      16.870      17.100      17.292      17.360      17.292      17.100      16.870    
  16.808      17.224      18.490      21.021      25.107      31.537      41.701      55.794      73.201      92.657    
  111.58      125.83      92.598      88.876      78.975      65.886      52.670      41.327      32.724      26.906    
  23.142      20.729      19.585      19.429      19.923      20.790      21.738      22.461      22.729      22.461    
  21.738      20.790      19.923      19.429      19.585      20.729      23.142      26.906      32.724      41.327    
  52.670      65.886      78.975      88.876      60.746      58.517      52.615      44.916      37.362      31.197    
  26.812      23.894      22.038      21.312      21.611      22.781      24.677      27.004      29.291      30.980    
  31.603      30.980      29.291      27.004      24.677      22.781      21.611      21.312      22.038      23.894    
  26.812      31.197      37.362      44.916      52.615      58.517      38.203      37.139      34.350      30.792    
  27.432      24.823      23.004      21.978      21.915      22.833      24.795      27.824      31.740      36.106    
  40.207      43.171      44.257      43.171      40.207      36.106      31.740      27.824      24.795      22.833    
  21.915      21.978      23.004      24.823      27.432      30.792      34.350      37.139      25.145      24.778    
  23.822      22.622      21.496      20.698      20.516      21.168      22.746      25.441      29.434      34.660    
  40.818      47.322      53.249      57.471      59.009      57.471      53.249      47.322      40.818      34.660    
  29.434      25.441      22.746      21.168      20.516      20.698      21.496      22.622      23.822      24.778    
  18.170      18.078      17.849      17.617      17.600      18.056      19.239      21.321      24.538      29.235    
  35.406      42.756      50.831      58.991      66.272      71.422      73.296      71.422      66.272      58.991    
  50.831      42.756      35.406      29.235      24.538      21.321      19.239      18.056      17.600      17.617    
  17.849      18.078      13.850      13.899      14.070      14.456      15.227      16.622      18.890      22.261    
  27.260      34.077      42.335      51.411      60.754      69.858      77.911      83.640      85.737      83.640    
  77.911      69.858      60.754      51.411      42.335      34.077      27.260      22.261      18.890      16.622    
  15.227      14.456      14.070      13.899      11.356      11.484      11.886      12.643      13.929      16.006    
  19.144      23.833      30.719      39.665      49.810      60.189      70.290      79.942      88.596      94.901    
  97.246      94.901      88.596      79.942      70.290      60.189      49.810      39.665      30.719      23.833    
  19.144      16.006      13.929      12.643      11.886      11.484      10.023      10.187      10.704      11.669    
  13.286      15.863      19.747      25.768      34.530      45.509      57.342      68.807      79.592      89.974    
  99.633      106.93      109.70      106.93      99.633      89.974      79.592      68.807      57.342      45.509    
  34.530      25.768      19.747      15.863      13.286      11.669      10.704      10.187      9.2782      9.4604    
  10.038      11.126      12.967      15.912      20.445      27.669      38.094      50.836      64.125      76.608    
  88.263      99.809      111.02      119.76      123.13      119.76      111.02      99.809      88.263      76.608    
  64.125      50.836      38.094      27.669      20.445      15.912      12.967      11.126      10.038      9.4604    
  8.8189      9.0124      9.6285      10.797      12.787      15.980      20.985      29.071      40.668      54.647    
  68.982      82.287      94.797      107.54      120.28      130.40      134.33      130.40      120.28      107.54    
  94.797      82.287      68.982      54.647      40.668      29.071      20.985      15.980      12.787      10.797    
  9.6285      9.0124      8.6454      8.8437      9.4753      10.675      12.721      16.004      21.186      29.588    
  41.611      56.040      70.764      84.394      97.270      110.53      123.92      134.61      138.77      134.61    
  123.92      110.53      97.270      84.394      70.764      56.040      41.611      29.588      21.186      16.004    
  12.721      10.675      9.4753      8.8437      8.8189      9.0124      9.6285      10.797      12.787      15.980    
  20.985      29.071      40.668      54.647      68.982      82.287      94.797      107.54      120.28      130.40    
  134.33      130.40      120.28      107.54      94.797      82.287      68.982      54.647      40.668      29.071    
  20.985      15.980      12.787      10.797      9.6285      9.0124      9.2782      9.4604      10.038      11.126    
  12.967      15.912      20.445      27.669      38.094      50.836      64.125      76.608      88.263      99.809    
  111.02      119.76      123.13      119.76      111.02      99.809      88.263      76.608      64.125      50.836    
  38.094      27.669      20.445      15.912      12.967      11.126      10.038      9.4604      10.023      10.187    
  10.704      11.669      13.286      15.863      19.747      25.768      34.530      45.509      57.342      68.807    
  79.592      89.974      99.633      106.93      109.70      106.93      99.633      89.974      79.592      68.807    
  57.342      45.509      34.530      25.768      19.747      15.863      13.286      11.669      10.704      10.187    
  11.356      11.484      11.886      12.643      13.929      16.006      19.144      23.833      30.719      39.665    
  49.810      60.189      70.290      79.942      88.596      94.901      97.246      94.901      88.596      79.942    
  70.290      60.189      49.810      39.665      30.719      23.833      19.144      16.006      13.929      12.643    
  11.886      11.484      13.850      13.899      14.070      14.456      15.227      16.622      18.890      22.261    
  27.260      34.077      42.335      51.411      60.754      69.858      77.911      83.640      85.737      83.640    
  77.911      69.858      60.754      51.411      42.335      34.077      27.260      22.261      18.890      16.622    
  15.227      14.456      14.070      13.899      18.170      18.078      17.849      17.617      17.600      18.056    
  19.239      21.321      24.538      29.235      35.406      42.756      50.831      58.991      66.272      71.422    
  73.296      71.422      66.272      58.991      50.831      42.756      35.406      29.235      24.538      21.321    
  19.239      18.056      17.600      17.617      17.849      18.078      25.145      24.778      23.822      22.622    
  21.496      20.698      20.516      21.168      22.746      25.441      29.434      34.660      40.818      47.322    
  53.249      57.471      59.009      57.471      53.249      47.322      40.818      34.660      29.434      25.441    
  22.746      21.168      20.516      20.698      21.496      22.622      23.822      24.778      38.203      37.139    
  34.350      30.792      27.432      24.823      23.004      21.978      21.915      22.833      24.795      27.824    
  31.740      36.106      40.207      43.171      44.257      43.171      40.207      36.106      31.740      27.824    
  24.795      22.833      21.915      21.978      23.004      24.823      27.432      30.792      34.350      37.139    
  60.746      58.517      52.615      44.916      37.362      31.197      26.812      23.894      22.038      21.312    
  21.611      22.781      24.677      27.004      29.291      30.980      31.603      30.980      29.291      27.004    
  24.677      22.781      21.611      21.312      22.038      23.894      26.812      31.197      37.362      44.916    
  52.615      58.517      92.598      88.876      78.975      65.886      52.670      41.327      32.724      26.906    
  23.142      20.729      19.585      19.429      19.923      20.790      21.738      22.461      22.729      22.461    
  21.738      20.790      19.923      19.429      19.585      20.729      23.142      26.906      32.724      41.327    
  52.670      65.886      78.975      88.876      131.19      125.83      111.58      92.657      73.201      55.794    
  41.701      31.537      25.107      21.021      18.490      17.224      16.808      16.870      17.100      17.292    
  17.360      17.292      17.100      16.870      16.808      17.224      18.490      21.021      25.107      31.537    
  41.701      55.794      73.201      92.657      111.58      125.83      174.31      167.22      148.45      123.64    
  97.951      74.244      53.925      38.260      27.987      21.986      18.154      15.918      14.789      14.316    
  14.140      14.056      14.023      14.056      14.140      14.316      14.789      15.918      18.154      21.986    
  27.987      38.260      53.925      74.244      97.951      123.64      148.45      167.22      220.36      211.37    
  187.77      156.92      125.10      95.214      68.476      46.710      31.788      23.321      18.312      15.245    
  13.571      12.741      12.318      12.067      11.971      12.067      12.318      12.741      13.571      15.245    
  18.312      23.321      31.788      46.710      68.476      95.214      125.10      156.92      187.77      211.37    
  265.07      254.13      225.58      188.75      151.14      115.61      82.992      55.440      35.883      24.748    
  18.676      14.946      12.872      11.816      11.254      10.910      10.778      10.910      11.254      11.816    
  12.872      14.946      18.676      24.748      35.883      55.440      82.992      115.61      151.14      188.75    
  225.58      254.13      299.25      286.72      254.20      212.62      170.55      130.85      93.962      62.166    
  39.123      25.889      19.003      14.833      12.509      11.324      10.693      10.303      10.153      10.303    
  10.693      11.324      12.509      14.833      19.003      25.889      39.123      62.166      93.962      130.85    
  170.55      212.62      254.20      286.72      299.39      286.89      254.43      212.88      170.81      131.05    
  94.072      62.205      39.123      25.878      18.996      14.832      12.514      11.334      10.706      10.319    
  10.169      10.319      10.706      11.334      12.514      14.832      18.996      25.878      39.123      62.205    
  94.072      131.05      170.81      212.88      254.43      286.89      287.35      275.41      244.36      204.49    
  163.98      125.67      90.186      59.807      37.957      25.463      18.872      14.859      12.624      11.486    
  10.879      10.504      10.360      10.504      10.879      11.486      12.624      14.859      18.872      25.463    
  37.957      59.807      90.186      125.67      163.98      204.49      244.36      275.41      255.53      245.03    
  217.59      182.06      145.65      111.25      79.810      53.463      34.912      24.383      18.554      14.967    
  12.977      11.964      11.425      11.096      10.969      11.096      11.425      11.964      12.977      14.967    
  18.554      24.383      34.912      53.463      79.810      111.25      145.65      182.06      217.59      245.03    
  213.47      204.77      181.89      151.91      120.93      91.870      66.049      45.218      31.056      23.021    
  18.199      15.256      13.655      12.862      12.459      12.220      12.129      12.220      12.459      12.862    
  13.655      15.256      18.199      23.021      31.056      45.218      66.049      91.870      120.93      151.91    
  181.89      204.77      169.50      162.59      144.27      120.03      94.926      71.843      52.212      37.221    
  27.464      21.725      18.044      15.905      14.833      14.388      14.227      14.152      14.122      14.152    
  14.227      14.388      14.833      15.905      18.044      21.725      27.464      37.221      52.212      71.843    
  94.926      120.03      144.27      162.59      127.72      122.48      108.55      90.053      71.059      54.143    
  40.555      30.841      24.714      20.783      18.363      17.166      16.786      16.863      17.098      17.292    
  17.361      17.292      17.098      16.863      16.786      17.166      18.363      20.783      24.714      30.841    
  40.555      54.143      71.059      90.053      108.55      122.48      90.061      86.434      76.786      64.043    
  51.206      40.240      31.979      26.421      22.801      20.491      19.417      19.297      19.799      20.650    
  21.572      22.272      22.532      22.272      21.572      20.650      19.799      19.297      19.417      20.491    
  22.801      26.421      31.979      40.240      51.206      64.043      76.786      86.434      59.034      56.876    
  51.165      43.725      36.442      30.520      26.317      23.502      21.722      21.051      21.376      22.531    
  24.373      26.620      28.824      30.448      31.048      30.448      28.824      26.620      24.373      22.531    
  21.376      21.051      21.722      23.502      26.317      30.520      36.442      43.725      51.165      56.876    
  37.240      36.219      33.542      30.129      26.906      24.396      22.627      21.642      21.605      22.527    
  24.447      27.389      31.177      35.390      39.338      42.187      43.230      42.187      39.338      35.390    
  31.177      27.389      24.447      22.527      21.605      21.642      22.627      24.396      26.906      30.129    
  33.542      36.219      24.710      24.357      23.439      22.278      21.175      20.393      20.220      20.867    
  22.421      25.052      28.938      34.016      39.986      46.270      51.979      56.036      57.511      56.036    
  51.979      46.270      39.986      34.016      28.938      25.052      22.421      20.867      20.220      20.393    
  21.175      22.278      23.439      24.357      17.969      17.878      17.651      17.422      17.401      17.844    
  18.999      21.035      24.170      28.746      34.768      41.940      49.798      57.697      64.707      69.642    
  71.434      69.642      64.707      57.697      49.798      41.940      34.768      28.746      24.170      21.035    
  18.999      17.844      17.401      17.422      17.651      17.878      13.789      13.835      14.000      14.372    
  15.118      16.473      18.683      21.968      26.833      33.494      41.596      50.505      59.635      68.451    
  76.174      81.626      83.615      81.626      76.174      68.451      59.635      50.505      41.596      33.494    
  26.833      21.968      18.683      16.473      15.118      14.372      14.000      13.835      11.391      11.514    
  11.901      12.633      13.879      15.897      18.955      23.514      30.230      39.011      49.022      59.271    
  69.173      78.493      86.718      92.644      94.837      92.644      86.718      78.493      69.173      59.271    
  49.022      39.011      30.230      23.514      18.955      15.897      13.879      12.633      11.901      11.514    
  10.117      10.275      10.773      11.705      13.272      15.777      19.560      25.416      33.985      44.805    
  56.541      67.916      78.492      88.449      97.517      104.28      106.83      104.28      97.517      88.449    
  78.492      67.916      56.541      44.805      33.985      25.416      19.560      15.777      13.272      11.705    
  10.773      10.275      9.4124      9.5873      10.143      11.193      12.976      15.843      20.253      27.286    
  37.504      50.099      63.324      75.738      87.142      98.127      108.54      116.56      119.64      116.56    
  108.54      98.127      87.142      75.738      63.324      50.099      37.504      27.286      20.253      15.843    
  12.976      11.193      10.143      9.5873      8.9802      9.1657      9.7573      10.885      12.812      15.921    
  20.788      28.665      40.047      53.888      68.180      81.419      93.626      105.68      117.45      126.69    
  130.26      126.69      117.45      105.68      93.626      81.419      68.180      53.888      40.047      28.665    
  20.788      15.921      12.812      10.885      9.7573      9.1657      8.8172      9.0071      9.6134      10.771    
  12.752      15.949      20.987      29.174      40.980      55.274      69.960      83.524      96.073      108.60    
  120.94      130.69      134.47      130.69      120.94      108.60      96.073      83.524      69.960      55.274    
  40.980      29.174      20.987      15.949      12.752      10.771      9.6134      9.0071      8.9802      9.1657    
  9.7573      10.885      12.812      15.921      20.788      28.665      40.047      53.888      68.180      81.419    
  93.626      105.68      117.45      126.69      130.26      126.69      117.45      105.68      93.626      81.419    
  68.180      53.888      40.047      28.665      20.788      15.921      12.812      10.885      9.7573      9.1657    
  9.4124      9.5873      10.143      11.193      12.976      15.843      20.253      27.286      37.504      50.099    
  63.324      75.738      87.142      98.127      108.54      116.56      119.64      116.56      108.54      98.127    
  87.142      75.738      63.324      50.099      37.504      27.286      20.253      15.843      12.976      11.193    
  10.143      9.5873      10.117      10.275      10.773      11.705      13.272      15.777      19.560      25.416    
  33.985      44.805      56.541      67.916      78.492      88.449      97.517      104.28      106.83      104.28    
  97.517      88.449      78.492      67.916      56.541      44.805      33.985      25.416      19.560      15.777    
  13.272      11.705      10.773      10.275      11.391      11.514      11.901      12.633      13.879      15.897    
  18.955      23.514      30.230      39.011      49.022      59.271      69.173      78.493      86.718      92.644    
  94.837      92.644      86.718      78.493      69.173      59.271      49.022      39.011      30.230      23.514    
  18.955      15.897      13.879      12.633      11.901      11.514      13.789      13.835      14.000      14.372    
  15.118      16.473      18.683      21.968      26.833      33.494      41.596      50.505      59.635      68.451    
  76.174      81.626      83.615      81.626      76.174      68.451      59.635      50.505      41.596      33.494    
  26.833      21.968      18.683      16.473      15.118      14.372      14.000      13.835      17.969      17.878    
  17.651      17.422      17.401      17.844      18.999      21.035      24.170      28.746      34.768      41.940    
  49.798      57.697      64.707      69.642      71.434      69.642      64.707      57.697      49.798      41.940    
  34.768      28.746      24.170      21.035      18.999      17.844      17.401      17.422      17.651      17.878    
  24.710      24.357      23.439      22.278      21.175      20.393      20.220      20.867      22.421      25.052    
  28.938      34.016      39.986      46.270      51.979      56.036      57.511      56.036      51.979      46.270    
  39.986      34.016      28.938      25.052      22.421      20.867      20.220      20.393      21.175      22.278    
  23.439      24.357      37.240      36.219      33.542      30.129      26.906      24.396      22.627      21.642    
  21.605      22.527      24.447      27.389      31.177      35.390      39.338      42.187      43.230      42.187    
  39.338      35.390      31.177      27.389      24.447      22.527      21.605      21.642      22.627      24.396    
  26.906      30.129      33.542      36.219      59.034      56.876      51.165      43.725      36.442      30.520    
  26.317      23.502      21.722      21.051      21.376      22.531      24.373      26.620      28.824      30.448    
  31.048      30.448      28.824      26.620      24.373      22.531      21.376      21.051      21.722      23.502    
  26.317      30.520      36.442      43.725      51.165      56.876      90.061      86.434      76.786      64.043    
  51.206      40.240      31.979      26.421      22.801      20.491      19.417      19.297      19.799      20.650    
  21.572      22.272      22.532      22.272      21.572      20.650      19.799      19.297      19.417      20.491    
  22.801      26.421      31.979      40.240      51.206      64.043      76.786      86.434      127.72      122.48    
  108.55      90.053      71.059      54.143      40.555      30.841      24.714      20.783      18.363      17.166    
  16.786      16.863      17.098      17.292      17.361      17.292      17.098      16.863      16.786      17.166    
  18.363      20.783      24.714      30.841      40.555      54.143      71.059      90.053      108.55      122.48    
  169.50      162.59      144.27      120.03      94.926      71.843      52.212      37.221      27.464      21.725    
  18.044      15.905      14.833      14.388      14.227      14.152      14.122      14.152      14.227      14.388    
  14.833      15.905      18.044      21.725      27.464      37.221      52.212      71.843      94.926      120.03    
  144.27      162.59      213.47      204.77      181.89      151.91      120.93      91.870      66.049      45.218    
  31.056      23.021      18.199      15.256      13.655      12.862      12.459      12.220      12.129      12.220    
  12.459      12.862      13.655      15.256      18.199      23.021      31.056      45.218      66.049      91.870    
  120.93      151.91      181.89      204.77      255.53      245.03      217.59      182.06      145.65      111.25    
  79.810      53.463      34.912      24.383      18.554      14.967      12.977      11.964      11.425      11.096    
  10.969      11.096      11.425      11.964      12.977      14.967      18.554      24.383      34.912      53.463    
  79.810      111.25      145.65      182.06      217.59      245.03      287.35      275.41      244.36      204.49    
  163.98      125.67      90.186      59.807      37.957      25.463      18.872      14.859      12.624      11.486    
  10.879      10.504      10.360      10.504      10.879      11.486      12.624      14.859      18.872      25.463    
  37.957      59.807      90.186      125.67      163.98      204.49      244.36      275.41      265.50      254.64    
  226.30      189.60      151.96      116.22      83.321      55.541      35.867      24.704      18.643      14.931    
  12.874      11.829      11.275      10.935      10.804      10.935      11.275      11.829      12.874      14.931    
  18.643      24.704      35.867      55.541      83.321      116.22      151.96      189.60      226.30      254.64    
  255.82      245.38      218.09      182.65      146.22      111.67      80.033      53.528      34.897      24.351    
  18.529      14.955      12.975      11.968      11.434      11.106      10.981      11.106      11.434      11.968    
  12.975      14.955      18.529      24.351      34.897      53.528      80.033      111.67      146.22      182.65    
  218.09      245.38      229.83      220.49      195.96      163.86      130.69      99.381      71.225      48.190    
  32.355      23.421      18.236      15.052      13.297      12.407      11.936      11.651      11.542      11.651    
  11.936      12.407      13.297      15.052      18.236      23.421      32.355      48.190      71.225      99.381    
  130.69      163.86      195.96      220.49      194.40      186.49      165.58      137.98      109.35      82.685    
  59.462      41.225      29.119      22.212      17.906      15.310      13.911      13.226      12.883      12.682    
  12.606      12.682      12.883      13.226      13.911      15.310      17.906      22.212      29.119      41.225    
  59.462      82.685      109.35      137.98      165.58      186.49      155.74      149.34      132.34      109.76    
  86.413      65.185      47.537      34.429      26.060      21.013      17.751      15.889      14.975      14.613    
  14.496      14.447      14.428      14.447      14.496      14.613      14.975      15.889      17.751      21.013    
  26.060      34.429      47.537      65.185      86.413      109.76      132.34      149.34      117.59      112.72    
  99.762      82.560      64.986      49.545      37.418      28.957      23.636      20.130      18.022      17.018    
  16.740      16.860      17.112      17.315      17.387      17.315      17.112      16.860      16.740      17.018    
  18.022      20.130      23.636      28.957      37.418      49.545      64.986      82.560      99.762      112.72    
  82.663      79.325      70.454      58.768      47.077      37.225      29.941      25.090      21.856      19.839    
  18.959      18.940      19.470      20.284      21.139      21.782      22.020      21.782      21.139      20.284    
  19.470      18.940      18.959      19.839      21.856      25.090      29.941      37.225      47.077      58.768    
  70.454      79.325      54.143      52.196      47.052      40.375      33.884      28.653      24.952      22.413    
  20.852      20.333      20.729      21.847      23.548      25.586      27.567      29.021      29.556      29.021    
  27.567      25.586      23.548      21.847      20.729      20.333      20.852      22.413      24.952      28.653    
  33.884      40.375      47.052      52.196      34.563      33.663      31.305      28.301      25.460      23.210    
  21.579      20.712      20.748      21.678      23.486      26.191      29.633      33.430      36.966      39.507    
  40.435      39.507      36.966      33.430      29.633      26.191      23.486      21.678      20.748      20.712    
  21.579      23.210      25.460      28.301      31.305      33.663      23.515      23.203      22.382      21.320    
  20.279      19.550      19.403      20.034      21.521      23.971      27.555      32.220      37.670      43.358    
  48.483      52.098      53.408      52.098      48.483      43.358      37.670      32.220      27.555      23.971    
  21.521      20.034      19.403      19.550      20.279      21.320      22.382      23.203      17.400      17.314    
  17.099      16.881      16.857      17.264      18.338      20.246      23.145      27.371      32.960      39.626    
  46.882      54.082      60.374      64.750      66.327      64.750      60.374      54.082      46.882      39.626    
  32.960      27.371      23.145      20.246      18.338      17.264      16.857      16.881      17.099      17.314    
  13.601      13.643      13.795      14.136      14.821      16.067      18.114      21.153      25.631      31.830    
  39.458      47.879      56.425      64.492      71.370      76.119      77.832      76.119      71.370      64.492    
  56.425      47.879      39.458      31.830      25.631      21.153      18.114      16.067      14.821      14.136    
  13.795      13.643      11.442      11.555      11.914      12.588      13.734      15.594      18.431      22.621    