unknown system                          
   1.00000000000000     
     3.694601    0.000000    0.000000
     0.000000    3.694601    0.000000
     0.000000    0.000000    3.694601
   Pd   Ir   Pt   Cu
     1     1     1     1
Direct
  0.000000  0.000000  0.000000
  0.500000  0.500000  0.000000
  0.500000  0.000000  0.500000
  0.000000  0.500000  0.500000
 
   32   32   32
 0.31225236678E+03 0.29909882528E+03 0.26502702545E+03 0.22158922333E+03 0.17781406551E+03
 0.13655092109E+03 0.98077271449E+02 0.64710363097E+02 0.40363537217E+02 0.26329196772E+02
 0.19131120712E+02 0.14806055940E+02 0.12394963588E+02 0.11168764403E+02 0.10516450079E+02
 0.10112830658E+02 0.99569029965E+01 0.10112830658E+02 0.10516450079E+02 0.11168764403E+02
 0.12394963588E+02 0.14806055940E+02 0.19131120712E+02 0.26329196772E+02 0.40363537217E+02
 0.64710363097E+02 0.98077271449E+02 0.13655092109E+03 0.17781406551E+03 0.22158922333E+03
 0.26502702545E+03 0.29909882528E+03 0.29925382114E+03 0.28672122983E+03 0.25420395164E+03
 0.21261502684E+03 0.17055089129E+03 0.13085409450E+03 0.93962482957E+02 0.62166466803E+02
 0.39122900374E+02 0.25888772501E+02 0.19003358338E+02 0.14833317501E+02 0.12508820686E+02
 0.11324377035E+02 0.10693143893E+02 0.10303251608E+02 0.10152974380E+02 0.10303251608E+02
 0.10693143893E+02 0.11324377035E+02 0.12508820686E+02 0.14833317501E+02 0.19003358338E+02
 0.25888772501E+02 0.39122900374E+02 0.62166466803E+02 0.93962482957E+02 0.13085409450E+03
 0.17055089129E+03 0.21261502684E+03 0.25420395164E+03 0.28672122983E+03 0.26507406011E+03
 0.25412727237E+03 0.22558445903E+03 0.18874526122E+03 0.15113671936E+03 0.11560917157E+03
 0.82991525949E+02 0.55439687342E+02 0.35882894397E+02 0.24747842402E+02 0.18676172300E+02
 0.14945653669E+02 0.12872386268E+02 0.11815890037E+02 0.11254143174E+02 0.10909959855E+02
 0.10778074391E+02 0.10909959855E+02 0.11254143174E+02 0.11815890037E+02 0.12872386268E+02
 0.14945653669E+02 0.18676172300E+02 0.24747842402E+02 0.35882894397E+02 0.55439687342E+02
 0.82991525949E+02 0.11560917157E+03 0.15113671936E+03 0.18874526122E+03 0.22558445903E+03
 0.25412727237E+03 0.22035984337E+03 0.21137450778E+03 0.18777100838E+03 0.15691965555E+03
 0.12510480918E+03 0.95213761357E+02 0.68476055106E+02 0.46709570340E+02 0.31788012922E+02
 0.23320778672E+02 0.18311569755E+02 0.15244796376E+02 0.13571190410E+02 0.12741289287E+02
 0.12318293151E+02 0.12066750001E+02 0.11970880300E+02 0.12066750001E+02 0.12318293151E+02
 0.12741289287E+02 0.13571190410E+02 0.15244796376E+02 0.18311569755E+02 0.23320778672E+02
 0.31788012922E+02 0.46709570340E+02 0.68476055106E+02 0.95213761357E+02 0.12510480918E+03
 0.15691965555E+03 0.18777100838E+03 0.21137450778E+03 0.17430608715E+03 0.16721550239E+03
 0.14844594767E+03 0.12363666227E+03 0.97951125143E+02 0.74243704596E+02 0.53925424112E+02
 0.38260115920E+02 0.27987291433E+02 0.21985565779E+02 0.18154275650E+02 0.15917578348E+02
 0.14789243073E+02 0.14315938459E+02 0.14140164941E+02 0.14055775479E+02 0.14022811192E+02
 0.14055775479E+02 0.14140164941E+02 0.14315938459E+02 0.14789243073E+02 0.15917578348E+02
 0.18154275650E+02 0.21985565779E+02 0.27987291433E+02 0.38260115920E+02 0.53925424112E+02
 0.74243704596E+02 0.97951125143E+02 0.12363666227E+03 0.14844594767E+03 0.16721550239E+03
 0.13118554781E+03 0.12582793201E+03 0.11157766906E+03 0.92656661971E+02 0.73201295742E+02
 0.55793904275E+02 0.41701396312E+02 0.31537464655E+02 0.25107221622E+02 0.21021294417E+02
 0.18489506954E+02 0.17223554408E+02 0.16808378966E+02 0.16870099573E+02 0.17100305733E+02
 0.17291737142E+02 0.17360221864E+02 0.17291737142E+02 0.17100305733E+02 0.16870099573E+02
 0.16808378966E+02 0.17223554408E+02 0.18489506954E+02 0.21021294417E+02 0.25107221622E+02
 0.31537464655E+02 0.41701396312E+02 0.55793904275E+02 0.73201295742E+02 0.92656661971E+02
 0.11157766906E+03 0.12582793201E+03 0.92598460435E+02 0.88876178017E+02 0.78974767818E+02
 0.65886121578E+02 0.52669527564E+02 0.41326741216E+02 0.32723568142E+02 0.26905763428E+02
 0.23142178658E+02 0.20728754375E+02 0.19584984637E+02 0.19429171948E+02 0.19922602557E+02
 0.20789789420E+02 0.21738187950E+02 0.22460947340E+02 0.22729463948E+02 0.22460947340E+02
 0.21738187950E+02 0.20789789420E+02 0.19922602557E+02 0.19429171948E+02 0.19584984637E+02
 0.20728754375E+02 0.23142178658E+02 0.26905763428E+02 0.32723568142E+02 0.41326741216E+02
 0.52669527564E+02 0.65886121578E+02 0.78974767818E+02 0.88876178017E+02 0.60746284072E+02
 0.58516646664E+02 0.52614582986E+02 0.44916266214E+02 0.37362444900E+02 0.31197401230E+02
 0.26811890328E+02 0.23893557014E+02 0.22037673934E+02 0.21311817119E+02 0.21610638262E+02
 0.22781368274E+02 0.24677225490E+02 0.27003547358E+02 0.29291356757E+02 0.30979915153E+02
 0.31603289849E+02 0.30979915153E+02 0.29291356757E+02 0.27003547358E+02 0.24677225490E+02
 0.22781368274E+02 0.21610638262E+02 0.21311817119E+02 0.22037673934E+02 0.23893557014E+02
 0.26811890328E+02 0.31197401230E+02 0.37362444900E+02 0.44916266214E+02 0.52614582986E+02
 0.58516646664E+02 0.38203162537E+02 0.37139292045E+02 0.34350334207E+02 0.30792028034E+02
 0.27431530698E+02 0.24822998814E+02 0.23003666836E+02 0.21978496484E+02 0.21915360378E+02
 0.22833491150E+02 0.24795257177E+02 0.27823722904E+02 0.31739553805E+02 0.36106124921E+02
 0.40207455249E+02 0.43171083511E+02 0.44256541748E+02 0.43171083511E+02 0.40207455249E+02
 0.36106124921E+02 0.31739553805E+02 0.27823722904E+02 0.24795257177E+02 0.22833491150E+02
 0.21915360378E+02 0.21978496484E+02 0.23003666836E+02 0.24822998814E+02 0.27431530698E+02
 0.30792028034E+02 0.34350334207E+02 0.37139292045E+02 0.25145327526E+02 0.24777704518E+02
 0.23822480695E+02 0.22621957453E+02 0.21496248743E+02 0.20697688055E+02 0.20516379308E+02
 0.21168089234E+02 0.22745588954E+02 0.25440955952E+02 0.29433562730E+02 0.34659875465E+02
 0.40818473567E+02 0.47321633605E+02 0.53249361310E+02 0.57471106040E+02 0.59008851125E+02
 0.57471106040E+02 0.53249361310E+02 0.47321633605E+02 0.40818473567E+02 0.34659875465E+02
 0.29433562730E+02 0.25440955952E+02 0.22745588954E+02 0.21168089234E+02 0.20516379308E+02
 0.20697688055E+02 0.21496248743E+02 0.22621957453E+02 0.23822480695E+02 0.24777704518E+02
 0.18170417448E+02 0.18078420390E+02 0.17848513474E+02 0.17617354566E+02 0.17599652591E+02
 0.18055748501E+02 0.19239260608E+02 0.21320684386E+02 0.24537743598E+02 0.29234795031E+02
 0.35405547449E+02 0.42755623027E+02 0.50830853938E+02 0.58990945364E+02 0.66272396961E+02
 0.71422029474E+02 0.73295607600E+02 0.71422029474E+02 0.66272396961E+02 0.58990945364E+02
 0.50830853938E+02 0.42755623027E+02 0.35405547449E+02 0.29234795031E+02 0.24537743598E+02
 0.21320684386E+02 0.19239260608E+02 0.18055748501E+02 0.17599652591E+02 0.17617354566E+02
 0.17848513474E+02 0.18078420390E+02 0.13850326564E+02 0.13898680164E+02 0.14070384745E+02
 0.14456186891E+02 0.15226567501E+02 0.16621594812E+02 0.18889595884E+02 0.22261223813E+02
 0.27260433371E+02 0.34076581785E+02 0.42335339400E+02 0.51411148231E+02 0.60753938318E+02
 0.69857522191E+02 0.77911095816E+02 0.83639542245E+02 0.85737178762E+02 0.83639542245E+02
 0.77911095816E+02 0.69857522191E+02 0.60753938318E+02 0.51411148231E+02 0.42335339400E+02
 0.34076581785E+02 0.27260433371E+02 0.22261223813E+02 0.18889595884E+02 0.16621594812E+02
 0.15226567501E+02 0.14456186891E+02 0.14070384745E+02 0.13898680164E+02 0.11356486845E+02
 0.11483550142E+02 0.11885545249E+02 0.12643216986E+02 0.13929300942E+02 0.16006070955E+02
 0.19143568760E+02 0.23832964379E+02 0.30718742644E+02 0.39665024773E+02 0.49810286730E+02
 0.60188544812E+02 0.70290375989E+02 0.79941845860E+02 0.88595642285E+02 0.94900680311E+02
 0.97246494063E+02 0.94900680311E+02 0.88595642285E+02 0.79941845860E+02 0.70290375989E+02
 0.60188544812E+02 0.49810286730E+02 0.39665024773E+02 0.30718742644E+02 0.23832964379E+02
 0.19143568760E+02 0.16006070955E+02 0.13929300942E+02 0.12643216986E+02 0.11885545249E+02
 0.11483550142E+02 0.10022530012E+02 0.10186834629E+02 0.10704094537E+02 0.11669159532E+02
 0.13286216835E+02 0.15862512187E+02 0.19746988272E+02 0.25768181993E+02 0.34530455433E+02
 0.45509076231E+02 0.57341869334E+02 0.68806726403E+02 0.79591723827E+02 0.89974260908E+02
 0.99632814582E+02 0.10693096916E+03 0.10970130341E+03 0.10693096916E+03 0.99632814582E+02
 0.89974260908E+02 0.79591723827E+02 0.68806726403E+02 0.57341869334E+02 0.45509076231E+02
 0.34530455433E+02 0.25768181993E+02 0.19746988272E+02 0.15862512187E+02 0.13286216835E+02
 0.11669159532E+02 0.10704094537E+02 0.10186834629E+02 0.92781723987E+01 0.94603668428E+01
 0.10037734735E+02 0.11125943409E+02 0.12966560546E+02 0.15912491863E+02 0.20445301034E+02
 0.27669342417E+02 0.38093964565E+02 0.50836313106E+02 0.64125266357E+02 0.76608308020E+02
 0.88263449361E+02 0.99809467738E+02 0.11101786237E+03 0.11976104093E+03 0.12313088742E+03
 0.11976104093E+03 0.11101786237E+03 0.99809467738E+02 0.88263449361E+02 0.76608308020E+02
 0.64125266357E+02 0.50836313106E+02 0.38093964565E+02 0.27669342417E+02 0.20445301034E+02
 0.15912491863E+02 0.12966560546E+02 0.11125943409E+02 0.10037734735E+02 0.94603668428E+01
 0.88189122449E+01 0.90124444294E+01 0.96284604404E+01 0.10797384610E+02 0.12786708946E+02
 0.15979823625E+02 0.20985297949E+02 0.29071072154E+02 0.40667833334E+02 0.54646993719E+02
 0.68982391748E+02 0.82287220741E+02 0.94796505422E+02 0.10754172367E+03 0.12028086382E+03
 0.13039891256E+03 0.13432897017E+03 0.13039891256E+03 0.12028086382E+03 0.10754172367E+03
 0.94796505422E+02 0.82287220741E+02 0.68982391748E+02 0.54646993719E+02 0.40667833334E+02
 0.29071072154E+02 0.20985297949E+02 0.15979823625E+02 0.12786708946E+02 0.10797384610E+02
 0.96284604404E+01 0.90124444294E+01 0.86454427669E+01 0.88436671904E+01 0.94752607626E+01
 0.10675494684E+02 0.12720523185E+02 0.16004013529E+02 0.21186469290E+02 0.29588323847E+02
 0.41611177067E+02 0.56039937397E+02 0.70763624725E+02 0.84394488353E+02 0.97269944032E+02
 0.11053322620E+03 0.12392020964E+03 0.13461070426E+03 0.13877218214E+03 0.13461070426E+03
 0.12392020964E+03 0.11053322620E+03 0.97269944032E+02 0.84394488353E+02 0.70763624725E+02
 0.56039937397E+02 0.41611177067E+02 0.29588323847E+02 0.21186469290E+02 0.16004013529E+02
 0.12720523185E+02 0.10675494684E+02 0.94752607626E+01 0.88436671904E+01 0.88189122449E+01
 0.90124444294E+01 0.96284604404E+01 0.10797384610E+02 0.12786708946E+02 0.15979823625E+02
 0.20985297949E+02 0.29071072154E+02 0.40667833334E+02 0.54646993719E+02 0.68982391748E+02
 0.82287220741E+02 0.94796505422E+02 0.10754172367E+03 0.12028086382E+03 0.13039891256E+03
 0.13432897017E+03 0.13039891256E+03 0.12028086382E+03 0.10754172367E+03 0.94796505422E+02
 0.82287220741E+02 0.68982391748E+02 0.54646993719E+02 0.40667833334E+02 0.29071072154E+02
 0.20985297949E+02 0.15979823625E+02 0.12786708946E+02 0.10797384610E+02 0.96284604404E+01
 0.90124444294E+01 0.92781723987E+01 0.94603668428E+01 0.10037734735E+02 0.11125943409E+02
 0.12966560546E+02 0.15912491863E+02 0.20445301034E+02 0.27669342417E+02 0.38093964565E+02
 0.50836313106E+02 0.64125266357E+02 0.76608308020E+02 0.88263449361E+02 0.99809467738E+02
 0.11101786237E+03 0.11976104093E+03 0.12313088742E+03 0.11976104093E+03 0.11101786237E+03
 0.99809467738E+02 0.88263449361E+02 0.76608308020E+02 0.64125266357E+02 0.50836313106E+02
 0.38093964565E+02 0.27669342417E+02 0.20445301034E+02 0.15912491863E+02 0.12966560546E+02
 0.11125943409E+02 0.10037734735E+02 0.94603668428E+01 0.10022530012E+02 0.10186834629E+02
 0.10704094537E+02 0.11669159532E+02 0.13286216835E+02 0.15862512187E+02 0.19746988272E+02
 0.25768181993E+02 0.34530455433E+02 0.45509076231E+02 0.57341869334E+02 0.68806726403E+02
 0.79591723827E+02 0.89974260908E+02 0.99632814582E+02 0.10693096916E+03 0.10970130341E+03
 0.10693096916E+03 0.99632814582E+02 0.89974260908E+02 0.79591723827E+02 0.68806726403E+02
 0.57341869334E+02 0.45509076231E+02 0.34530455433E+02 0.25768181993E+02 0.19746988272E+02
 0.15862512187E+02 0.13286216835E+02 0.11669159532E+02 0.10704094537E+02 0.10186834629E+02
 0.11356486845E+02 0.11483550142E+02 0.11885545249E+02 0.12643216986E+02 0.13929300942E+02
 0.16006070955E+02 0.19143568760E+02 0.23832964379E+02 0.30718742644E+02 0.39665024773E+02
 0.49810286730E+02 0.60188544812E+02 0.70290375989E+02 0.79941845860E+02 0.88595642285E+02
 0.94900680311E+02 0.97246494063E+02 0.94900680311E+02 0.88595642285E+02 0.79941845860E+02
 0.70290375989E+02 0.60188544812E+02 0.49810286730E+02 0.39665024773E+02 0.30718742644E+02
 0.23832964379E+02 0.19143568760E+02 0.16006070955E+02 0.13929300942E+02 0.12643216986E+02
 0.11885545249E+02 0.11483550142E+02 0.13850326564E+02 0.13898680164E+02 0.14070384745E+02
 0.14456186891E+02 0.15226567501E+02 0.16621594812E+02 0.18889595884E+02 0.22261223813E+02
 0.27260433371E+02 0.34076581785E+02 0.42335339400E+02 0.51411148231E+02 0.60753938318E+02
 0.69857522191E+02 0.77911095816E+02 0.83639542245E+02 0.85737178762E+02 0.83639542245E+02
 0.77911095816E+02 0.69857522191E+02 0.60753938318E+02 0.51411148231E+02 0.42335339400E+02
 0.34076581785E+02 0.27260433371E+02 0.22261223813E+02 0.18889595884E+02 0.16621594812E+02
 0.15226567501E+02 0.14456186891E+02 0.14070384745E+02 0.13898680164E+02 0.18170417448E+02
 0.18078420390E+02 0.17848513474E+02 0.17617354566E+02 0.17599652591E+02 0.18055748501E+02
 0.19239260608E+02 0.21320684386E+02 0.24537743598E+02 0.29234795031E+02 0.35405547449E+02
 0.42755623027E+02 0.50830853938E+02 0.58990945364E+02 0.66272396961E+02 0.71422029474E+02
 0.73295607600E+02 0.71422029474E+02 0.66272396961E+02 0.58990945364E+02 0.50830853938E+02
 0.42755623027E+02 0.35405547449E+02 0.29234795031E+02 0.24537743598E+02 0.21320684386E+02
 0.19239260608E+02 0.18055748501E+02 0.17599652591E+02 0.17617354566E+02 0.17848513474E+02
 0.18078420390E+02 0.25145327526E+02 0.24777704518E+02 0.23822480695E+02 0.22621957453E+02
 0.21496248743E+02 0.20697688055E+02 0.20516379308E+02 0.21168089234E+02 0.22745588954E+02
 0.25440955952E+02 0.29433562730E+02 0.34659875465E+02 0.40818473567E+02 0.47321633605E+02
 0.53249361310E+02 0.57471106040E+02 0.59008851125E+02 0.57471106040E+02 0.53249361310E+02
 0.47321633605E+02 0.40818473567E+02 0.34659875465E+02 0.29433562730E+02 0.25440955952E+02
 0.22745588954E+02 0.21168089234E+02 0.20516379308E+02 0.20697688055E+02 0.21496248743E+02
 0.22621957453E+02 0.23822480695E+02 0.24777704518E+02 0.38203162537E+02 0.37139292045E+02
 0.34350334207E+02 0.30792028034E+02 0.27431530698E+02 0.24822998814E+02 0.23003666836E+02
 0.21978496484E+02 0.21915360378E+02 0.22833491150E+02 0.24795257177E+02 0.27823722904E+02
 0.31739553805E+02 0.36106124921E+02 0.40207455249E+02 0.43171083511E+02 0.44256541748E+02
 0.43171083511E+02 0.40207455249E+02 0.36106124921E+02 0.31739553805E+02 0.27823722904E+02
 0.24795257177E+02 0.22833491150E+02 0.21915360378E+02 0.21978496484E+02 0.23003666836E+02
 0.24822998814E+02 0.27431530698E+02 0.30792028034E+02 0.34350334207E+02 0.37139292045E+02
 0.60746284072E+02 0.58516646664E+02 0.52614582986E+02 0.44916266214E+02 0.37362444900E+02
 0.31197401230E+02 0.26811890328E+02 0.23893557014E+02 0.22037673934E+02 0.21311817119E+02
 0.21610638262E+02 0.22781368274E+02 0.24677225490E+02 0.27003547358E+02 0.29291356757E+02
 0.30979915153E+02 0.31603289849E+02 0.30979915153E+02 0.29291356757E+02 0.27003547358E+02
 0.24677225490E+02 0.22781368274E+02 0.21610638262E+02 0.21311817119E+02 0.22037673934E+02
 0.23893557014E+02 0.26811890328E+02 0.31197401230E+02 0.37362444900E+02 0.44916266214E+02
 0.52614582986E+02 0.58516646664E+02 0.92598460435E+02 0.88876178017E+02 0.78974767818E+02
 0.65886121578E+02 0.52669527564E+02 0.41326741216E+02 0.32723568142E+02 0.26905763428E+02
 0.23142178658E+02 0.20728754375E+02 0.19584984637E+02 0.19429171948E+02 0.19922602557E+02
 0.20789789420E+02 0.21738187950E+02 0.22460947340E+02 0.22729463948E+02 0.22460947340E+02
 0.21738187950E+02 0.20789789420E+02 0.19922602557E+02 0.19429171948E+02 0.19584984637E+02
 0.20728754375E+02 0.23142178658E+02 0.26905763428E+02 0.32723568142E+02 0.41326741216E+02
 0.52669527564E+02 0.65886121578E+02 0.78974767818E+02 0.88876178017E+02 0.13118554781E+03
 0.12582793201E+03 0.11157766906E+03 0.92656661971E+02 0.73201295742E+02 0.55793904275E+02
 0.41701396312E+02 0.31537464655E+02 0.25107221622E+02 0.21021294417E+02 0.18489506954E+02
 0.17223554408E+02 0.16808378966E+02 0.16870099573E+02 0.17100305733E+02 0.17291737142E+02
 0.17360221864E+02 0.17291737142E+02 0.17100305733E+02 0.16870099573E+02 0.16808378966E+02
 0.17223554408E+02 0.18489506954E+02 0.21021294417E+02 0.25107221622E+02 0.31537464655E+02
 0.41701396312E+02 0.55793904275E+02 0.73201295742E+02 0.92656661971E+02 0.11157766906E+03
 0.12582793201E+03 0.17430608715E+03 0.16721550239E+03 0.14844594767E+03 0.12363666227E+03
 0.97951125143E+02 0.74243704596E+02 0.53925424112E+02 0.38260115920E+02 0.27987291433E+02
 0.21985565779E+02 0.18154275650E+02 0.15917578348E+02 0.14789243073E+02 0.14315938459E+02
 0.14140164941E+02 0.14055775479E+02 0.14022811192E+02 0.14055775479E+02 0.14140164941E+02
 0.14315938459E+02 0.14789243073E+02 0.15917578348E+02 0.18154275650E+02 0.21985565779E+02
 0.27987291433E+02 0.38260115920E+02 0.53925424112E+02 0.74243704596E+02 0.97951125143E+02
 0.12363666227E+03 0.14844594767E+03 0.16721550239E+03 0.22035984337E+03 0.21137450778E+03
 0.18777100838E+03 0.15691965555E+03 0.12510480918E+03 0.95213761357E+02 0.68476055106E+02
 0.46709570340E+02 0.31788012922E+02 0.23320778672E+02 0.18311569755E+02 0.15244796376E+02
 0.13571190410E+02 0.12741289287E+02 0.12318293151E+02 0.12066750001E+02 0.11970880300E+02
 0.12066750001E+02 0.12318293151E+02 0.12741289287E+02 0.13571190410E+02 0.15244796376E+02
 0.18311569755E+02 0.23320778672E+02 0.31788012922E+02 0.46709570340E+02 0.68476055106E+02
 0.95213761357E+02 0.12510480918E+03 0.15691965555E+03 0.18777100838E+03 0.21137450778E+03
 0.26507406011E+03 0.25412727237E+03 0.22558445903E+03 0.18874526122E+03 0.15113671936E+03
 0.11560917157E+03 0.82991525949E+02 0.55439687342E+02 0.35882894397E+02 0.24747842402E+02
 0.18676172300E+02 0.14945653669E+02 0.12872386268E+02 0.11815890037E+02 0.11254143174E+02
 0.10909959855E+02 0.10778074391E+02 0.10909959855E+02 0.11254143174E+02 0.11815890037E+02
 0.12872386268E+02 0.14945653669E+02 0.18676172300E+02 0.24747842402E+02 0.35882894397E+02
 0.55439687342E+02 0.82991525949E+02 0.11560917157E+03 0.15113671936E+03 0.18874526122E+03
 0.22558445903E+03 0.25412727237E+03 0.29925382114E+03 0.28672122983E+03 0.25420395164E+03
 0.21261502684E+03 0.17055089129E+03 0.13085409450E+03 0.93962482957E+02 0.62166466803E+02
 0.39122900374E+02 0.25888772501E+02 0.19003358338E+02 0.14833317501E+02 0.12508820686E+02
 0.11324377035E+02 0.10693143893E+02 0.10303251608E+02 0.10152974380E+02 0.10303251608E+02
 0.10693143893E+02 0.11324377035E+02 0.12508820686E+02 0.14833317501E+02 0.19003358338E+02
 0.25888772501E+02 0.39122900374E+02 0.62166466803E+02 0.93962482957E+02 0.13085409450E+03
 0.17055089129E+03 0.21261502684E+03 0.25420395164E+03 0.28672122983E+03 0.29939394514E+03
 0.28688830878E+03 0.25442999610E+03 0.21288398533E+03 0.17080981061E+03 0.13104962538E+03
 0.94072413987E+02 0.62205058024E+02 0.39122810980E+02 0.25878424547E+02 0.18996035225E+02
 0.14831990055E+02 0.12513527737E+02 0.11334021184E+02 0.10706365781E+02 0.10318681599E+02
 0.10169162664E+02 0.10318681599E+02 0.10706365781E+02 0.11334021184E+02 0.12513527737E+02
 0.14831990055E+02 0.18996035225E+02 0.25878424547E+02 0.39122810980E+02 0.62205058024E+02
 0.94072413987E+02 0.13104962538E+03 0.17080981061E+03 0.21288398533E+03 0.25442999610E+03
 0.28688830878E+03 0.28734948085E+03 0.27540631162E+03 0.24435583065E+03 0.20448663997E+03
 0.16397616542E+03 0.12567110983E+03 0.90185813460E+02 0.59807406387E+02 0.37957354768E+02
 0.25462990285E+02 0.18872048373E+02 0.14858548141E+02 0.12624308520E+02 0.11485639030E+02
 0.10878694549E+02 0.10504427385E+02 0.10360401468E+02 0.10504427385E+02 0.10878694549E+02
 0.11485639030E+02 0.12624308520E+02 0.14858548141E+02 0.18872048373E+02 0.25462990285E+02
 0.37957354768E+02 0.59807406387E+02 0.90185813460E+02 0.12567110983E+03 0.16397616542E+03
 0.20448663997E+03 0.24435583065E+03 0.27540631162E+03 0.25552625115E+03 0.24502603185E+03
 0.21759329388E+03 0.18205879403E+03 0.14565110542E+03 0.11124678153E+03 0.79810004984E+02
 0.53462921431E+02 0.34911715173E+02 0.24383378174E+02 0.18554331445E+02 0.14967485439E+02
 0.12977467984E+02 0.11963821074E+02 0.11425066797E+02 0.11095502522E+02 0.10969387868E+02
 0.11095502522E+02 0.11425066797E+02 0.11963821074E+02 0.12977467984E+02 0.14967485439E+02
 0.18554331445E+02 0.24383378174E+02 0.34911715173E+02 0.53462921431E+02 0.79810004984E+02
 0.11124678153E+03 0.14565110542E+03 0.18205879403E+03 0.21759329388E+03 0.24502603185E+03
 0.21346769493E+03 0.20477318344E+03 0.18189476015E+03 0.15190830405E+03 0.12092580540E+03
 0.91869798140E+02 0.66048850350E+02 0.45217630458E+02 0.31056086891E+02 0.23021375200E+02
 0.18199402071E+02 0.15256480384E+02 0.13654722894E+02 0.12862211261E+02 0.12459376742E+02
 0.12220434142E+02 0.12129460918E+02 0.12220434142E+02 0.12459376742E+02 0.12862211261E+02
 0.13654722894E+02 0.15256480384E+02 0.18199402071E+02 0.23021375200E+02 0.31056086891E+02
 0.45217630458E+02 0.66048850350E+02 0.91869798140E+02 0.12092580540E+03 0.15190830405E+03
 0.18189476015E+03 0.20477318344E+03 0.16949763952E+03 0.16258616099E+03 0.14427058638E+03
 0.12002637921E+03 0.94925781014E+02 0.71842680688E+02 0.52211914434E+02 0.37221385174E+02
 0.27463559681E+02 0.21725358284E+02 0.18043545785E+02 0.15905480486E+02 0.14833236602E+02
 0.14388342599E+02 0.14227223594E+02 0.14151680218E+02 0.14122124588E+02 0.14151680218E+02
 0.14227223594E+02 0.14388342599E+02 0.14833236602E+02 0.15905480486E+02 0.18043545785E+02
 0.21725358284E+02 0.27463559681E+02 0.37221385174E+02 0.52211914434E+02 0.71842680688E+02
 0.94925781014E+02 0.12002637921E+03 0.14427058638E+03 0.16258616099E+03 0.12772003813E+03
 0.12248437409E+03 0.10855303215E+03 0.90053119985E+02 0.71059081953E+02 0.54142574974E+02
 0.40554904101E+02 0.30841383973E+02 0.24714257948E+02 0.20782755452E+02 0.18362516141E+02
 0.17165567723E+02 0.16786069992E+02 0.16862547194E+02 0.17097926252E+02 0.17291813866E+02
 0.17361179567E+02 0.17291813866E+02 0.17097926252E+02 0.16862547194E+02 0.16786069992E+02
 0.17165567723E+02 0.18362516141E+02 0.20782755452E+02 0.24714257948E+02 0.30841383973E+02
 0.40554904101E+02 0.54142574974E+02 0.71059081953E+02 0.90053119985E+02 0.10855303215E+03
 0.12248437409E+03 0.90061333236E+02 0.86433895208E+02 0.76786366962E+02 0.64043441164E+02
 0.51205652699E+02 0.40239829654E+02 0.31979093981E+02 0.26420951188E+02 0.22800785779E+02
 0.20491097245E+02 0.19417001646E+02 0.19297314169E+02 0.19799069495E+02 0.20650001131E+02
 0.21571688285E+02 0.22271768669E+02 0.22531599037E+02 0.22271768669E+02 0.21571688285E+02
 0.20650001131E+02 0.19799069495E+02 0.19297314169E+02 0.19417001646E+02 0.20491097245E+02
 0.22800785779E+02 0.26420951188E+02 0.31979093981E+02 0.40239829654E+02 0.51205652699E+02
 0.64043441164E+02 0.76786366962E+02 0.86433895208E+02 0.59034437072E+02 0.56875920715E+02
 0.51164881898E+02 0.43724895441E+02 0.36442091417E+02 0.30519695845E+02 0.26317307280E+02
 0.23501778519E+02 0.21722268231E+02 0.21051253669E+02 0.21375727481E+02 0.22530765515E+02
 0.24372772627E+02 0.26619942371E+02 0.28823864557E+02 0.30448385393E+02 0.31047807204E+02
 0.30448385393E+02 0.28823864557E+02 0.26619942371E+02 0.24372772627E+02 0.22530765515E+02
 0.21375727481E+02 0.21051253669E+02 0.21722268231E+02 0.23501778519E+02 0.26317307280E+02
 0.30519695845E+02 0.36442091417E+02 0.43724895441E+02 0.51164881898E+02 0.56875920715E+02
 0.37240487392E+02 0.36219001980E+02 0.33542165666E+02 0.30129065769E+02 0.26906273341E+02
 0.24396137880E+02 0.22626647182E+02 0.21641939108E+02 0.21605493099E+02 0.22526528515E+02
 0.24446992854E+02 0.27388811840E+02 0.31177362467E+02 0.35389921673E+02 0.39338112139E+02
 0.42186970351E+02 0.43229640076E+02 0.42186970351E+02 0.39338112139E+02 0.35389921673E+02
 0.31177362467E+02 0.27388811840E+02 0.24446992854E+02 0.22526528515E+02 0.21605493099E+02
 0.21641939108E+02 0.22626647182E+02 0.24396137880E+02 0.26906273341E+02 0.30129065769E+02
 0.33542165666E+02 0.36219001980E+02 0.24709915573E+02 0.24357375105E+02 0.23439332888E+02
 0.22278123349E+02 0.21174831635E+02 0.20392698140E+02 0.20219830160E+02 0.20866783043E+02
 0.22420849578E+02 0.25051678435E+02 0.28937765685E+02 0.34016235761E+02 0.39985985443E+02
 0.46269687295E+02 0.51979243785E+02 0.56035689037E+02 0.57511305166E+02 0.56035689037E+02
 0.51979243785E+02 0.46269687295E+02 0.39985985443E+02 0.34016235761E+02 0.28937765685E+02
 0.25051678435E+02 0.22420849578E+02 0.20866783043E+02 0.20219830160E+02 0.20392698140E+02
 0.21174831635E+02 0.22278123349E+02 0.23439332888E+02 0.24357375105E+02 0.17969243472E+02
 0.17878337834E+02 0.17651077939E+02 0.17421878325E+02 0.17401185041E+02 0.17843762410E+02
 0.18998710433E+02 0.21035411700E+02 0.24169631038E+02 0.28745694651E+02 0.34767651280E+02
 0.41940226702E+02 0.49797683729E+02 0.57697175028E+02 0.64706795545E+02 0.69642365486E+02
 0.71433849915E+02 0.69642365486E+02 0.64706795545E+02 0.57697175028E+02 0.49797683729E+02
 0.41940226702E+02 0.34767651280E+02 0.28745694651E+02 0.24169631038E+02 0.21035411700E+02
 0.18998710433E+02 0.17843762410E+02 0.17401185041E+02 0.17421878325E+02 0.17651077939E+02
 0.17878337834E+02 0.13789265403E+02 0.13835473562E+02 0.14000185953E+02 0.14372134444E+02
 0.15117943533E+02 0.16472920936E+02 0.18683282335E+02 0.21967523359E+02 0.26833235499E+02
 0.33494326785E+02 0.41596287165E+02 0.50505117809E+02 0.59634607996E+02 0.68451349869E+02
 0.76174422347E+02 0.81626301159E+02 0.83614906767E+02 0.81626301159E+02 0.76174422347E+02
 0.68451349869E+02 0.59634607996E+02 0.50505117809E+02 0.41596287165E+02 0.33494326785E+02
 0.26833235499E+02 0.21967523359E+02 0.18683282335E+02 0.16472920936E+02 0.15117943533E+02
 0.14372134444E+02 0.14000185953E+02 0.13835473562E+02 0.11391265652E+02 0.11513646210E+02
 0.11901227453E+02 0.12633199399E+02 0.13878941953E+02 0.15896747306E+02 0.18954677130E+02
 0.23513579416E+02 0.30229790625E+02 0.39010807112E+02 0.49022032699E+02 0.59271117282E+02
 0.69173150941E+02 0.78493179261E+02 0.86718045342E+02 0.92643823435E+02 0.94836810088E+02
 0.92643823435E+02 0.86718045342E+02 0.78493179261E+02 0.69173150941E+02 0.59271117282E+02
 0.49022032699E+02 0.39010807112E+02 0.30229790625E+02 0.23513579416E+02 0.18954677130E+02
 0.15896747306E+02 0.13878941953E+02 0.12633199399E+02 0.11901227453E+02 0.11513646210E+02
 0.10117244610E+02 0.10275284729E+02 0.10773483735E+02 0.11705344096E+02 0.13271881440E+02
 0.15777013993E+02 0.19559884845E+02 0.25415752861E+02 0.33985394980E+02 0.44805081062E+02
 0.56540931491E+02 0.67915712991E+02 0.78491809408E+02 0.88449400085E+02 0.97517349600E+02
 0.10427954038E+03 0.10683197102E+03 0.10427954038E+03 0.97517349600E+02 0.88449400085E+02
 0.78491809408E+02 0.67915712991E+02 0.56540931491E+02 0.44805081062E+02 0.33985394980E+02
 0.25415752861E+02 0.19559884845E+02 0.15777013993E+02 0.13271881440E+02 0.11705344096E+02
 0.10773483735E+02 0.10275284729E+02 0.94124016902E+01 0.95872898479E+01 0.10142526356E+02
 0.11192540682E+02 0.12975844882E+02 0.15842709415E+02 0.20253127910E+02 0.27285544808E+02
 0.37503536374E+02 0.50098786323E+02 0.63324071730E+02 0.75738105898E+02 0.87142301888E+02
 0.98127291023E+02 0.10854115085E+03 0.11656075370E+03 0.11963631367E+03 0.11656075370E+03
 0.10854115085E+03 0.98127291023E+02 0.87142301888E+02 0.75738105898E+02 0.63324071730E+02
 0.50098786323E+02 0.37503536374E+02 0.27285544808E+02 0.20253127910E+02 0.15842709415E+02
 0.12975844882E+02 0.11192540682E+02 0.10142526356E+02 0.95872898479E+01 0.89801944944E+01
 0.91656612855E+01 0.97573276671E+01 0.10884520294E+02 0.12811869816E+02 0.15920784823E+02
 0.20788096782E+02 0.28665151700E+02 0.40047307753E+02 0.53888474255E+02 0.68180156107E+02
 0.81419210595E+02 0.93625831058E+02 0.10568318739E+03 0.11745087678E+03 0.12668733164E+03
 0.13025951685E+03 0.12668733164E+03 0.11745087678E+03 0.10568318739E+03 0.93625831058E+02
 0.81419210595E+02 0.68180156107E+02 0.53888474255E+02 0.40047307753E+02 0.28665151700E+02
 0.20788096782E+02 0.15920784823E+02 0.12811869816E+02 0.10884520294E+02 0.97573276671E+01
 0.91656612855E+01 0.88172223643E+01 0.90070712058E+01 0.96134154392E+01 0.10770506524E+02
 0.12751749345E+02 0.15949006344E+02 0.20987389763E+02 0.29174469687E+02 0.40980012012E+02
 0.55273964995E+02 0.69960140002E+02 0.83523760383E+02 0.96073187416E+02 0.10859643717E+03
 0.12094135436E+03 0.13068800700E+03 0.13446669859E+03 0.13068800700E+03 0.12094135436E+03
 0.10859643717E+03 0.96073187416E+02 0.83523760383E+02 0.69960140002E+02 0.55273964995E+02
 0.40980012012E+02 0.29174469687E+02 0.20987389763E+02 0.15949006344E+02 0.12751749345E+02
 0.10770506524E+02 0.96134154392E+01 0.90070712058E+01 0.89801944944E+01 0.91656612855E+01
 0.97573276671E+01 0.10884520294E+02 0.12811869816E+02 0.15920784823E+02 0.20788096782E+02
 0.28665151700E+02 0.40047307753E+02 0.53888474255E+02 0.68180156107E+02 0.81419210595E+02
 0.93625831058E+02 0.10568318739E+03 0.11745087678E+03 0.12668733164E+03 0.13025951685E+03
 0.12668733164E+03 0.11745087678E+03 0.10568318739E+03 0.93625831058E+02 0.81419210595E+02
 0.68180156107E+02 0.53888474255E+02 0.40047307753E+02 0.28665151700E+02 0.20788096782E+02
 0.15920784823E+02 0.12811869816E+02 0.10884520294E+02 0.97573276671E+01 0.91656612855E+01
 0.94124016902E+01 0.95872898479E+01 0.10142526356E+02 0.11192540682E+02 0.12975844882E+02
 0.15842709415E+02 0.20253127910E+02 0.27285544808E+02 0.37503536374E+02 0.50098786323E+02
 0.63324071730E+02 0.75738105898E+02 0.87142301888E+02 0.98127291023E+02 0.10854115085E+03
 0.11656075370E+03 0.11963631367E+03 0.11656075370E+03 0.10854115085E+03 0.98127291023E+02
 0.87142301888E+02 0.75738105898E+02 0.63324071730E+02 0.50098786323E+02 0.37503536374E+02