   4   4   0   0
  0.1260789E+02  0.3694601E-09  0.3694601E-09  0.3694601E-09  0.5000000E-15
  1.000000000000000E-004
  CAR 
 unknown system                          
     30.30026406     -0.87068246  301     11.55643719      1.00000000
     -0.871  0.0000E+00  0.0000E+00
     -0.767  0.0000E+00  0.0000E+00
     -0.663  0.0000E+00  0.0000E+00
     -0.559 -0.3891E-32 -0.4043E-33
     -0.455 -0.1796E-28 -0.1867E-29
     -0.351 -0.4815E-25 -0.5005E-26
     -0.247 -0.7485E-22 -0.7783E-23
     -0.143 -0.6746E-19 -0.7017E-20
     -0.039 -0.3442E-16 -0.3583E-17
      0.064 -0.1028E-13 -0.1071E-14
      0.168 -0.1783E-11 -0.1863E-12
      0.272 -0.1784E-09 -0.1872E-10
      0.376 -0.1029E-07 -0.1088E-08
      0.480 -0.3422E-06 -0.3664E-07
      0.584 -0.6573E-05 -0.7196E-06
      0.688 -0.7320E-04 -0.8325E-05
      0.792 -0.4715E-03 -0.5732E-04
      0.896 -0.1682E-02 -0.2321E-03
      1.000 -0.2378E-02 -0.4792E-03
      1.103  0.5572E-02  0.9980E-04
      1.207  0.3544E-01  0.3782E-02
      1.311  0.8345E-01  0.1245E-01
      1.415  0.1144E+00  0.2434E-01
      1.519  0.1136E+00  0.3614E-01
      1.623  0.1392E+00  0.5060E-01
      1.727  0.2201E+00  0.7347E-01
      1.831  0.2520E+00  0.9965E-01
      1.935  0.1841E+00  0.1188E+00
      2.039  0.1635E+00  0.1358E+00
      2.143  0.2587E+00  0.1626E+00
      2.246  0.3345E+00  0.1974E+00
      2.350  0.3206E+00  0.2307E+00
      2.454  0.2919E+00  0.2610E+00
      2.558  0.3435E+00  0.2967E+00
      2.662  0.4232E+00  0.3407E+00
      2.766  0.3839E+00  0.3806E+00
      2.870  0.3073E+00  0.4125E+00
      2.974  0.3650E+00  0.4505E+00
      3.078  0.5366E+00  0.5062E+00
      3.182  0.6696E+00  0.5758E+00
      3.285  0.6769E+00  0.6461E+00
      3.389  0.5666E+00  0.7050E+00
      3.493  0.4994E+00  0.7569E+00
      3.597  0.7209E+00  0.8318E+00
      3.701  0.1067E+01  0.9426E+00
      3.805  0.1175E+01  0.1065E+01
      3.909  0.1186E+01  0.1188E+01
      4.013  0.1528E+01  0.1347E+01
      4.117  0.2070E+01  0.1562E+01
      4.221  0.2351E+01  0.1806E+01
      4.324  0.2340E+01  0.2049E+01
      4.428  0.2287E+01  0.2287E+01
      4.532  0.2360E+01  0.2532E+01
      4.636  0.2771E+01  0.2820E+01
      4.740  0.3613E+01  0.3195E+01
      4.844  0.4343E+01  0.3647E+01
      4.948  0.4659E+01  0.4131E+01
      5.052  0.4949E+01  0.4645E+01
      5.156  0.5288E+01  0.5194E+01
      5.260  0.5584E+01  0.5774E+01
      5.364  0.5851E+01  0.6382E+01
      5.467  0.5844E+01  0.6990E+01
      5.571  0.5499E+01  0.7561E+01
      5.675  0.5147E+01  0.8096E+01
      5.779  0.5081E+01  0.8624E+01
      5.883  0.5157E+01  0.9160E+01
      5.987  0.4932E+01  0.9672E+01
      6.091  0.4346E+01  0.1012E+02
      6.195  0.3850E+01  0.1052E+02
      6.299  0.3717E+01  0.1091E+02
      6.403  0.3778E+01  0.1130E+02
      6.506  0.3781E+01  0.1170E+02
      6.610  0.3696E+01  0.1208E+02
      6.714  0.3716E+01  0.1247E+02
      6.818  0.4017E+01  0.1288E+02
      6.922  0.4559E+01  0.1336E+02
      7.026  0.5159E+01  0.1389E+02
      7.130  0.5768E+01  0.1449E+02
      7.234  0.6168E+01  0.1513E+02
      7.338  0.5978E+01  0.1575E+02
      7.442  0.5334E+01  0.1631E+02
      7.545  0.4899E+01  0.1682E+02
      7.649  0.4908E+01  0.1733E+02
      7.753  0.5017E+01  0.1785E+02
      7.857  0.5484E+01  0.1842E+02
      7.961  0.6793E+01  0.1912E+02
      8.065  0.8596E+01  0.2002E+02
      8.169  0.1005E+02  0.2106E+02
      8.273  0.1025E+02  0.2213E+02
      8.377  0.8952E+01  0.2306E+02
      8.481  0.7297E+01  0.2381E+02
      8.585  0.6505E+01  0.2449E+02
      8.688  0.6548E+01  0.2517E+02
      8.792  0.6836E+01  0.2588E+02
      8.896  0.7042E+01  0.2661E+02
      9.000  0.7305E+01  0.2737E+02
      9.104  0.7447E+01  0.2815E+02
      9.208  0.6678E+01  0.2884E+02
      9.312  0.5400E+01  0.2940E+02
      9.416  0.4881E+01  0.2991E+02
      9.520  0.4962E+01  0.3042E+02
      9.624  0.4567E+01  0.3090E+02
      9.727  0.3725E+01  0.3129E+02
      9.831  0.3109E+01  0.3161E+02
      9.935  0.2871E+01  0.3191E+02
     10.039  0.3048E+01  0.3222E+02
     10.143  0.3782E+01  0.3262E+02
     10.247  0.4935E+01  0.3313E+02
     10.351  0.5992E+01  0.3375E+02
     10.455  0.6519E+01  0.3443E+02
     10.559  0.6329E+01  0.3509E+02
     10.663  0.5674E+01  0.3568E+02
     10.766  0.5165E+01  0.3621E+02
     10.870  0.4940E+01  0.3673E+02
     10.974  0.4655E+01  0.3721E+02
     11.078  0.4600E+01  0.3769E+02
     11.182  0.5171E+01  0.3822E+02
     11.286  0.5616E+01  0.3881E+02
     11.390  0.5125E+01  0.3934E+02
     11.494  0.4155E+01  0.3977E+02
     11.598  0.3582E+01  0.4014E+02
     11.702  0.3494E+01  0.4051E+02
     11.806  0.3524E+01  0.4087E+02
     11.909  0.3319E+01  0.4122E+02
     12.013  0.2934E+01  0.4152E+02
     12.117  0.2821E+01  0.4182E+02
     12.221  0.2913E+01  0.4212E+02
     12.325  0.2748E+01  0.4240E+02
     12.429  0.2343E+01  0.4265E+02
     12.533  0.1935E+01  0.4285E+02
     12.637  0.1516E+01  0.4301E+02
     12.741  0.1203E+01  0.4313E+02
     12.845  0.1185E+01  0.4325E+02
     12.948  0.1234E+01  0.4338E+02
     13.052  0.1079E+01  0.4350E+02
     13.156  0.9252E+00  0.4359E+02
     13.260  0.9504E+00  0.4369E+02
     13.364  0.9321E+00  0.4379E+02
     13.468  0.7499E+00  0.4386E+02
     13.572  0.5761E+00  0.4392E+02
     13.676  0.5196E+00  0.4398E+02
     13.780  0.5897E+00  0.4404E+02
     13.884  0.7273E+00  0.4412E+02
     13.987  0.7390E+00  0.4419E+02
     14.091  0.6670E+00  0.4426E+02
     14.195  0.6950E+00  0.4433E+02
     14.299  0.7144E+00  0.4441E+02
     14.403  0.6562E+00  0.4448E+02
     14.507  0.6899E+00  0.4455E+02
     14.611  0.7967E+00  0.4463E+02
     14.715  0.8097E+00  0.4471E+02
     14.819  0.7622E+00  0.4479E+02
     14.923  0.7629E+00  0.4487E+02
     15.027  0.8522E+00  0.4496E+02
     15.130  0.1047E+01  0.4507E+02
     15.234  0.1304E+01  0.4521E+02
     15.338  0.1428E+01  0.4535E+02
     15.442  0.1339E+01  0.4549E+02
     15.546  0.1262E+01  0.4562E+02
     15.650  0.1272E+01  0.4576E+02
     15.754  0.1232E+01  0.4589E+02
     15.858  0.1073E+01  0.4600E+02
     15.962  0.7944E+00  0.4608E+02
     16.066  0.5966E+00  0.4614E+02
     16.169  0.6395E+00  0.4621E+02
     16.273  0.6951E+00  0.4628E+02
     16.377  0.6905E+00  0.4635E+02
     16.481  0.8219E+00  0.4644E+02
     16.585  0.1020E+01  0.4654E+02
     16.689  0.1153E+01  0.4666E+02
     16.793  0.1177E+01  0.4679E+02
     16.897  0.1016E+01  0.4689E+02
     17.001  0.6902E+00  0.4696E+02
     17.105  0.3811E+00  0.4700E+02
     17.208  0.3470E+00  0.4704E+02
     17.312  0.6390E+00  0.4710E+02
     17.416  0.9264E+00  0.4720E+02
     17.520  0.9559E+00  0.4730E+02
     17.624  0.7656E+00  0.4738E+02
     17.728  0.4627E+00  0.4743E+02
     17.832  0.2075E+00  0.4745E+02
     17.936  0.1883E+00  0.4747E+02
     18.040  0.4373E+00  0.4751E+02
     18.144  0.7277E+00  0.4759E+02
     18.247  0.9191E+00  0.4769E+02
     18.351  0.1189E+01  0.4781E+02
     18.455  0.1538E+01  0.4797E+02
     18.559  0.1634E+01  0.4814E+02
     18.663  0.1355E+01  0.4828E+02
     18.767  0.1044E+01  0.4839E+02
     18.871  0.9825E+00  0.4849E+02
     18.975  0.1085E+01  0.4860E+02
     19.079  0.1247E+01  0.4873E+02
     19.183  0.1346E+01  0.4887E+02
     19.287  0.1279E+01  0.4900E+02
     19.390  0.1211E+01  0.4913E+02
     19.494  0.1261E+01  0.4926E+02
     19.598  0.1270E+01  0.4939E+02
     19.702  0.1202E+01  0.4952E+02
     19.806  0.1183E+01  0.4964E+02
     19.910  0.1201E+01  0.4977E+02
     20.014  0.1182E+01  0.4989E+02
     20.118  0.1087E+01  0.5000E+02
     20.222  0.9874E+00  0.5010E+02
     20.326  0.1050E+01  0.5021E+02
     20.429  0.1182E+01  0.5034E+02
     20.533  0.1139E+01  0.5045E+02
     20.637  0.9613E+00  0.5055E+02
     20.741  0.8908E+00  0.5065E+02
     20.845  0.1003E+01  0.5075E+02
     20.949  0.1206E+01  0.5088E+02
     21.053  0.1370E+01  0.5102E+02
     21.157  0.1331E+01  0.5116E+02
     21.261  0.1160E+01  0.5128E+02
     21.365  0.1098E+01  0.5139E+02
     21.468  0.1136E+01  0.5151E+02
     21.572  0.1198E+01  0.5163E+02
     21.676  0.1338E+01  0.5177E+02
     21.780  0.1473E+01  0.5193E+02
     21.884  0.1387E+01  0.5207E+02
     21.988  0.1129E+01  0.5219E+02
     22.092  0.9787E+00  0.5229E+02
     22.196  0.1078E+01  0.5240E+02
     22.300  0.1358E+01  0.5254E+02
     22.404  0.1575E+01  0.5271E+02
     22.508  0.1543E+01  0.5287E+02
     22.611  0.1345E+01  0.5301E+02
     22.715  0.1127E+01  0.5312E+02
     22.819  0.9828E+00  0.5323E+02
     22.923  0.1036E+01  0.5333E+02
     23.027  0.1358E+01  0.5347E+02
     23.131  0.1801E+01  0.5366E+02
     23.235  0.2114E+01  0.5388E+02
     23.339  0.2146E+01  0.5410E+02
     23.443  0.1931E+01  0.5430E+02
     23.547  0.1676E+01  0.5448E+02
     23.650  0.1647E+01  0.5465E+02
     23.754  0.1767E+01  0.5483E+02
     23.858  0.1718E+01  0.5501E+02
     23.962  0.1570E+01  0.5518E+02
     24.066  0.1526E+01  0.5533E+02
     24.170  0.1479E+01  0.5549E+02
     24.274  0.1355E+01  0.5563E+02
     24.378  0.1288E+01  0.5576E+02
     24.482  0.1422E+01  0.5591E+02
     24.586  0.1722E+01  0.5609E+02
     24.689  0.1941E+01  0.5629E+02
     24.793  0.2040E+01  0.5650E+02
     24.897  0.2156E+01  0.5673E+02
     25.001  0.2133E+01  0.5695E+02
     25.105  0.1829E+01  0.5714E+02
     25.209  0.1514E+01  0.5730E+02
     25.313  0.1466E+01  0.5745E+02
     25.417  0.1568E+01  0.5761E+02
     25.521  0.1560E+01  0.5777E+02
     25.625  0.1352E+01  0.5791E+02
     25.729  0.1186E+01  0.5804E+02
     25.832  0.1304E+01  0.5817E+02
     25.936  0.1414E+01  0.5832E+02
     26.040  0.1252E+01  0.5845E+02
     26.144  0.1111E+01  0.5856E+02
     26.248  0.1184E+01  0.5869E+02
     26.352  0.1288E+01  0.5882E+02
     26.456  0.1257E+01  0.5895E+02
     26.560  0.1044E+01  0.5906E+02
     26.664  0.7192E+00  0.5913E+02
     26.768  0.5398E+00  0.5919E+02
     26.871  0.5514E+00  0.5925E+02
     26.975  0.5290E+00  0.5930E+02
     27.079  0.4522E+00  0.5935E+02
     27.183  0.4482E+00  0.5940E+02
     27.287  0.5021E+00  0.5945E+02
     27.391  0.5080E+00  0.5950E+02
     27.495  0.4191E+00  0.5955E+02
     27.599  0.3609E+00  0.5958E+02
     27.703  0.4529E+00  0.5963E+02
     27.807  0.5962E+00  0.5969E+02
     27.910  0.6625E+00  0.5976E+02
     28.014  0.6477E+00  0.5983E+02
     28.118  0.6261E+00  0.5989E+02
     28.222  0.5636E+00  0.5995E+02
     28.326  0.3657E+00  0.5999E+02
     28.430  0.1260E+00  0.6000E+02
     28.534 -0.1327E-03  0.6000E+02
     28.638 -0.1721E-01  0.6000E+02
     28.742 -0.6335E-02  0.6000E+02
     28.846 -0.1068E-02  0.6000E+02
     28.950 -0.9630E-04  0.6000E+02
     29.053 -0.4854E-05  0.6000E+02
     29.157 -0.1392E-06  0.6000E+02
     29.261 -0.2293E-08  0.6000E+02
     29.365 -0.2180E-10  0.6000E+02
     29.469 -0.1199E-12  0.6000E+02
     29.573 -0.3853E-15  0.6000E+02
     29.677  0.0000E+00  0.6000E+02
     29.781  0.0000E+00  0.6000E+02
     29.885  0.0000E+00  0.6000E+02
     29.989  0.0000E+00  0.6000E+02
     30.092  0.0000E+00  0.6000E+02
     30.196  0.0000E+00  0.6000E+02
     30.300  0.0000E+00  0.6000E+02
