    4    4    1    1
  0.1260789E+02  0.3694601E-09  0.3694601E-09  0.3694601E-09  0.5000000E-15
  1.000000000000000E-004
  CAR 
 unknown system                          
     40    216     30
 
  0.0000000E+00  0.0000000E+00  0.0000000E+00  0.7513148E-03
    1        1.129318   1.000000
    2        3.445592   1.000000
    3        4.586181   1.000000
    4        4.634575   1.000000
    5        4.695071   1.000000
    6        4.828387   1.000000
    7        4.851379   1.000000
    8        7.854300   1.000000
    9        7.866904   1.000000
   10        8.023655   1.000000
   11        9.400989   1.000000
   12        9.564720   1.000000
   13       10.394156   1.000000
   14       10.601075   1.000000
   15       10.769940   1.000000
   16       11.630457   0.209308
   17       11.846521  -0.029794
   18       11.991673  -0.004344
   19       12.333717  -0.000000
   20       12.934096  -0.000000
   21       13.604738  -0.000000
   22       13.612080  -0.000000
   23       13.638507  -0.000000
   24       13.652368  -0.000000
   25       21.767801   0.000000
   26       21.968721   0.000000
   27       23.054274   0.000000
   28       23.317126   0.000000
   29       23.586846   0.000000
   30       23.700184   0.000000
 
  0.9090909E-01  0.0000000E+00  0.0000000E+00  0.1502630E-02
    1        1.241905   1.000000
    2        3.525167   1.000000
    3        4.642363   1.000000
    4        4.675941   1.000000
    5        4.766202   1.000000
    6        4.896992   1.000000
    7        4.930707   1.000000
    8        7.803569   1.000000
    9        7.894236   1.000000
   10        8.064287   1.000000
   11        9.405502   1.000000
   12        9.510723   1.000000
   13       10.390826   1.000000
   14       10.481525   1.000000
   15       10.490708   1.000000
   16       11.085594   1.002166
   17       11.791759  -0.035077
   18       11.796060  -0.035345
   19       12.237243  -0.000008
   20       12.394235  -0.000000
   21       13.144324  -0.000000
   22       13.651958  -0.000000
   23       14.327973  -0.000000
   24       14.380048  -0.000000
   25       21.758689   0.000000
   26       22.070885   0.000000
   27       22.811649   0.000000
   28       23.420878   0.000000
   29       23.653944   0.000000
   30       24.407215   0.000000
 
  0.0000000E+00  0.9090909E-01  0.0000000E+00  0.1502630E-02
    1        1.253564   1.000000
    2        3.531347   1.000000
    3        4.630616   1.000000
    4        4.712791   1.000000
    5        4.734936   1.000000
    6        4.897156   1.000000
    7        4.935513   1.000000
    8        7.899158   1.000000
    9        7.910676   1.000000
   10        7.968130   1.000000
   11        9.357364   1.000000
   12        9.576418   1.000000
   13       10.207008   1.000000
   14       10.529391   1.000000
   15       10.574009   1.000000
   16       11.617811   0.253367
   17       11.662035   0.114920
   18       11.986339  -0.004789
   19       12.196986  -0.000029
   20       12.252672  -0.000005
   21       12.659773  -0.000000
   22       13.172322  -0.000000
   23       14.462581  -0.000000
   24       14.716152  -0.000000
   25       21.559081   0.000000
   26       22.154115   0.000000
   27       23.195575   0.000000
   28       23.421277   0.000000
   29       23.666805   0.000000
   30       24.067567   0.000000
 
  0.0000000E+00  0.0000000E+00  0.9090909E-01  0.1502630E-02
    1        1.254358   1.000000
    2        3.534045   1.000000
    3        4.674976   1.000000
    4        4.714237   1.000000
    5        4.767898   1.000000
    6        4.874974   1.000000
    7        4.884764   1.000000
    8        7.787949   1.000000
    9        7.905878   1.000000
   10        8.064300   1.000000
   11        9.373383   1.000000
   12        9.552243   1.000000
   13       10.192806   1.000000
   14       10.523566   1.000000
   15       10.762949   1.000000
   16       11.223972   1.020217
   17       11.588529   0.366126
   18       11.761895  -0.027732
   19       12.178877  -0.000049
   20       12.694267  -0.000000
   21       12.929581  -0.000000
   22       13.185914  -0.000000
   23       14.361051  -0.000000
   24       14.674642  -0.000000
   25       21.354026   0.000000
   26       22.240228   0.000000
   27       23.205489   0.000000
   28       23.626227   0.000000
   29       23.670756   0.000000
   30       24.027394   0.000000
 
  0.1818182E+00  0.0000000E+00  0.0000000E+00  0.1502630E-02
    1        1.568713   1.000000
    2        3.753666   1.000000
    3        4.777967   1.000000
    4        4.796440   1.000000
    5        4.980506   1.000000
    6        5.102719   1.000000
    7        5.177378   1.000000
    8        7.625386   1.000000
    9        8.011144   1.000000
   10        8.191592   1.000000
   11        9.316383   1.000000
   12        9.462966   1.000000
   13        9.800411   1.000000
   14       10.075697   1.000000
   15       10.175648   1.000000
   16       10.383140   1.000000
   17       11.432928   0.927733
   18       11.537040   0.581651
   19       11.758060  -0.025949
   20       11.931972  -0.011630
   21       12.225474  -0.000012
   22       13.651015  -0.000000
   23       15.564601  -0.000000
   24       15.567414  -0.000000
   25       21.356315   0.000000
   26       21.743799   0.000000
   27       23.497948   0.000000
   28       23.584990   0.000000
   29       23.924045   0.000000
   30       24.546372   0.000000
 
  0.0000000E+00  0.1818182E+00  0.0000000E+00  0.1502630E-02
    1        1.618107   1.000000
    2        3.775418   1.000000
    3        4.731504   1.000000
    4        4.849558   1.000000
    5        4.943639   1.000000
    6        5.102345   1.000000
    7        5.200104   1.000000
    8        7.811029   1.000000
    9        8.037584   1.000000
   10        8.044061   1.000000
   11        9.224397   1.000000
   12        9.616787   1.000000
   13        9.712776   1.000000
   14        9.905570   1.000000
   15       10.489255   1.000000
   16       11.105114   1.003203
   17       11.489376   0.766849
   18       11.584806   0.381291
   19       11.753831  -0.023722
   20       11.810627  -0.035149
   21       11.974755  -0.005881
   22       12.198746  -0.000027
   23       15.701074  -0.000000
   24       15.868759  -0.000000
   25       20.949308   0.000000
   26       22.466469   0.000000
   27       23.389849   0.000000
   28       23.434076   0.000000
   29       23.917898   0.000000
   30       24.733471   0.000000
 
  0.0000000E+00  0.0000000E+00  0.1818182E+00  0.1502630E-02
    1        1.621608   1.000000
    2        3.786845   1.000000
    3        4.916592   1.000000
    4        4.950573   1.000000
    5        4.986106   1.000000
    6        4.987446   1.000000
    7        5.011941   1.000000
    8        7.598032   1.000000
    9        8.018942   1.000000
   10        8.192246   1.000000
   11        9.248394   1.000000
   12        9.563488   1.000000
   13        9.674030   1.000000
   14       10.175636   1.000000
   15       10.272659   1.000000
   16       10.746206   1.000000
   17       11.223185   1.020040
   18       11.553218   0.513622
   19       11.622445   0.236849
   20       11.843696  -0.030373
   21       12.257268  -0.000004
   22       12.918673  -0.000000
   23       15.651590  -0.000000
   24       15.816512  -0.000000
   25       20.596474   0.000000
   26       22.649912   0.000000
   27       23.445965   0.000000
   28       23.582641   0.000000
   29       24.086696   0.000000
   30       24.605923   0.000000
 
  0.2727273E+00  0.0000000E+00  0.0000000E+00  0.1502630E-02
    1        2.071266   1.000000
    2        4.095542   1.000000
    3        4.929314   1.000000
    4        4.977399   1.000000
    5        5.330599   1.000000
    6        5.435679   1.000000
    7        5.568852   1.000000
    8        7.365022   1.000000
    9        8.150554   1.000000
   10        8.388046   1.000000
   11        9.038067   1.000000
   12        9.058560   1.000000
   13        9.060293   1.000000
   14        9.499624   1.000000
   15        9.726059   1.000000
   16       10.372690   1.000000
   17       10.548816   1.000000
   18       10.963682   1.000114
   19       11.144382   1.006548
   20       11.425851   0.942355
   21       11.905990  -0.016517
   22       13.649755  -0.000000
   23       16.859402  -0.000000
   24       16.924815  -0.000000
   25       20.702776   0.000000
   26       21.725682   0.000000
   27       23.058404   0.000000
   28       23.129356   0.000000
   29       23.497442   0.000000
   30       24.984184   0.000000
 
  0.0000000E+00  0.2727273E+00  0.0000000E+00  0.1502630E-02
    1        2.194933   1.000000
    2        4.130424   1.000000
    3        4.829594   1.000000
    4        5.020338   1.000000
    5        5.311836   1.000000
    6        5.429648   1.000000
    7        5.623899   1.000000
    8        7.579492   1.000000
    9        8.262226   1.000000
   10        8.265363   1.000000
   11        9.023183   1.000000
   12        9.030543   1.000000
   13        9.113078   1.000000
   14        9.658086   1.000000
   15       10.098346   1.000000
   16       10.441092   1.000000
   17       10.803302   1.000001
   18       10.928004   1.000041
   19       11.195320   1.014218
   20       11.311999   1.035457
   21       11.540718   0.566285
   22       11.962920  -0.007189
   23       17.032743   0.000000
   24       17.087762   0.000000
   25       20.397621   0.000000
   26       22.402012   0.000000
   27       22.932383   0.000000
   28       23.100371   0.000000
   29       24.127845   0.000000
   30       24.321536   0.000000
 
  0.0000000E+00  0.0000000E+00  0.2727273E+00  0.1502630E-02
    1        2.204351   1.000000
    2        4.154847   1.000000
    3        5.048338   1.000000
    4        5.226166   1.000000
    5        5.333142   1.000000
    6        5.333332   1.000000
    7        5.346901   1.000000
    8        7.310280   1.000000
    9        8.159018   1.000000
   10        8.389931   1.000000
   11        9.017187   1.000000
   12        9.019579   1.000000
   13        9.131341   1.000000
   14        9.607304   1.000000
   15        9.837762   1.000000
   16       10.526251   1.000000
   17       10.724441   1.000000
   18       10.753153   1.000000
   19       11.066889   1.001458
   20       11.267435   1.030018
   21       11.601970   0.312759
   22       12.904735  -0.000000
   23       17.035905   0.000000
   24       17.051320   0.000000
   25       19.958637   0.000000
   26       22.747859   0.000000
   27       22.976252   0.000000
   28       23.218059   0.000000
   29       24.019519   0.000000
   30       24.484771   0.000000
 
  0.3636364E+00  0.0000000E+00  0.0000000E+00  0.1502630E-02
    1        2.658643   1.000000
    2        4.479422   1.000000
    3        5.022467   1.000000
    4        5.184303   1.000000
    5        5.808771   1.000000
    6        5.884099   1.000000
    7        6.016192   1.000000
    8        7.086624   1.000000
    9        7.928726   1.000000
   10        8.122732   1.000000
   11        8.644825   1.000000
   12        8.718685   1.000000
   13        8.757040   1.000000
   14        9.248420   1.000000
   15        9.467292   1.000000
   16        9.575059   1.000000
   17       10.364858   1.000000
   18       10.482868   1.000000
   19       10.577305   1.000000
   20       10.929822   1.000044
   21       11.802320  -0.035455
   22       13.648788  -0.000000
   23       18.186637   0.000000
   24       18.295106   0.000000
   25       20.255905   0.000000
   26       21.754395   0.000000
   27       22.170832   0.000000
   28       22.324410   0.000000
   29       22.692209   0.000000
   30       25.489656   0.000000
 
  0.0000000E+00  0.3636364E+00  0.0000000E+00  0.1502630E-02
    1        2.923255   1.000000
    2        4.468552   1.000000
    3        4.863501   1.000000
    4        5.209551   1.000000
    5        5.787893   1.000000
    6        5.854915   1.000000
    7        6.128209   1.000000
    8        7.334201   1.000000
    9        8.299442   1.000000
   10        8.308760   1.000000
   11        8.580609   1.000000
   12        8.604387   1.000000
   13        8.777281   1.000000
   14        9.172564   1.000000
   15        9.619129   1.000000
   16       10.169413   1.000000
   17       10.199148   1.000000
   18       10.256651   1.000000
   19       10.474416   1.000000
   20       10.795242   1.000001
   21       11.502220   0.720334
   22       11.955010  -0.008181
   23       18.347864   0.000000
   24       18.407090   0.000000
   25       20.016590   0.000000
   26       22.020957   0.000000
   27       22.232472   0.000000
   28       22.251027   0.000000
   29       24.014485   0.000000
   30       24.257283   0.000000
 
  0.0000000E+00  0.0000000E+00  0.3636364E+00  0.1502630E-02
    1        2.946329   1.000000
    2        4.478892   1.000000
    3        5.115588   1.000000
    4        5.491523   1.000000
    5        5.761027   1.000000
    6        5.842475   1.000000
    7        5.849138   1.000000
    8        6.977820   1.000000
    9        7.935764   1.000000
   10        8.141907   1.000000
   11        8.689319   1.000000
   12        8.731249   1.000000
   13        8.739939   1.000000
   14        9.266041   1.000000
   15        9.499508   1.000000
   16        9.703359   1.000000
   17       10.257670   1.000000
   18       10.386109   1.000000
   19       10.706946   1.000000
   20       10.778288   1.000000
   21       11.326395   1.034512
   22       12.893292  -0.000000
   23       18.303390   0.000000
   24       18.483343   0.000000
   25       19.529515   0.000000
   26       22.014205   0.000000
   27       22.392581   0.000000
   28       22.742929   0.000000
   29       23.528809   0.000000
   30       24.701802   0.000000
 
  0.4545455E+00  0.0000000E+00  0.0000000E+00  0.1502630E-02
    1        3.119884   1.000000
    2        4.792121   1.000000
    3        4.980359   1.000000
    4        5.340368   1.000000
    5        6.346234   1.000000
    6        6.361875   1.000000
    7        6.383654   1.000000
    8        6.887459   1.000000
    9        7.326016   1.000000
   10        7.340605   1.000000
   11        8.534082   1.000000
   12        8.698668   1.000000
   13        8.876289   1.000000
   14        8.884163   1.000000
   15        9.091997   1.000000
   16        9.589966   1.000000
   17       10.127554   1.000000
   18       10.172029   1.000000
   19       10.361551   1.000000
   20       10.570615   1.000000
   21       11.756034  -0.024917
   22       13.648233  -0.000000
   23       19.408604   0.000000
   24       19.524451   0.000000
   25       20.032901   0.000000
   26       21.150989   0.000000
   27       21.351781   0.000000
   28       21.878796   0.000000
   29       22.167136   0.000000
   30       25.683412   0.000000
 
  0.0000000E+00  0.4545455E+00  0.0000000E+00  0.1502630E-02
    1        3.658432   1.000000
    2        4.409245   1.000000
    3        4.938248   1.000000
    4        5.345874   1.000000
    5        6.253318   1.000000
    6        6.266613   1.000000
    7        6.526656   1.000000
    8        7.164855   1.000000
    9        7.693566   1.000000
   10        7.722484   1.000000
   11        8.401658   1.000000
   12        8.780571   1.000000
   13        8.969848   1.000000
   14        8.971049   1.000000
   15        9.433659   1.000000
   16        9.601998   1.000000
   17        9.631476   1.000000
   18        9.990208   1.000000
   19       10.263876   1.000000
   20       10.511157   1.000000
   21       11.479801   0.799389
   22       11.951212  -0.008691
   23       19.601437   0.000000
   24       19.777014   0.000000
   25       19.826220   0.000000
   26       20.911434   0.000000
   27       21.096595   0.000000
   28       22.120604   0.000000
   29       23.883422   0.000000
   30       24.291194   0.000000
 
  0.0000000E+00  0.0000000E+00  0.4545455E+00  0.1502630E-02
    1        3.733932   1.000000
    2        4.349691   1.000000
    3        5.245368   1.000000
    4        5.727686   1.000000
    5        6.069509   1.000000
    6        6.442054   1.000000
    7        6.457569   1.000000
    8        6.701864   1.000000
    9        7.261537   1.000000
   10        7.313229   1.000000
   11        8.471603   1.000000
   12        8.687635   1.000000
   13        8.962234   1.000000
   14        8.964516   1.000000
   15        9.153965   1.000000
   16        9.754605   1.000000
   17        9.857927   1.000000
   18        9.881467   1.000000
   19       10.358526   1.000000
   20       10.697309   1.000000
   21       11.236093   1.022986
   22       12.886675  -0.000000
   23       19.317904   0.000000
   24       19.574495   0.000000
   25       19.897273   0.000000
   26       20.872716   0.000000
   27       21.231452   0.000000
   28       22.734271   0.000000
   29       23.265873   0.000000
   30       24.790442   0.000000
 
  0.9090909E-01  0.9090909E-01  0.0000000E+00  0.3005259E-02
    1        1.364781   1.000000
    2        3.609982   1.000000
    3        4.692537   1.000000
    4        4.745307   1.000000
    5        4.813767   1.000000
    6        4.937824   1.000000
    7        5.035836   1.000000
    8        7.812684   1.000000
    9        7.935553   1.000000
   10        8.043083   1.000000
   11        9.360724   1.000000
   12        9.524485   1.000000
   13       10.158365   1.000000
   14       10.253361   1.000000
   15       10.480394   1.000000
   16       11.140132   1.006089
   17       11.621901   0.238763
   18       11.706889   0.023194
   19       11.770669  -0.031023
   20       12.116561  -0.000273
   21       12.969704  -0.000000
   22       13.639055  -0.000000
   23       14.262501  -0.000000
   24       15.092163  -0.000000
   25       21.593673   0.000000
   26       22.393746   0.000000
   27       22.798116   0.000000
   28       23.560178   0.000000
   29       23.678058   0.000000
   30       24.721504   0.000000
 
  0.0000000E+00  0.9090909E-01  0.9090909E-01  0.3005259E-02
    1        1.375600   1.000000
    2        3.619031   1.000000
    3        4.701042   1.000000
    4        4.800714   1.000000
    5        4.801096   1.000000
    6        4.949195   1.000000
    7        4.977889   1.000000
    8        7.799101   1.000000
    9        7.945334   1.000000
   10        8.041961   1.000000
   11        9.337601   1.000000
   12        9.557500   1.000000
   13       10.013596   1.000000
   14       10.438130   1.000000
   15       10.520515   1.000000
   16       11.298053   1.034824
   17       11.568751   0.448003
   18       11.587098   0.371940
   19       11.877751  -0.022762
   20       12.061488  -0.001034
   21       12.541537  -0.000000
   22       13.613209  -0.000000
   23       14.677667  -0.000000
   24       14.941019  -0.000000
   25       21.584062   0.000000
   26       21.935123   0.000000
   27       23.368402   0.000000
   28       23.375902   0.000000
   29       24.089794   0.000000
   30       24.421185   0.000000
 
  0.9090909E-01  0.0000000E+00  0.9090909E-01  0.3005259E-02
    1        1.365428   1.000000
    2        3.612845   1.000000
    3        4.716080   1.000000
    4        4.750341   1.000000
    5        4.848898   1.000000
    6        4.947565   1.000000
    7        4.968935   1.000000
    8        7.743175   1.000000
    9        7.927232   1.000000
   10        8.103416   1.000000
   11        9.384979   1.000000
   12        9.493709   1.000000
   13       10.104620   1.000000
   14       10.420523   1.000000
   15       10.583812   1.000000
   16       10.903966   1.000020
   17       11.053177   1.001076
   18       11.730049  -0.005469
   19       12.171274  -0.000061
   20       12.294721  -0.000001
   21       13.123645  -0.000000
   22       13.778013  -0.000000
   23       13.993378  -0.000000
   24       15.085279  -0.000000
   25       21.427743   0.000000
   26       22.462044   0.000000
   27       22.803639   0.000000
   28       23.649141   0.000000
   29       23.787985   0.000000
   30       24.658730   0.000000
 
  0.1818182E+00  0.9090909E-01  0.0000000E+00  0.3005259E-02
    1        1.687949   1.000000
    2        3.835904   1.000000
    3        4.843360   1.000000
    4        4.859192   1.000000
    5        5.029697   1.000000
    6        5.110459   1.000000
    7        5.288798   1.000000
    8        7.617992   1.000000
    9        8.031157   1.000000
   10        8.183654   1.000000
   11        9.300229   1.000000
   12        9.424946   1.000000
   13        9.631145   1.000000
   14        9.806962   1.000000
   15       10.180108   1.000000
   16       10.520741   1.000000
   17       10.879008   1.000009
   18       11.418657   0.955939
   19       11.534681   0.591456
   20       11.869205  -0.024740
   21       12.986196  -0.000000
   22       13.193018  -0.000000
   23       15.111635  -0.000000
   24       16.060111  -0.000000
   25       21.214437   0.000000
   26       22.079258   0.000000
   27       23.112227   0.000000
   28       23.726789   0.000000
   29       23.945089   0.000000
   30       24.788584   0.000000
 
  0.0000000E+00  0.1818182E+00  0.9090909E-01  0.3005259E-02
    1        1.731439   1.000000
    2        3.861044   1.000000
    3        4.796400   1.000000
    4        4.905338   1.000000
    5        5.008857   1.000000
    6        5.158087   1.000000
    7        5.262676   1.000000
    8        7.735422   1.000000
    9        8.059875   1.000000
   10        8.084629   1.000000
   11        9.218237   1.000000
   12        9.477923   1.000000
   13        9.671607   1.000000
   14        9.785975   1.000000
   15       10.447611   1.000000
   16       10.767463   1.000000
   17       11.196082   1.014363
   18       11.206461   1.016430
   19       11.513816   0.675884
   20       11.705015   0.026039
   21       12.066879  -0.000914
   22       12.969500  -0.000000
   23       15.503385  -0.000000
   24       16.037417  -0.000000
   25       21.031076   0.000000
   26       22.147606   0.000000
   27       23.174104   0.000000
   28       23.619127   0.000000
   29       24.476078   0.000000
   30       24.635678   0.000000
 
  0.9090909E-01  0.0000000E+00  0.1818182E+00  0.3005259E-02
    1        1.728250   1.000000
    2        3.863669   1.000000
    3        4.920673   1.000000
    4        4.958160   1.000000
    5        5.042702   1.000000
    6        5.108172   1.000000
    7        5.124907   1.000000
    8        7.556257   1.000000
    9        8.037305   1.000000
   10        8.209964   1.000000
   11        9.255711   1.000000
   12        9.494253   1.000000
   13        9.583892   1.000000
   14        9.971760   1.000000
   15       10.210821   1.000000
   16       10.442757   1.000000
   17       10.623138   1.000000
   18       11.525348   0.629802
   19       11.806982  -0.035342
   20       11.886643  -0.020726
   21       12.764090  -0.000000
   22       12.807357  -0.000000
   23       15.158462  -0.000000
   24       16.158386  -0.000000
   25       20.684840   0.000000
   26       22.790346   0.000000
   27       23.219064   0.000000
   28       23.805766   0.000000
   29       23.861191   0.000000
   30       24.579053   0.000000
 
 -0.9090909E-01  0.1818182E+00  0.0000000E+00  0.3005259E-02
    1        1.725408   1.000000
    2        3.851635   1.000000
    3        4.804412   1.000000
    4        4.896083   1.000000
    5        5.004024   1.000000
    6        5.118518   1.000000
    7        5.302297   1.000000
    8        7.741649   1.000000
    9        8.053011   1.000000
   10        8.088622   1.000000
   11        9.227089   1.000000
   12        9.501317   1.000000
   13        9.632047   1.000000
   14        9.771400   1.000000
   15       10.381483   1.000000
   16       10.694631   1.000000
   17       11.146850   1.006826
   18       11.305126   1.035309
   19       11.680754   0.070534
   20       11.769019  -0.030484
   21       12.195263  -0.000030
   22       12.830834  -0.000000
   23       15.263977  -0.000000
   24       16.187490  -0.000000
   25       20.963587   0.000000
   26       22.626532   0.000000
   27       23.203949   0.000000
   28       23.653272   0.000000
   29       23.803127   0.000000
   30       24.549849   0.000000
 
 -0.1818182E+00  0.0000000E+00  0.9090909E-01  0.3005259E-02
    1        1.688142   1.000000
    2        3.839188   1.000000
    3        4.840799   1.000000
    4        4.860407   1.000000
    5        5.044478   1.000000
    6        5.158393   1.000000
    7        5.236829   1.000000
    8        7.576064   1.000000
    9        8.032266   1.000000
   10        8.209661   1.000000
   11        9.320448   1.000000
   12        9.414179   1.000000
   13        9.652757   1.000000
   14        9.865389   1.000000
   15       10.142624   1.000000
   16       10.398655   1.000000
   17       10.574942   1.000000
   18       11.577181   0.412748
   19       11.723843   0.001076
   20       12.015768  -0.002736
   21       12.908324  -0.000000
   22       13.230462  -0.000000
   23       15.048798  -0.000000
   24       16.047002  -0.000000
   25       21.156808   0.000000
   26       22.111391   0.000000
   27       23.107370   0.000000
   28       23.823606   0.000000
   29       23.921405   0.000000
   30       24.784788   0.000000
 
  0.0000000E+00  0.9090909E-01  0.1818182E+00  0.3005259E-02
    1        1.734103   1.000000
    2        3.869630   1.000000
    3        4.917651   1.000000
    4        4.985392   1.000000
    5        4.993171   1.000000
    6        5.114695   1.000000
    7        5.140552   1.000000
    8        7.591959   1.000000
    9        8.038832   1.000000
   10        8.184141   1.000000
   11        9.236051   1.000000
   12        9.465656   1.000000
   13        9.602285   1.000000
   14        9.918655   1.000000
   15       10.297561   1.000000
   16       10.803487   1.000001
   17       10.855328   1.000004
   18       11.241132   1.024152
   19       11.427930   0.938190
   20       11.663445   0.111269
   21       12.657339  -0.000000
   22       13.016364  -0.000000
   23       15.458227  -0.000000
   24       16.022288  -0.000000
   25       20.745994   0.000000
   26       22.351468   0.000000
   27       23.181666   0.000000
   28       23.672371   0.000000
   29       24.450072   0.000000
   30       24.874318   0.000000
 
  0.2727273E+00  0.9090909E-01  0.0000000E+00  0.3005259E-02
    1        2.185851   1.000000
    2        4.175284   1.000000
    3        5.006904   1.000000
    4        5.039254   1.000000
    5        5.377129   1.000000
    6        5.426442   1.000000
    7        5.668893   1.000000
    8        7.355164   1.000000
    9        8.122141   1.000000
   10        8.387726   1.000000
   11        8.879207   1.000000
   12        8.976004   1.000000
   13        9.067063   1.000000
   14        9.450448   1.000000
   15        9.753829   1.000000
   16       10.053286   1.000000
   17       10.349251   1.000000
   18       10.973731   1.000150
   19       11.135540   1.005622
   20       11.625454   0.226349
   21       12.167895  -0.000068
   22       13.276511  -0.000000
   23       16.263619  -0.000000
   24       17.301549   0.000000
   25       20.558638   0.000000
   26       21.970015   0.000000
   27       22.293241   0.000000
   28       23.388868   0.000000
   29       24.564286   0.000000
   30       25.257640   0.000000
 
  0.0000000E+00  0.2727273E+00  0.9090909E-01  0.3005259E-02
    1        2.295448   1.000000
    2        4.214969   1.000000
    3        4.898302   1.000000
    4        5.072060   1.000000
    5        5.343666   1.000000
    6        5.482806   1.000000
    7        5.701337   1.000000
    8        7.536410   1.000000
    9        8.241838   1.000000
   10        8.280800   1.000000
   11        8.875871   1.000000
   12        9.032660   1.000000
   13        9.056895   1.000000
   14        9.627568   1.000000
   15        9.731437   1.000000
   16       10.377126   1.000000
   17       10.607653   1.000000
   18       10.725292   1.000000
   19       11.169913   1.009878
   20       11.477098   0.808217
   21       11.882742  -0.021615
   22       12.015468  -0.002752
   23       16.581968  -0.000000
   24       17.296820   0.000000
   25       20.380135   0.000000
   26       21.903158   0.000000
   27       22.985160   0.000000
   28       23.336497   0.000000
   29       24.417739   0.000000
   30       25.071431   0.000000
 
  0.9090909E-01  0.0000000E+00  0.2727273E+00  0.3005259E-02
    1        2.304061   1.000000
    2        4.231227   1.000000
    3        5.113403   1.000000
    4        5.230110   1.000000
    5        5.297880   1.000000
    6        5.428609   1.000000
    7        5.503819   1.000000
    8        7.273544   1.000000
    9        8.181523   1.000000
   10        8.372063   1.000000
   11        8.876975   1.000000
   12        8.967263   1.000000
   13        9.062478   1.000000
   14        9.540195   1.000000
   15        9.742402   1.000000
   16        9.916872   1.000000
   17       10.617093   1.000000
   18       11.091042   1.002422
   19       11.161581   1.008680
   20       11.541743   0.561990
   21       11.712104   0.015705
   22       12.682488  -0.000000
   23       16.443521  -0.000000
   24       17.334874   0.000000
   25       20.036513   0.000000
   26       22.296989   0.000000
   27       23.207595   0.000000
   28       23.226193   0.000000
   29       24.424264   0.000000
   30       24.790027   0.000000
 
 -0.9090909E-01  0.2727273E+00  0.0000000E+00  0.3005259E-02
    1        2.296349   1.000000
    2        4.204862   1.000000
    3        4.910368   1.000000
    4        5.073467   1.000000
    5        5.361200   1.000000
    6        5.433489   1.000000
    7        5.713782   1.000000