<?xml version="1.0" encoding="ISO-8859-1"?>
<modeling>
 <generator>
  <i name="program" type="string">vasp </i>
  <i name="version" type="string">6.2.0  </i>
  <i name="subversion" type="string">18Jan21 (build Mar 17 2021 09:06:54) complex                          serial </i>
  <i name="platform" type="string">LinuxIFC </i>
  <i name="date" type="string">2021 06 11 </i>
  <i name="time" type="string">11:36:40 </i>
 </generator>
 <incar>
  <i type="string" name="PREC">normal</i>
  <i type="int" name="ICHARG">     1</i>
  <i type="int" name="IBRION">     1</i>
  <i name="EDIFF">      0.00000100</i>
  <i type="int" name="NSW">     0</i>
  <i type="int" name="ISIF">     2</i>
  <i name="ENCUT">    270.00000000</i>
  <i type="int" name="NBANDS">    30</i>
  <i type="int" name="ISMEAR">     1</i>
  <i name="SIGMA">      0.20000000</i>
  <i type="logical" name="LCHARG"> T  </i>
  <i type="int" name="KPAR">     1</i>
  <i type="int" name="NCORE">     1</i>
  <i type="string" name="GGA">PE</i>
 </incar>
 <primitive_cell>
  <structure name="primitive_cell" >
   <crystal>
    <varray name="basis" >
     <v>       3.69460076       0.00000000       0.00000000 </v>
     <v>       0.00000000       3.69460076       0.00000000 </v>
     <v>       0.00000000       0.00000000       3.69460076 </v>
    </varray>
    <i name="volume">     50.43157652 </i>
    <varray name="rec_basis" >
     <v>       0.27066524       0.00000000       0.00000000 </v>
     <v>       0.00000000       0.27066524       0.00000000 </v>
     <v>       0.00000000       0.00000000       0.27066524 </v>
    </varray>
   </crystal>
   <varray name="positions" >
    <v>       0.00000000       0.00000000       0.00000000 </v>
    <v>       0.50000000       0.50000000       0.00000000 </v>
    <v>       0.50000000       0.00000000       0.50000000 </v>
    <v>       0.00000000       0.50000000       0.50000000 </v>
   </varray>
  </structure>
  <varray name="primitive_index" >
   <v type="int" >        1 </v>
   <v type="int" >        2 </v>
   <v type="int" >        3 </v>
   <v type="int" >        4 </v>
  </varray>
 </primitive_cell>
 <kpoints>
  <generation param="Monkhorst-Pack">
   <v type="int" name="divisions">      11       11       11 </v>
   <v name="usershift">      0.00000000       0.00000000       0.00000000 </v>
   <v name="genvec1">      0.09090909       0.00000000       0.00000000 </v>
   <v name="genvec2">      0.00000000       0.09090909       0.00000000 </v>
   <v name="genvec3">      0.00000000       0.00000000       0.09090909 </v>
   <v name="shift">      0.00000000       0.00000000       0.00000000 </v>
  </generation>
  <varray name="kpointlist" >
   <v>       0.00000000       0.00000000       0.00000000 </v>
   <v>       0.09090909       0.00000000       0.00000000 </v>
   <v>       0.00000000       0.09090909       0.00000000 </v>
   <v>       0.00000000       0.00000000       0.09090909 </v>
   <v>       0.18181818       0.00000000       0.00000000 </v>
   <v>       0.00000000       0.18181818       0.00000000 </v>
   <v>       0.00000000       0.00000000       0.18181818 </v>
   <v>       0.27272727       0.00000000       0.00000000 </v>
   <v>       0.00000000       0.27272727       0.00000000 </v>
   <v>       0.00000000       0.00000000       0.27272727 </v>
   <v>       0.36363636       0.00000000       0.00000000 </v>
   <v>       0.00000000       0.36363636       0.00000000 </v>
   <v>       0.00000000       0.00000000       0.36363636 </v>
   <v>       0.45454545       0.00000000       0.00000000 </v>
   <v>       0.00000000       0.45454545       0.00000000 </v>
   <v>       0.00000000       0.00000000       0.45454545 </v>
   <v>       0.09090909       0.09090909       0.00000000 </v>
   <v>       0.00000000       0.09090909       0.09090909 </v>
   <v>       0.09090909       0.00000000       0.09090909 </v>
   <v>       0.18181818       0.09090909       0.00000000 </v>
   <v>       0.00000000       0.18181818       0.09090909 </v>
   <v>       0.09090909       0.00000000       0.18181818 </v>
   <v>      -0.09090909       0.18181818       0.00000000 </v>
   <v>      -0.18181818       0.00000000       0.09090909 </v>
   <v>       0.00000000       0.09090909       0.18181818 </v>
   <v>       0.27272727       0.09090909       0.00000000 </v>
   <v>       0.00000000       0.27272727       0.09090909 </v>
   <v>       0.09090909       0.00000000       0.27272727 </v>
   <v>      -0.09090909       0.27272727       0.00000000 </v>
   <v>      -0.27272727       0.00000000       0.09090909 </v>
   <v>       0.00000000       0.09090909       0.27272727 </v>
   <v>       0.36363636       0.09090909       0.00000000 </v>
   <v>       0.00000000       0.36363636       0.09090909 </v>
   <v>       0.09090909       0.00000000       0.36363636 </v>
   <v>      -0.09090909       0.36363636       0.00000000 </v>
   <v>      -0.36363636       0.00000000       0.09090909 </v>
   <v>       0.00000000       0.09090909       0.36363636 </v>
   <v>       0.45454545       0.09090909       0.00000000 </v>
   <v>       0.00000000       0.45454545       0.09090909 </v>
   <v>       0.09090909       0.00000000       0.45454545 </v>
   <v>      -0.09090909       0.45454545       0.00000000 </v>
   <v>      -0.45454545       0.00000000       0.09090909 </v>
   <v>       0.00000000       0.09090909       0.45454545 </v>
   <v>       0.18181818       0.18181818       0.00000000 </v>
   <v>       0.00000000       0.18181818       0.18181818 </v>
   <v>       0.18181818       0.00000000       0.18181818 </v>
   <v>       0.27272727       0.18181818       0.00000000 </v>
   <v>       0.00000000       0.27272727       0.18181818 </v>
   <v>       0.18181818       0.00000000       0.27272727 </v>
   <v>      -0.18181818       0.27272727       0.00000000 </v>
   <v>      -0.27272727       0.00000000       0.18181818 </v>
   <v>       0.00000000       0.18181818       0.27272727 </v>
   <v>       0.36363636       0.18181818       0.00000000 </v>
   <v>       0.00000000       0.36363636       0.18181818 </v>
   <v>       0.18181818       0.00000000       0.36363636 </v>
   <v>      -0.18181818       0.36363636       0.00000000 </v>
   <v>      -0.36363636       0.00000000       0.18181818 </v>
   <v>       0.00000000       0.18181818       0.36363636 </v>
   <v>       0.45454545       0.18181818       0.00000000 </v>
   <v>       0.00000000       0.45454545       0.18181818 </v>
   <v>       0.18181818       0.00000000       0.45454545 </v>
   <v>      -0.18181818       0.45454545       0.00000000 </v>
   <v>      -0.45454545       0.00000000       0.18181818 </v>
   <v>       0.00000000       0.18181818       0.45454545 </v>
   <v>       0.27272727       0.27272727       0.00000000 </v>
   <v>       0.00000000       0.27272727       0.27272727 </v>
   <v>       0.27272727       0.00000000       0.27272727 </v>
   <v>       0.36363636       0.27272727       0.00000000 </v>
   <v>       0.00000000       0.36363636       0.27272727 </v>
   <v>       0.27272727       0.00000000       0.36363636 </v>
   <v>      -0.27272727       0.36363636       0.00000000 </v>
   <v>      -0.36363636       0.00000000       0.27272727 </v>
   <v>       0.00000000       0.27272727       0.36363636 </v>
   <v>       0.45454545       0.27272727       0.00000000 </v>
   <v>       0.00000000       0.45454545       0.27272727 </v>
   <v>       0.27272727       0.00000000       0.45454545 </v>
   <v>      -0.27272727       0.45454545       0.00000000 </v>
   <v>      -0.45454545       0.00000000       0.27272727 </v>
   <v>       0.00000000       0.27272727       0.45454545 </v>
   <v>       0.36363636       0.36363636       0.00000000 </v>
   <v>       0.00000000       0.36363636       0.36363636 </v>
   <v>       0.36363636       0.00000000       0.36363636 </v>
   <v>       0.45454545       0.36363636       0.00000000 </v>
   <v>       0.00000000       0.45454545       0.36363636 </v>
   <v>       0.36363636       0.00000000       0.45454545 </v>
   <v>      -0.36363636       0.45454545       0.00000000 </v>
   <v>      -0.45454545       0.00000000       0.36363636 </v>
   <v>       0.00000000       0.36363636       0.45454545 </v>
   <v>       0.45454545       0.45454545       0.00000000 </v>
   <v>       0.00000000       0.45454545       0.45454545 </v>
   <v>       0.45454545       0.00000000       0.45454545 </v>
   <v>       0.09090909       0.09090909       0.09090909 </v>
   <v>       0.18181818       0.09090909       0.09090909 </v>
   <v>       0.09090909       0.18181818       0.09090909 </v>
   <v>       0.09090909       0.09090909       0.18181818 </v>
   <v>       0.27272727       0.09090909       0.09090909 </v>
   <v>       0.09090909       0.27272727       0.09090909 </v>
   <v>       0.09090909       0.09090909       0.27272727 </v>
   <v>       0.36363636       0.09090909       0.09090909 </v>
   <v>       0.09090909       0.36363636       0.09090909 </v>
   <v>       0.09090909       0.09090909       0.36363636 </v>
   <v>       0.45454545       0.09090909       0.09090909 </v>
   <v>       0.09090909       0.45454545       0.09090909 </v>
   <v>       0.09090909       0.09090909       0.45454545 </v>
   <v>       0.18181818       0.18181818       0.09090909 </v>
   <v>       0.09090909       0.18181818       0.18181818 </v>
   <v>       0.18181818       0.09090909       0.18181818 </v>
   <v>       0.27272727       0.18181818       0.09090909 </v>
   <v>       0.09090909       0.27272727       0.18181818 </v>
   <v>       0.18181818       0.09090909       0.27272727 </v>
   <v>      -0.18181818       0.27272727       0.09090909 </v>
   <v>      -0.27272727       0.09090909       0.18181818 </v>
   <v>      -0.09090909       0.18181818       0.27272727 </v>
   <v>       0.36363636       0.18181818       0.09090909 </v>
   <v>       0.09090909       0.36363636       0.18181818 </v>
   <v>       0.18181818       0.09090909       0.36363636 </v>
   <v>      -0.18181818       0.36363636       0.09090909 </v>
   <v>      -0.36363636       0.09090909       0.18181818 </v>
   <v>      -0.09090909       0.18181818       0.36363636 </v>
   <v>       0.45454545       0.18181818       0.09090909 </v>
   <v>       0.09090909       0.45454545       0.18181818 </v>
   <v>       0.18181818       0.09090909       0.45454545 </v>
   <v>      -0.18181818       0.45454545       0.09090909 </v>
   <v>      -0.45454545       0.09090909       0.18181818 </v>
   <v>      -0.09090909       0.18181818       0.45454545 </v>
   <v>       0.27272727       0.27272727       0.09090909 </v>
   <v>       0.09090909       0.27272727       0.27272727 </v>
   <v>       0.27272727       0.09090909       0.27272727 </v>
   <v>       0.36363636       0.27272727       0.09090909 </v>
   <v>       0.09090909       0.36363636       0.27272727 </v>
   <v>       0.27272727       0.09090909       0.36363636 </v>
   <v>      -0.27272727       0.36363636       0.09090909 </v>
   <v>      -0.36363636       0.09090909       0.27272727 </v>
   <v>      -0.09090909       0.27272727       0.36363636 </v>
   <v>       0.45454545       0.27272727       0.09090909 </v>
   <v>       0.09090909       0.45454545       0.27272727 </v>
   <v>       0.27272727       0.09090909       0.45454545 </v>
   <v>      -0.27272727       0.45454545       0.09090909 </v>
   <v>      -0.45454545       0.09090909       0.27272727 </v>
   <v>      -0.09090909       0.27272727       0.45454545 </v>
   <v>       0.36363636       0.36363636       0.09090909 </v>
   <v>       0.09090909       0.36363636       0.36363636 </v>
   <v>       0.36363636       0.09090909       0.36363636 </v>
   <v>       0.45454545       0.36363636       0.09090909 </v>
   <v>       0.09090909       0.45454545       0.36363636 </v>
   <v>       0.36363636       0.09090909       0.45454545 </v>
   <v>      -0.36363636       0.45454545       0.09090909 </v>
   <v>      -0.45454545       0.09090909       0.36363636 </v>
   <v>      -0.09090909       0.36363636       0.45454545 </v>
   <v>       0.45454545       0.45454545       0.09090909 </v>
   <v>       0.09090909       0.45454545       0.45454545 </v>
   <v>       0.45454545       0.09090909       0.45454545 </v>
   <v>       0.18181818       0.18181818       0.18181818 </v>
   <v>       0.27272727       0.18181818       0.18181818 </v>
   <v>       0.18181818       0.27272727       0.18181818 </v>
   <v>       0.18181818       0.18181818       0.27272727 </v>
   <v>       0.36363636       0.18181818       0.18181818 </v>
   <v>       0.18181818       0.36363636       0.18181818 </v>
   <v>       0.18181818       0.18181818       0.36363636 </v>
   <v>       0.45454545       0.18181818       0.18181818 </v>
   <v>       0.18181818       0.45454545       0.18181818 </v>
   <v>       0.18181818       0.18181818       0.45454545 </v>
   <v>       0.27272727       0.27272727       0.18181818 </v>
   <v>       0.18181818       0.27272727       0.27272727 </v>
   <v>       0.27272727       0.18181818       0.27272727 </v>
   <v>       0.36363636       0.27272727       0.18181818 </v>
   <v>       0.18181818       0.36363636       0.27272727 </v>
   <v>       0.27272727       0.18181818       0.36363636 </v>
   <v>      -0.27272727       0.36363636       0.18181818 </v>
   <v>      -0.36363636       0.18181818       0.27272727 </v>
   <v>      -0.18181818       0.27272727       0.36363636 </v>
   <v>       0.45454545       0.27272727       0.18181818 </v>
   <v>       0.18181818       0.45454545       0.27272727 </v>
   <v>       0.27272727       0.18181818       0.45454545 </v>
   <v>      -0.27272727       0.45454545       0.18181818 </v>
   <v>      -0.45454545       0.18181818       0.27272727 </v>
   <v>      -0.18181818       0.27272727       0.45454545 </v>
   <v>       0.36363636       0.36363636       0.18181818 </v>
   <v>       0.18181818       0.36363636       0.36363636 </v>
   <v>       0.36363636       0.18181818       0.36363636 </v>
   <v>       0.45454545       0.36363636       0.18181818 </v>
   <v>       0.18181818       0.45454545       0.36363636 </v>
   <v>       0.36363636       0.18181818       0.45454545 </v>
   <v>      -0.36363636       0.45454545       0.18181818 </v>
   <v>      -0.45454545       0.18181818       0.36363636 </v>
   <v>      -0.18181818       0.36363636       0.45454545 </v>
   <v>       0.45454545       0.45454545       0.18181818 </v>
   <v>       0.18181818       0.45454545       0.45454545 </v>
   <v>       0.45454545       0.18181818       0.45454545 </v>
   <v>       0.27272727       0.27272727       0.27272727 </v>
   <v>       0.36363636       0.27272727       0.27272727 </v>
   <v>       0.27272727       0.36363636       0.27272727 </v>
   <v>       0.27272727       0.27272727       0.36363636 </v>
   <v>       0.45454545       0.27272727       0.27272727 </v>
   <v>       0.27272727       0.45454545       0.27272727 </v>
   <v>       0.27272727       0.27272727       0.45454545 </v>
   <v>       0.36363636       0.36363636       0.27272727 </v>
   <v>       0.27272727       0.36363636       0.36363636 </v>
   <v>       0.36363636       0.27272727       0.36363636 </v>
   <v>       0.45454545       0.36363636       0.27272727 </v>
   <v>       0.27272727       0.45454545       0.36363636 </v>
   <v>       0.36363636       0.27272727       0.45454545 </v>
   <v>      -0.36363636       0.45454545       0.27272727 </v>
   <v>      -0.45454545       0.27272727       0.36363636 </v>
   <v>      -0.27272727       0.36363636       0.45454545 </v>
   <v>       0.45454545       0.45454545       0.27272727 </v>
   <v>       0.27272727       0.45454545       0.45454545 </v>
   <v>       0.45454545       0.27272727       0.45454545 </v>
   <v>       0.36363636       0.36363636       0.36363636 </v>
   <v>       0.45454545       0.36363636       0.36363636 </v>
   <v>       0.36363636       0.45454545       0.36363636 </v>
   <v>       0.36363636       0.36363636       0.45454545 </v>
   <v>       0.45454545       0.45454545       0.36363636 </v>
   <v>       0.36363636       0.45454545       0.45454545 </v>
   <v>       0.45454545       0.36363636       0.45454545 </v>
   <v>       0.45454545       0.45454545       0.45454545 </v>
  </varray>
  <varray name="weights" >
   <v>       0.00075131 </v>
   <v>       0.00150263 </v>
   <v>       0.00150263 </v>
   <v>       0.00150263 </v>
   <v>       0.00150263 </v>
   <v>       0.00150263 </v>
   <v>       0.00150263 </v>
   <v>       0.00150263 </v>
   <v>       0.00150263 </v>
   <v>       0.00150263 </v>
   <v>       0.00150263 </v>
   <v>       0.00150263 </v>
   <v>       0.00150263 </v>
   <v>       0.00150263 </v>
   <v>       0.00150263 </v>
   <v>       0.00150263 </v>
   <v>       0.00300526 </v>
   <v>       0.00300526 </v>
   <v>       0.00300526 </v>
   <v>       0.00300526 </v>
   <v>       0.00300526 </v>
   <v>       0.00300526 </v>
   <v>       0.00300526 </v>
   <v>       0.00300526 </v>
   <v>       0.00300526 </v>
   <v>       0.00300526 </v>
   <v>       0.00300526 </v>
   <v>       0.00300526 </v>
   <v>       0.00300526 </v>
   <v>       0.00300526 </v>
   <v>       0.00300526 </v>
   <v>       0.00300526 </v>
   <v>       0.00300526 </v>
   <v>       0.00300526 </v>
   <v>       0.00300526 </v>
   <v>       0.00300526 </v>
   <v>       0.00300526 </v>
   <v>       0.00300526 </v>
   <v>       0.00300526 </v>
   <v>       0.00300526 </v>
   <v>       0.00300526 </v>
   <v>       0.00300526 </v>
   <v>       0.00300526 </v>
   <v>       0.00300526 </v>
   <v>       0.00300526 </v>
   <v>       0.00300526 </v>
   <v>       0.00300526 </v>
   <v>       0.00300526 </v>
   <v>       0.00300526 </v>
   <v>       0.00300526 </v>
   <v>       0.00300526 </v>
   <v>       0.00300526 </v>
   <v>       0.00300526 </v>
   <v>       0.00300526 </v>
   <v>       0.00300526 </v>
   <v>       0.00300526 </v>
   <v>       0.00300526 </v>
   <v>       0.00300526 </v>
   <v>       0.00300526 </v>
   <v>       0.00300526 </v>
   <v>       0.00300526 </v>
   <v>       0.00300526 </v>
   <v>       0.00300526 </v>
   <v>       0.00300526 </v>
   <v>       0.00300526 </v>
   <v>       0.00300526 </v>
   <v>       0.00300526 </v>
   <v>       0.00300526 </v>
   <v>       0.00300526 </v>
   <v>       0.00300526 </v>
   <v>       0.00300526 </v>
   <v>       0.00300526 </v>
   <v>       0.00300526 </v>
   <v>       0.00300526 </v>
   <v>       0.00300526 </v>
   <v>       0.00300526 </v>
   <v>       0.00300526 </v>
   <v>       0.00300526 </v>
   <v>       0.00300526 </v>
   <v>       0.00300526 </v>
   <v>       0.00300526 </v>
   <v>       0.00300526 </v>
   <v>       0.00300526 </v>
   <v>       0.00300526 </v>
   <v>       0.00300526 </v>
   <v>       0.00300526 </v>
   <v>       0.00300526 </v>
   <v>       0.00300526 </v>
   <v>       0.00300526 </v>
   <v>       0.00300526 </v>
   <v>       0.00300526 </v>
   <v>       0.00601052 </v>
   <v>       0.00601052 </v>
   <v>       0.00601052 </v>
   <v>       0.00601052 </v>
   <v>       0.00601052 </v>
   <v>       0.00601052 </v>
   <v>       0.00601052 </v>
   <v>       0.00601052 </v>
   <v>       0.00601052 </v>
   <v>       0.00601052 </v>
   <v>       0.00601052 </v>
   <v>       0.00601052 </v>
   <v>       0.00601052 </v>
   <v>       0.00601052 </v>
   <v>       0.00601052 </v>
   <v>       0.00601052 </v>
   <v>       0.00601052 </v>
   <v>       0.00601052 </v>
   <v>       0.00601052 </v>
   <v>       0.00601052 </v>
   <v>       0.00601052 </v>
   <v>       0.00601052 </v>
   <v>       0.00601052 </v>
   <v>       0.00601052 </v>
   <v>       0.00601052 </v>
   <v>       0.00601052 </v>
   <v>       0.00601052 </v>
   <v>       0.00601052 </v>
   <v>       0.00601052 </v>
   <v>       0.00601052 </v>
   <v>       0.00601052 </v>
   <v>       0.00601052 </v>
   <v>       0.00601052 </v>
   <v>       0.00601052 </v>
   <v>       0.00601052 </v>
   <v>       0.00601052 </v>
   <v>       0.00601052 </v>
   <v>       0.00601052 </v>
   <v>       0.00601052 </v>
   <v>       0.00601052 </v>
   <v>       0.00601052 </v>
   <v>       0.00601052 </v>
   <v>       0.00601052 </v>
   <v>       0.00601052 </v>
   <v>       0.00601052 </v>
   <v>       0.00601052 </v>
   <v>       0.00601052 </v>
   <v>       0.00601052 </v>
   <v>       0.00601052 </v>
   <v>       0.00601052 </v>
   <v>       0.00601052 </v>
   <v>       0.00601052 </v>
   <v>       0.00601052 </v>
   <v>       0.00601052 </v>
   <v>       0.00601052 </v>
   <v>       0.00601052 </v>
   <v>       0.00601052 </v>
   <v>       0.00601052 </v>
   <v>       0.00601052 </v>
   <v>       0.00601052 </v>
   <v>       0.00601052 </v>
   <v>       0.00601052 </v>
   <v>       0.00601052 </v>
   <v>       0.00601052 </v>
   <v>       0.00601052 </v>
   <v>       0.00601052 </v>
   <v>       0.00601052 </v>
   <v>       0.00601052 </v>
   <v>       0.00601052 </v>
   <v>       0.00601052 </v>
   <v>       0.00601052 </v>
   <v>       0.00601052 </v>
   <v>       0.00601052 </v>
   <v>       0.00601052 </v>
   <v>       0.00601052 </v>
   <v>       0.00601052 </v>
   <v>       0.00601052 </v>
   <v>       0.00601052 </v>
   <v>       0.00601052 </v>
   <v>       0.00601052 </v>
   <v>       0.00601052 </v>
   <v>       0.00601052 </v>
   <v>       0.00601052 </v>
   <v>       0.00601052 </v>
   <v>       0.00601052 </v>
   <v>       0.00601052 </v>
   <v>       0.00601052 </v>
   <v>       0.00601052 </v>
   <v>       0.00601052 </v>
   <v>       0.00601052 </v>
   <v>       0.00601052 </v>
   <v>       0.00601052 </v>
   <v>       0.00601052 </v>
   <v>       0.00601052 </v>
   <v>       0.00601052 </v>
   <v>       0.00601052 </v>
   <v>       0.00601052 </v>
   <v>       0.00601052 </v>
   <v>       0.00601052 </v>
   <v>       0.00601052 </v>
   <v>       0.00601052 </v>
   <v>       0.00601052 </v>
   <v>       0.00601052 </v>
   <v>       0.00601052 </v>
   <v>       0.00601052 </v>
   <v>       0.00601052 </v>
   <v>       0.00601052 </v>
   <v>       0.00601052 </v>
   <v>       0.00601052 </v>
   <v>       0.00601052 </v>
   <v>       0.00601052 </v>
   <v>       0.00601052 </v>
   <v>       0.00601052 </v>
   <v>       0.00601052 </v>
   <v>       0.00601052 </v>
   <v>       0.00601052 </v>
   <v>       0.00601052 </v>
   <v>       0.00601052 </v>
   <v>       0.00601052 </v>
   <v>       0.00601052 </v>
   <v>       0.00601052 </v>
   <v>       0.00601052 </v>
   <v>       0.00601052 </v>
   <v>       0.00601052 </v>
   <v>       0.00601052 </v>
  </varray>
 </kpoints>
 <parameters>
  <separator name="general" >
   <i type="string" name="SYSTEM">unknown system</i>
   <i type="logical" name="LCOMPAT"> F  </i>
  </separator>
  <separator name="electronic" >
   <i type="string" name="PREC">normal</i>
   <i name="ENMAX">    270.00000000</i>
   <i name="ENAUG">    586.98000000</i>
   <i name="EDIFF">      0.00000100</i>
   <i type="int" name="IALGO">    38</i>
   <i type="int" name="IWAVPR">     0</i>
   <i type="int" name="NBANDS">    30</i>
   <i type="int" name="NBANDSLOW">    -1</i>
   <i type="int" name="NBANDSHIGH">    -1</i>
   <i name="NELECT">     40.00000000</i>
   <i type="int" name="TURBO">     0</i>
   <i type="int" name="IRESTART">     0</i>
   <i type="int" name="NREBOOT">     0</i>
   <i type="int" name="NMIN">     0</i>
   <i name="EREF">      0.00000000</i>
   <separator name="electronic smearing" >
    <i type="int" name="ISMEAR">     1</i>
    <i name="SIGMA">      0.20000000</i>
    <i name="KSPACING">      0.50000000</i>
    <i type="logical" name="KGAMMA"> T  </i>
    <i type="logical" name="KBLOWUP"> T  </i>
   </separator>
   <separator name="electronic projectors" >
    <i type="logical" name="LREAL"> F  </i>
    <v name="ROPT">      0.00000000      0.00000000      0.00000000      0.00000000</v>
    <i type="int" name="LMAXPAW">  -100</i>
    <i type="int" name="LMAXMIX">     2</i>
    <i type="logical" name="NLSPLINE"> F  </i>
   </separator>
   <separator name="electronic startup" >
    <i type="int" name="ISTART">     0</i>
    <i type="int" name="ICHARG">     1</i>
    <i type="int" name="INIWAV">     1</i>
   </separator>
   <separator name="electronic spin" >
    <i type="int" name="ISPIN">     1</i>
    <i type="logical" name="LNONCOLLINEAR"> F  </i>
    <v name="MAGMOM">      1.00000000      1.00000000      1.00000000      1.00000000</v>
    <i name="NUPDOWN">     -1.00000000</i>
    <i type="logical" name="LSORBIT"> F  </i>
    <v name="SAXIS">      0.00000000      0.00000000      1.00000000</v>
    <i type="logical" name="LSPIRAL"> F  </i>
    <v name="QSPIRAL">      0.00000000      0.00000000      0.00000000</v>
    <i type="logical" name="LZEROZ"> F  </i>
   </separator>
   <separator name="electronic exchange-correlation" >
    <i type="logical" name="LASPH"> F  </i>
    <i type="logical" name="LMETAGGA"> F  </i>
   </separator>
   <separator name="electronic convergence" >
    <i type="int" name="NELM">    60</i>
    <i type="int" name="NELMDL">    -5</i>
    <i type="int" name="NELMIN">     2</i>
    <i name="ENINI">    270.00000000</i>
    <separator name="electronic convergence detail" >
     <i type="logical" name="LDIAG"> T  </i>
     <i type="logical" name="LSUBROT"> F  </i>
     <i name="WEIMIN">      0.00000000</i>
     <i name="EBREAK">      0.00000001</i>
     <i name="DEPER">      0.30000000</i>
     <i type="int" name="NRMM">     4</i>
     <i name="TIME">      0.40000000</i>
    </separator>
   </separator>
   <separator name="electronic mixer" >
    <i name="AMIX">      0.40000000</i>
    <i name="BMIX">      1.00000000</i>
    <i name="AMIN">      0.10000000</i>
    <i name="AMIX_MAG">      1.60000000</i>
    <i name="BMIX_MAG">      1.00000000</i>
    <separator name="electronic mixer details" >
     <i type="int" name="IMIX">     4</i>
     <i type="logical" name="MIXFIRST"> F  </i>
     <i type="int" name="MAXMIX">   -45</i>
     <i name="WC">    100.00000000</i>
     <i type="int" name="INIMIX">     1</i>
     <i type="int" name="MIXPRE">     1</i>
     <i type="int" name="MREMOVE">     5</i>
    </separator>
   </separator>
   <separator name="electronic dipolcorrection" >
    <i type="logical" name="LDIPOL"> F  </i>
    <i type="logical" name="LMONO"> F  </i>
    <i type="int" name="IDIPOL">     0</i>
    <i name="EPSILON">      1.00000000</i>
    <v name="DIPOL">   -100.00000000   -100.00000000   -100.00000000</v>
    <i name="EFIELD">      0.00000000</i>
   </separator>
  </separator>
  <separator name="grids" >
   <i type="int" name="NGX">    16</i>
   <i type="int" name="NGY">    16</i>
   <i type="int" name="NGZ">    16</i>
   <i type="int" name="NGXF">    32</i>
   <i type="int" name="NGYF">    32</i>
   <i type="int" name="NGZF">    32</i>
   <i type="logical" name="ADDGRID"> F  </i>
  </separator>
  <separator name="ionic" >
   <i type="int" name="NSW">     0</i>
   <i type="int" name="IBRION">    -1</i>
   <i type="int" name="MDALGO">     0</i>
   <i type="int" name="ISIF">     2</i>
   <i name="PSTRESS">      0.00000000</i>
   <i name="EDIFFG">      0.00001000</i>
   <i type="int" name="NFREE">     0</i>
   <i name="POTIM">      0.50000000</i>
   <i name="SMASS">     -3.00000000</i>
   <i name="SCALEE">      1.00000000</i>
  </separator>
  <separator name="ionic md" >
   <i name="TEBEG">      0.00010000</i>
   <i name="TEEND">      0.00010000</i>
   <i type="int" name="NBLOCK">     1</i>
   <i type="int" name="KBLOCK">     1</i>
   <i type="int" name="NPACO">   256</i>
   <i name="APACO">     16.00000000</i>
  </separator>
  <separator name="symmetry" >
   <i type="int" name="ISYM">     2</i>
   <i name="SYMPREC">      0.00001000</i>
  </separator>
  <separator name="dos" >
   <i type="int" name="LORBIT">     0</i>
   <v name="RWIGS">     -1.00000000     -1.00000000     -1.00000000     -1.00000000</v>
   <i type="int" name="NEDOS">   301</i>
   <i name="EMIN">     10.00000000</i>
   <i name="EMAX">    -10.00000000</i>
   <i name="EFERMI">      0.00000000</i>
  </separator>
  <separator name="writing" >
   <i type="int" name="NWRITE">     2</i>
   <i type="logical" name="LWAVE"> T  </i>
   <i type="logical" name="LDOWNSAMPLE"> F  </i>
   <i type="logical" name="LCHARG"> T  </i>
   <i type="logical" name="LPARD"> F  </i>
   <i type="logical" name="LVTOT"> F  </i>
   <i type="logical" name="LVHAR"> F  </i>
   <i type="logical" name="LELF"> F  </i>
   <i type="logical" name="LOPTICS"> F  </i>
   <v name="STM">      0.00000000      0.00000000      0.00000000      0.00000000      0.00000000      0.00000000      0.00000000</v>
  </separator>
  <separator name="performance" >
   <i type="int" name="NPAR">     1</i>
   <i type="int" name="NSIM">     4</i>
   <i type="int" name="NBLK">    -1</i>
   <i type="logical" name="LPLANE"> T  </i>
   <i type="logical" name="LSCALAPACK"> F  </i>
   <i type="logical" name="LSCAAWARE"> F  </i>
   <i type="logical" name="LSCALU"> F  </i>
   <i type="logical" name="LASYNC"> F  </i>
   <i type="logical" name="LORBITALREAL"> F  </i>
  </separator>
  <separator name="miscellaneous" >
   <i type="int" name="IDIOT">     3</i>
   <i type="int" name="PHON_NSTRUCT">    -1</i>
   <i type="logical" name="LMUSIC"> F  </i>
   <v name="POMASS">    106.42000000    192.22000000    195.08000000     63.54600000</v>
   <v name="DARWINR">      0.00000000      0.00000000      0.00000000      0.00000000</v>
   <v name="DARWINV">      1.00000000      1.00000000      1.00000000      1.00000000</v>
   <i type="logical" name="LCORR"> T  </i>
  </separator>
  <i type="logical" name="GGA_COMPAT"> T  </i>
  <i type="logical" name="LBERRY"> F  </i>
  <i type="int" name="ICORELEVEL">     0</i>
  <i type="logical" name="LDAU"> F  </i>
  <i type="int" name="I_CONSTRAINED_M">     0</i>
  <separator name="electronic exchange-correlation" >
   <i type="string" name="GGA">PE</i>
   <i type="int" name="VOSKOWN">     0</i>
   <i type="logical" name="LHFCALC"> F  </i>
   <i type="string" name="PRECFOCK"></i>
   <i type="logical" name="LSYMGRAD"> F  </i>
   <i type="logical" name="LHFONE"> F  </i>
   <i type="logical" name="LRHFCALC"> F  </i>
   <i type="logical" name="LTHOMAS"> F  </i>
   <i type="logical" name="LMODELHF"> F  </i>
   <i type="logical" name="LFOCKACE"> F  </i>
   <i name="ENCUT4O">     -1.00000000</i>
   <i type="int" name="EXXOEP">     0</i>
   <i type="int" name="FOURORBIT">     0</i>
   <i name="AEXX">      0.00000000</i>
   <i name="HFALPHA">      0.00000000</i>
   <i name="MCALPHA">      0.00000000</i>
   <i name="ALDAX">      1.00000000</i>
   <i name="AGGAX">      1.00000000</i>
   <i name="ALDAC">      1.00000000</i>
   <i name="AGGAC">      1.00000000</i>
   <i type="int" name="NKREDX">     1</i>
   <i type="int" name="NKREDY">     1</i>
   <i type="int" name="NKREDZ">     1</i>
   <i type="logical" name="SHIFTRED"> F  </i>
   <i type="logical" name="ODDONLY"> F  </i>
   <i type="logical" name="EVENONLY"> F  </i>
   <i type="int" name="LMAXFOCK">     0</i>
   <i type="int" name="NMAXFOCKAE">     0</i>
   <i type="logical" name="LFOCKAEDFT"> F  </i>
   <i name="HFSCREEN">      0.00000000</i>
   <i name="HFSCREENC">      0.00000000</i>
   <i type="int" name="NBANDSGWLOW">     0</i>
  </separator>
  <separator name="vdW DFT" >
   <i type="logical" name="LUSE_VDW"> F  </i>
   <i name="Zab_VDW">     -0.84910000</i>
   <i name="PARAM1">      0.12340000</i>
   <i name="PARAM2">      1.00000000</i>
   <i name="PARAM3">      0.00000000</i>
  </separator>
  <separator name="model GW" >
   <i type="int" name="MODEL_GW">     0</i>
   <i name="MODEL_EPS0">      7.56473648</i>
   <i name="MODEL_ALPHA">      1.00000000</i>
  </separator>
  <separator name="linear response parameters" >
   <i type="logical" name="LEPSILON"> F  </i>
   <i type="logical" name="LRPA"> F  </i>
   <i type="logical" name="LNABLA"> F  </i>
   <i type="logical" name="LVEL"> F  </i>
   <i type="int" name="KINTER">     0</i>
   <i name="CSHIFT">      0.10000000</i>
   <i name="OMEGAMAX">     -1.00000000</i>
   <i name="DEG_THRESHOLD">      0.00200000</i>
   <i name="RTIME">     -0.10000000</i>
   <i name="WPLASMAI">      0.00000000</i>
   <v name="DFIELD">      0.00000000      0.00000000      0.00000000</v>
   <v name="WPLASMA">      0.00000000      0.00000000      0.00000000      0.00000000      0.00000000      0.00000000      0.00000000      0.00000000      0.00000000</v>
  </separator>
  <separator name="orbital magnetization" >
   <i type="logical" name="NUCIND"> F  </i>
   <v name="MAGPOS">      0.00000000      0.00000000      0.00000000</v>
   <i type="logical" name="LNICSALL"> T  </i>
   <i type="logical" name="ORBITALMAG"> F  </i>
   <i type="logical" name="LMAGBLOCH"> F  </i>
   <i type="logical" name="LCHIMAG"> F  </i>
   <i type="logical" name="LGAUGE"> T  </i>
   <i type="int" name="MAGATOM">     0</i>
   <v name="MAGDIPOL">      0.00000000      0.00000000      0.00000000</v>
   <v name="AVECCONST">      0.00000000      0.00000000      0.00000000</v>
  </separator>
  <separator name="response functions" >
   <i type="logical" name="LFINITE_TEMPERATURE"> F  </i>
   <i type="logical" name="LADDER"> F  </i>
   <i type="logical" name="LRPAFORCE"> F  </i>
   <i type="logical" name="LFXC"> F  </i>
   <i type="logical" name="LHARTREE"> T  </i>
   <i type="int" name="IBSE">     0</i>
   <v type="int" name="KPOINT">    -1     0     0     0</v>
   <i type="logical" name="LTCTC"> F  </i>
   <i type="logical" name="LTCTE"> F  </i>
   <i type="logical" name="LTETE"> F  </i>
   <i type="logical" name="LTRIPLET"> F  </i>
   <i type="logical" name="LFXCEPS"> F  </i>
   <i type="logical" name="LFXHEG"> F  </i>
   <i type="int" name="NATURALO">     2</i>
   <i type="logical" name="LHOLEGF"> F  </i>
   <i type="logical" name="L2ORDER"> F  </i>
   <i type="logical" name="LDMP1"> F  </i>
   <i type="logical" name="LMP2LT"> F  </i>
   <i type="logical" name="LSMP2LT"> F  </i>
   <i type="logical" name="LGWLF"> F  </i>
   <i name="ENCUTGW">     -2.00000000</i>
   <i name="ENCUTGWSOFT">     -2.00000000</i>
   <i name="ENCUTLF">     -1.00000000</i>
   <i type="logical" name="LESF_SPLINES"> F  </i>
   <i type="int" name="LMAXMP2">    -1</i>
   <i name="SCISSOR">      0.00000000</i>
   <i type="int" name="NOMEGA">     0</i>
   <i type="int" name="NOMEGAR">     0</i>
   <i type="int" name="NBANDSGW">    -1</i>
   <i type="int" name="NBANDSO">    -1</i>
   <i type="int" name="NBANDSV">    -1</i>
   <i type="int" name="NELM">     1</i>
   <i type="int" name="NELMHF">     1</i>
   <i type="int" name="DIM">     3</i>
   <i type="int" name="IESPILON">     4</i>
   <i type="int" name="ANTIRES">     0</i>
   <i name="OMEGAMAX">    -30.00000000</i>
   <i name="OMEGAMIN">    -30.00000000</i>
   <i name="OMEGATL">   -200.00000000</i>
   <i type="int" name="OMEGAGRID">     0</i>
   <i name="CSHIFT">     -0.10000000</i>
   <i type="logical" name="LSELFENERGY"> F  </i>
   <i type="logical" name="LSPECTRAL"> F  </i>
   <i type="logical" name="LSPECTRALGW"> F  </i>
   <i type="logical" name="LSINGLES"> F  </i>
   <i type="logical" name="LFERMIGW"> F  </i>
   <i type="logical" name="ODDONLYGW"> F  </i>
   <i type="logical" name="EVENONLYGW"> F  </i>
   <i type="int" name="NKREDLFX">     1</i>
   <i type="int" name="NKREDLFY">     1</i>
   <i type="int" name="NKREDLFZ">     1</i>
   <i type="int" name="MAXMEM">  2800</i>
   <i type="int" name="TELESCOPE">     0</i>
   <i type="int" name="NTAUPAR">    -1</i>
   <i type="int" name="NOMEGAPAR">    -1</i>
   <i name="DAMP_NEWTON">      0.80000001</i>
   <i name="LAMBDA">      1.00000000</i>
  </separator>
  <separator name="External order field" >
   <i name="OFIELD_KAPPA">      0.00000000</i>
   <v name="OFIELD_K">      0.00000000      0.00000000      0.00000000</v>
   <i name="OFIELD_Q6_NEAR">      0.00000000</i>
   <i name="OFIELD_Q6_FAR">      0.00000000</i>
   <i name="OFIELD_A">      0.00000000</i>
  </separator>
 </parameters>
 <atominfo>
  <atoms>       4 </atoms>
  <types>       4 </types>
  <array name="atoms" >
   <dimension dim="1">ion</dimension>
   <field type="string">element</field>
   <field type="int">atomtype</field>
   <set>
    <rc><c>Pd</c><c>   1</c></rc>
    <rc><c>Ir</c><c>   2</c></rc>
    <rc><c>Pt</c><c>   3</c></rc>
    <rc><c>Cu</c><c>   4</c></rc>
   </set>
  </array>
  <array name="atomtypes" >
   <dimension dim="1">type</dimension>
   <field type="int">atomspertype</field>
   <field type="string">element</field>
   <field>mass</field>
   <field>valence</field>
   <field type="string">pseudopotential</field>
   <set>
    <rc><c>   1</c><c>Pd</c><c>    106.42000000</c><c>     10.00000000</c><c>  PAW_PBE Pd 04Jan2005                  </c></rc>
    <rc><c>   1</c><c>Ir</c><c>    192.22000000</c><c>      9.00000000</c><c>  PAW_PBE Ir 06Sep2000                  </c></rc>
    <rc><c>   1</c><c>Pt</c><c>    195.08000000</c><c>     10.00000000</c><c>  PAW_PBE Pt 04Feb2005                  </c></rc>
    <rc><c>   1</c><c>Cu</c><c>     63.54600000</c><c>     11.00000000</c><c>  PAW_PBE Cu 22Jun2005                  </c></rc>
   </set>
  </array>
 </atominfo>
 <structure name="initialpos" >
  <crystal>
   <varray name="basis" >
    <v>       3.69460076       0.00000000       0.00000000 </v>
    <v>       0.00000000       3.69460076       0.00000000 </v>
    <v>       0.00000000       0.00000000       3.69460076 </v>
   </varray>
   <i name="volume">     50.43157652 </i>
   <varray name="rec_basis" >
    <v>       0.27066524       0.00000000       0.00000000 </v>
    <v>       0.00000000       0.27066524       0.00000000 </v>
    <v>       0.00000000       0.00000000       0.27066524 </v>
   </varray>
  </crystal>
  <varray name="positions" >
   <v>       0.00000000       0.00000000       0.00000000 </v>
   <v>       0.50000000       0.50000000       0.00000000 </v>
   <v>       0.50000000       0.00000000       0.50000000 </v>
   <v>       0.00000000       0.50000000       0.50000000 </v>
  </varray>
 </structure>
 <calculation>
  <scstep>
   <time name="dav">    2.70    2.72</time>
   <time name="total">    2.72    2.74</time>
   <energy>
    <i name="alphaZ">    280.30852366 </i>
    <i name="ewald">  -3582.70809641 </i>
    <i name="hartreedc">   -591.22537777 </i>
    <i name="XCdc">      5.60748750 </i>
    <i name="pawpsdc">   3282.45812088 </i>
    <i name="pawaedc">  -3257.47686163 </i>
    <i name="eentropy">     -0.00065626 </i>
    <i name="bandstr">    599.17525929 </i>
    <i name="atom">   3489.78669473 </i>
    <i name="e_fr_energy">    225.92509399 </i>
    <i name="e_wo_entrp">    225.92575025 </i>
    <i name="e_0_energy">    225.92531275 </i>
   </energy>
  </scstep>
  <scstep>
   <time name="dav">    2.38    2.38</time>
   <time name="total">    2.39    2.39</time>
   <energy>
    <i name="e_fr_energy">    -13.67392792 </i>
    <i name="e_wo_entrp">    -13.67195036 </i>
    <i name="e_0_energy">    -13.67326873 </i>
   </energy>
  </scstep>
  <scstep>
   <time name="dav">    2.59    2.59</time>
   <time name="total">    2.61    2.61</time>
   <energy>
    <i name="e_fr_energy">    -24.83078415 </i>
    <i name="e_wo_entrp">    -24.83028153 </i>
    <i name="e_0_energy">    -24.83061661 </i>
   </energy>
  </scstep>
  <scstep>
   <time name="dav">    2.69    2.69</time>
   <time name="total">    2.70    2.70</time>
   <energy>
    <i name="e_fr_energy">    -25.09467008 </i>
    <i name="e_wo_entrp">    -25.09407618 </i>
    <i name="e_0_energy">    -25.09447211 </i>
   </energy>
  </scstep>
  <scstep>
   <time name="dav">    2.95    2.95</time>
   <time name="total">    3.14    3.14</time>
   <energy>
    <i name="e_fr_energy">    -25.10659900 </i>
    <i name="e_wo_entrp">    -25.10600353 </i>
    <i name="e_0_energy">    -25.10640051 </i>
   </energy>
  </scstep>
  <scstep>
   <time name="dav">    2.59    2.59</time>
   <time name="total">    2.79    2.79</time>
   <energy>
    <i name="e_fr_energy">    -26.62339335 </i>
    <i name="e_wo_entrp">    -26.62295848 </i>
    <i name="e_0_energy">    -26.62324839 </i>
   </energy>
  </scstep>
  <scstep>
   <time name="dav">    2.81    2.81</time>
   <time name="total">    3.01    3.02</time>
   <energy>
    <i name="e_fr_energy">    -22.71264862 </i>
    <i name="e_wo_entrp">    -22.71833367 </i>
    <i name="e_0_energy">    -22.71454364 </i>
   </energy>
  </scstep>
  <scstep>
   <time name="dav">    3.22    3.22</time>
   <time name="total">    3.42    3.42</time>
   <energy>
    <i name="e_fr_energy">    -22.90970548 </i>
    <i name="e_wo_entrp">    -22.90627047 </i>
    <i name="e_0_energy">    -22.90856047 </i>
   </energy>
  </scstep>
  <scstep>
   <time name="dav">    2.91    2.91</time>
   <time name="total">    3.11    3.11</time>
   <energy>
    <i name="e_fr_energy">    -22.70842156 </i>
    <i name="e_wo_entrp">    -22.71281426 </i>
    <i name="e_0_energy">    -22.70988579 </i>
   </energy>
  </scstep>
  <scstep>
   <time name="dav">    3.23    3.23</time>
   <time name="total">    3.42    3.42</time>
   <energy>
    <i name="e_fr_energy">    -22.70692014 </i>
    <i name="e_wo_entrp">    -22.71303047 </i>
    <i name="e_0_energy">    -22.70895692 </i>
   </energy>
  </scstep>
  <scstep>
   <time name="dav">    3.16    3.16</time>
   <time name="total">    3.36    3.36</time>
   <energy>
    <i name="e_fr_energy">    -22.69487798 </i>
    <i name="e_wo_entrp">    -22.70058799 </i>
    <i name="e_0_energy">    -22.69678131 </i>
   </energy>
  </scstep>
  <scstep>
   <time name="dav">    2.72    2.72</time>
   <time name="total">    2.92    2.92</time>
   <energy>
    <i name="e_fr_energy">    -22.69015249 </i>
    <i name="e_wo_entrp">    -22.69489243 </i>
    <i name="e_0_energy">    -22.69173247 </i>
   </energy>
  </scstep>
  <scstep>
   <time name="dav">    2.53    2.53</time>
   <time name="total">    2.73    2.73</time>
   <energy>
    <i name="e_fr_energy">    -22.69021608 </i>
    <i name="e_wo_entrp">    -22.69495002 </i>
    <i name="e_0_energy">    -22.69179406 </i>
   </energy>
  </scstep>
  <scstep>
   <time name="dav">    3.18    3.18</time>
   <time name="total">    3.38    3.38</time>
   <energy>
    <i name="e_fr_energy">    -22.69020472 </i>
    <i name="e_wo_entrp">    -22.69496494 </i>
    <i name="e_0_energy">    -22.69179146 </i>
   </energy>
  </scstep>
  <scstep>
   <time name="dav">    2.65    2.65</time>
   <time name="total">    2.85    2.85</time>
   <energy>
    <i name="e_fr_energy">    -22.69019843 </i>
    <i name="e_wo_entrp">    -22.69498564 </i>
    <i name="e_0_energy">    -22.69179417 </i>
   </energy>
  </scstep>
  <scstep>
   <time name="dav">    2.15    2.15</time>
   <time name="total">    2.35    2.35</time>
   <energy>
    <i name="e_fr_energy">    -22.69019714 </i>
    <i name="e_wo_entrp">    -22.69500217 </i>
    <i name="e_0_energy">    -22.69179882 </i>
   </energy>
  </scstep>
  <scstep>
   <time name="dav">    1.95    1.95</time>
   <time name="total">    1.98    1.98</time>
   <energy>
    <i name="alphaZ">    280.30852366 </i>
    <i name="ewald">  -3582.70809641 </i>
    <i name="hartreedc">   -537.41108174 </i>
    <i name="XCdc">      3.75922810 </i>
    <i name="pawpsdc">   4336.46376964 </i>
    <i name="pawaedc">  -4325.99748905 </i>
    <i name="eentropy">      0.00480369 </i>
    <i name="bandstr">    313.10345009 </i>
    <i name="atom">   3489.78669473 </i>
    <i name="e_fr_energy">    -22.69019728 </i>
    <i name="e_wo_entrp">    -22.69500097 </i>
    <i name="e_0_energy">    -22.69179851 </i>
   </energy>
  </scstep>
  <structure>
   <crystal>
    <varray name="basis" >
     <v>       3.69460076       0.00000000       0.00000000 </v>
     <v>       0.00000000       3.69460076       0.00000000 </v>
     <v>       0.00000000       0.00000000       3.69460076 </v>
    </varray>
    <i name="volume">     50.43157652 </i>
    <varray name="rec_basis" >
     <v>       0.27066524       0.00000000       0.00000000 </v>
     <v>       0.00000000       0.27066524       0.00000000 </v>
     <v>       0.00000000       0.00000000       0.27066524 </v>
    </varray>
   </crystal>
   <varray name="positions" >
    <v>       0.00000000       0.00000000       0.00000000 </v>
    <v>       0.50000000       0.50000000       0.00000000 </v>
    <v>       0.50000000       0.00000000       0.50000000 </v>
    <v>       0.00000000       0.50000000       0.50000000 </v>
   </varray>
  </structure>
  <varray name="forces" >
   <v>      -0.00000000      -0.00000000       0.00000000 </v>
   <v>       0.00000000      -0.00000000       0.00000000 </v>
   <v>       0.00000000      -0.00000000      -0.00000000 </v>
   <v>       0.00000000       0.00000000      -0.00000000 </v>
  </varray>
  <varray name="stress" >
   <v>     374.00646310      -0.00000000       0.00000000 </v>
   <v>       0.00000000     386.01478532       0.00000000 </v>
   <v>       0.00000000       0.00000000     365.73014284 </v>
  </varray>
  <energy>
   <i name="e_fr_energy">    -22.69019728 </i>
   <i name="e_wo_entrp">    -22.69500097 </i>
   <i name="e_0_energy">    -22.69179851 </i>
  </energy>
  <time name="totalsc">   51.27   51.29</time>
  <eigenvalues>
   <array>
    <dimension dim="1">band</dimension>
    <dimension dim="2">kpoint</dimension>
    <dimension dim="3">spin</dimension>
    <field>eigene</field>
    <field>occ</field>
    <set>
     <set comment="spin 1">
      <set comment="kpoint 1">
       <r>    1.1293    1.0000 </r>
       <r>    3.4456    1.0000 </r>
       <r>    4.5862    1.0000 </r>
       <r>    4.6346    1.0000 </r>
       <r>    4.6951    1.0000 </r>
       <r>    4.8284    1.0000 </r>
       <r>    4.8514    1.0000 </r>
       <r>    7.8543    1.0000 </r>
       <r>    7.8669    1.0000 </r>
       <r>    8.0237    1.0000 </r>
       <r>    9.4010    1.0000 </r>
       <r>    9.5647    1.0000 </r>
       <r>   10.3942    1.0000 </r>
       <r>   10.6011    1.0000 </r>
       <r>   10.7699    1.0000 </r>
       <r>   11.6305    0.2093 </r>
       <r>   11.8465   -0.0298 </r>
       <r>   11.9917   -0.0043 </r>
       <r>   12.3337   -0.0000 </r>
       <r>   12.9341   -0.0000 </r>
       <r>   13.6047   -0.0000 </r>
       <r>   13.6121   -0.0000 </r>
       <r>   13.6385   -0.0000 </r>
       <r>   13.6524   -0.0000 </r>
       <r>   21.7678    0.0000 </r>
       <r>   21.9687    0.0000 </r>
       <r>   23.0543    0.0000 </r>
       <r>   23.3171    0.0000 </r>
       <r>   23.5868    0.0000 </r>
       <r>   23.7002    0.0000 </r>
      </set>
      <set comment="kpoint 2">
       <r>    1.2419    1.0000 </r>
       <r>    3.5252    1.0000 </r>
       <r>    4.6424    1.0000 </r>
       <r>    4.6759    1.0000 </r>
       <r>    4.7662    1.0000 </r>
       <r>    4.8970    1.0000 </r>
       <r>    4.9307    1.0000 </r>
       <r>    7.8036    1.0000 </r>
       <r>    7.8942    1.0000 </r>
       <r>    8.0643    1.0000 </r>
       <r>    9.4055    1.0000 </r>
       <r>    9.5107    1.0000 </r>
       <r>   10.3908    1.0000 </r>
       <r>   10.4815    1.0000 </r>
       <r>   10.4907    1.0000 </r>
       <r>   11.0856    1.0022 </r>
       <r>   11.7918   -0.0351 </r>
       <r>   11.7961   -0.0353 </r>
       <r>   12.2372   -0.0000 </r>
       <r>   12.3942   -0.0000 </r>
       <r>   13.1443   -0.0000 </r>
       <r>   13.6520   -0.0000 </r>
       <r>   14.3280   -0.0000 </r>
       <r>   14.3800   -0.0000 </r>
       <r>   21.7587    0.0000 </r>
       <r>   22.0709    0.0000 </r>
       <r>   22.8116    0.0000 </r>
       <r>   23.4209    0.0000 </r>
       <r>   23.6539    0.0000 </r>
       <r>   24.4072    0.0000 </r>
      </set>
      <set comment="kpoint 3">
       <r>    1.2536    1.0000 </r>
       <r>    3.5313    1.0000 </r>
       <r>    4.6306    1.0000 </r>
       <r>    4.7128    1.0000 </r>
       <r>    4.7349    1.0000 </r>
       <r>    4.8972    1.0000 </r>
       <r>    4.9355    1.0000 </r>
       <r>    7.8992    1.0000 </r>
       <r>    7.9107    1.0000 </r>
       <r>    7.9681    1.0000 </r>
       <r>    9.3574    1.0000 </r>
       <r>    9.5764    1.0000 </r>
       <r>   10.2070    1.0000 </r>
       <r>   10.5294    1.0000 </r>
       <r>   10.5740    1.0000 </r>
       <r>   11.6178    0.2534 </r>
       <r>   11.6620    0.1149 </r>
       <r>   11.9863   -0.0048 </r>
       <r>   12.1970   -0.0000 </r>
       <r>   12.2527   -0.0000 </r>
       <r>   12.6598   -0.0000 </r>
       <r>   13.1723   -0.0000 </r>
       <r>   14.4626   -0.0000 </r>
       <r>   14.7162   -0.0000 </r>
       <r>   21.5591    0.0000 </r>
       <r>   22.1541    0.0000 </r>
       <r>   23.1956    0.0000 </r>
       <r>   23.4213    0.0000 </r>
       <r>   23.6668    0.0000 </r>
       <r>   24.0676    0.0000 </r>
      </set>
      <set comment="kpoint 4">
       <r>    1.2544    1.0000 </r>
       <r>    3.5340    1.0000 </r>
       <r>    4.6750    1.0000 </r>
       <r>    4.7142    1.0000 </r>
       <r>    4.7679    1.0000 </r>
       <r>    4.8750    1.0000 </r>
       <r>    4.8848    1.0000 </r>
       <r>    7.7879    1.0000 </r>
       <r>    7.9059    1.0000 </r>
       <r>    8.0643    1.0000 </r>
       <r>    9.3734    1.0000 </r>
       <r>    9.5522    1.0000 </r>
       <r>   10.1928    1.0000 </r>
       <r>   10.5236    1.0000 </r>
       <r>   10.7629    1.0000 </r>
       <r>   11.2240    1.0202 </r>
       <r>   11.5885    0.3661 </r>
       <r>   11.7619   -0.0277 </r>
       <r>   12.1789   -0.0000 </r>
       <r>   12.6943   -0.0000 </r>
       <r>   12.9296   -0.0000 </r>
       <r>   13.1859   -0.0000 </r>
       <r>   14.3611   -0.0000 </r>
       <r>   14.6746   -0.0000 </r>
       <r>   21.3540    0.0000 </r>
       <r>   22.2402    0.0000 </r>
       <r>   23.2055    0.0000 </r>
       <r>   23.6262    0.0000 </r>
       <r>   23.6708    0.0000 </r>
       <r>   24.0274    0.0000 </r>
      </set>
      <set comment="kpoint 5">
       <r>    1.5687    1.0000 </r>
       <r>    3.7537    1.0000 </r>
       <r>    4.7780    1.0000 </r>
       <r>    4.7964    1.0000 </r>
       <r>    4.9805    1.0000 </r>
       <r>    5.1027    1.0000 </r>
       <r>    5.1774    1.0000 </r>
       <r>    7.6254    1.0000 </r>
       <r>    8.0111    1.0000 </r>
       <r>    8.1916    1.0000 </r>
       <r>    9.3164    1.0000 </r>
       <r>    9.4630    1.0000 </r>
       <r>    9.8004    1.0000 </r>
       <r>   10.0757    1.0000 </r>
       <r>   10.1756    1.0000 </r>
       <r>   10.3831    1.0000 </r>
       <r>   11.4329    0.9277 </r>
       <r>   11.5370    0.5817 </r>
       <r>   11.7581   -0.0259 </r>
       <r>   11.9320   -0.0116 </r>
       <r>   12.2255   -0.0000 </r>
       <r>   13.6510   -0.0000 </r>
       <r>   15.5646   -0.0000 </r>
       <r>   15.5674   -0.0000 </r>
       <r>   21.3563    0.0000 </r>
       <r>   21.7438    0.0000 </r>
       <r>   23.4979    0.0000 </r>
       <r>   23.5850    0.0000 </r>
       <r>   23.9240    0.0000 </r>
       <r>   24.5464    0.0000 </r>
      </set>
      <set comment="kpoint 6">
       <r>    1.6181    1.0000 </r>
       <r>    3.7754    1.0000 </r>
       <r>    4.7315    1.0000 </r>
       <r>    4.8496    1.0000 </r>
       <r>    4.9436    1.0000 </r>
       <r>    5.1023    1.0000 </r>
       <r>    5.2001    1.0000 </r>
       <r>    7.8110    1.0000 </r>
       <r>    8.0376    1.0000 </r>
       <r>    8.0441    1.0000 </r>
       <r>    9.2244    1.0000 </r>
       <r>    9.6168    1.0000 </r>
       <r>    9.7128    1.0000 </r>
       <r>    9.9056    1.0000 </r>
       <r>   10.4893    1.0000 </r>
       <r>   11.1051    1.0032 </r>
       <r>   11.4894    0.7668 </r>
       <r>   11.5848    0.3813 </r>
       <r>   11.7538   -0.0237 </r>
       <r>   11.8106   -0.0351 </r>
       <r>   11.9748   -0.0059 </r>
       <r>   12.1987   -0.0000 </r>
       <r>   15.7011   -0.0000 </r>
       <r>   15.8688   -0.0000 </r>
       <r>   20.9493    0.0000 </r>
       <r>   22.4665    0.0000 </r>
       <r>   23.3898    0.0000 </r>
       <r>   23.4341    0.0000 </r>
       <r>   23.9179    0.0000 </r>
       <r>   24.7335    0.0000 </r>
      </set>
      <set comment="kpoint 7">
       <r>    1.6216    1.0000 </r>
       <r>    3.7868    1.0000 </r>
       <r>    4.9166    1.0000 </r>
       <r>    4.9506    1.0000 </r>
       <r>    4.9861    1.0000 </r>
       <r>    4.9874    1.0000 </r>
       <r>    5.0119    1.0000 </r>
       <r>    7.5980    1.0000 </r>
       <r>    8.0189    1.0000 </r>
       <r>    8.1922    1.0000 </r>
       <r>    9.2484    1.0000 </r>
       <r>    9.5635    1.0000 </r>
       <r>    9.6740    1.0000 </r>
       <r>   10.1756    1.0000 </r>
       <r>   10.2727    1.0000 </r>
       <r>   10.7462    1.0000 </r>
       <r>   11.2232    1.0200 </r>
       <r>   11.5532    0.5136 </r>
       <r>   11.6224    0.2368 </r>
       <r>   11.8437   -0.0304 </r>
       <r>   12.2573   -0.0000 </r>
       <r>   12.9187   -0.0000 </r>
       <r>   15.6516   -0.0000 </r>
       <r>   15.8165   -0.0000 </r>
       <r>   20.5965    0.0000 </r>
       <r>   22.6499    0.0000 </r>
       <r>   23.4460    0.0000 </r>
       <r>   23.5826    0.0000 </r>
       <r>   24.0867    0.0000 </r>
       <r>   24.6059    0.0000 </r>
      </set>
      <set comment="kpoint 8">
       <r>    2.0713    1.0000 </r>
       <r>    4.0955    1.0000 </r>
       <r>    4.9293    1.0000 </r>
       <r>    4.9774    1.0000 </r>
       <r>    5.3306    1.0000 </r>
       <r>    5.4357    1.0000 </r>
       <r>    5.5689    1.0000 </r>
       <r>    7.3650    1.0000 </r>
       <r>    8.1506    1.0000 </r>
       <r>    8.3880    1.0000 </r>
       <r>    9.0381    1.0000 </r>
       <r>    9.0586    1.0000 </r>
       <r>    9.0603    1.0000 </r>
       <r>    9.4996    1.0000 </r>
       <r>    9.7261    1.0000 </r>
       <r>   10.3727    1.0000 </r>
       <r>   10.5488    1.0000 </r>
       <r>   10.9637    1.0001 </r>
       <r>   11.1444    1.0065 </r>
       <r>   11.4259    0.9424 </r>
       <r>   11.9060   -0.0165 </r>
       <r>   13.6498   -0.0000 </r>
       <r>   16.8594   -0.0000 </r>
       <r>   16.9248   -0.0000 </r>
       <r>   20.7028    0.0000 </r>
       <r>   21.7257    0.0000 </r>
       <r>   23.0584    0.0000 </r>
       <r>   23.1294    0.0000 </r>
       <r>   23.4974    0.0000 </r>
       <r>   24.9842    0.0000 </r>
      </set>
      <set comment="kpoint 9">
       <r>    2.1949    1.0000 </r>
       <r>    4.1304    1.0000 </r>
       <r>    4.8296    1.0000 </r>
       <r>    5.0203    1.0000 </r>
       <r>    5.3118    1.0000 </r>
       <r>    5.4296    1.0000 </r>
       <r>    5.6239    1.0000 </r>
       <r>    7.5795    1.0000 </r>
       <r>    8.2622    1.0000 </r>
       <r>    8.2654    1.0000 </r>
       <r>    9.0232    1.0000 </r>
       <r>    9.0305    1.0000 </r>
       <r>    9.1131    1.0000 </r>
       <r>    9.6581    1.0000 </r>
       <r>   10.0983    1.0000 </r>
       <r>   10.4411    1.0000 </r>
       <r>   10.8033    1.0000 </r>
       <r>   10.9280    1.0000 </r>
       <r>   11.1953    1.0142 </r>
       <r>   11.3120    1.0355 </r>
       <r>   11.5407    0.5663 </r>
       <r>   11.9629   -0.0072 </r>
       <r>   17.0327    0.0000 </r>
       <r>   17.0878    0.0000 </r>
       <r>   20.3976    0.0000 </r>
       <r>   22.4020    0.0000 </r>
       <r>   22.9324    0.0000 </r>
       <r>   23.1004    0.0000 </r>
       <r>   24.1278    0.0000 </r>
       <r>   24.3215    0.0000 </r>
      </set>
      <set comment="kpoint 10">
       <r>    2.2044    1.0000 </r>
       <r>    4.1548    1.0000 </r>
       <r>    5.0483    1.0000 </r>
       <r>    5.2262    1.0000 </r>
       <r>    5.3331    1.0000 </r>
       <r>    5.3333    1.0000 </r>
       <r>    5.3469    1.0000 </r>
       <r>    7.3103    1.0000 </r>
       <r>    8.1590    1.0000 </r>
       <r>    8.3899    1.0000 </r>
       <r>    9.0172    1.0000 </r>
       <r>    9.0196    1.0000 </r>
       <r>    9.1313    1.0000 </r>
       <r>    9.6073    1.0000 </r>
       <r>    9.8378    1.0000 </r>
       <r>   10.5263    1.0000 </r>
       <r>   10.7244    1.0000 </r>
       <r>   10.7532    1.0000 </r>
       <r>   11.0669    1.0015 </r>
       <r>   11.2674    1.0300 </r>
       <r>   11.6020    0.3128 </r>
       <r>   12.9047   -0.0000 </r>
       <r>   17.0359    0.0000 </r>
       <r>   17.0513    0.0000 </r>
       <r>   19.9586    0.0000 </r>
       <r>   22.7479    0.0000 </r>
       <r>   22.9763    0.0000 </r>
       <r>   23.2181    0.0000 </r>
       <r>   24.0195    0.0000 </r>
       <r>   24.4848    0.0000 </r>
      </set>
      <set comment="kpoint 11">
       <r>    2.6586    1.0000 </r>
       <r>    4.4794    1.0000 </r>
       <r>    5.0225    1.0000 </r>
       <r>    5.1843    1.0000 </r>
       <r>    5.8088    1.0000 </r>
       <r>    5.8841    1.0000 </r>
       <r>    6.0162    1.0000 </r>
       <r>    7.0866    1.0000 </r>
       <r>    7.9287    1.0000 </r>
       <r>    8.1227    1.0000 </r>
       <r>    8.6448    1.0000 </r>
       <r>    8.7187    1.0000 </r>
       <r>    8.7570    1.0000 </r>
       <r>    9.2484    1.0000 </r>
       <r>    9.4673    1.0000 </r>
       <r>    9.5751    1.0000 </r>
       <r>   10.3649    1.0000 </r>
       <r>   10.4829    1.0000 </r>
       <r>   10.5773    1.0000 </r>
       <r>   10.9298    1.0000 </r>
       <r>   11.8023   -0.0355 </r>
       <r>   13.6488   -0.0000 </r>
       <r>   18.1866    0.0000 </r>
       <r>   18.2951    0.0000 </r>
       <r>   20.2559    0.0000 </r>
       <r>   21.7544    0.0000 </r>
       <r>   22.1708    0.0000 </r>
       <r>   22.3244    0.0000 </r>
       <r>   22.6922    0.0000 </r>
       <r>   25.4897    0.0000 </r>
      </set>
      <set comment="kpoint 12">
       <r>    2.9233    1.0000 </r>
       <r>    4.4686    1.0000 </r>
       <r>    4.8635    1.0000 </r>
       <r>    5.2096    1.0000 </r>
       <r>    5.7879    1.0000 </r>
       <r>    5.8549    1.0000 </r>
       <r>    6.1282    1.0000 </r>
       <r>    7.3342    1.0000 </r>
       <r>    8.2994    1.0000 </r>
       <r>    8.3088    1.0000 </r>
       <r>    8.5806    1.0000 </r>
       <r>    8.6044    1.0000 </r>
       <r>    8.7773    1.0000 </r>
       <r>    9.1726    1.0000 </r>
       <r>    9.6191    1.0000 </r>
       <r>   10.1694    1.0000 </r>
       <r>   10.1991    1.0000 </r>
       <r>   10.2567    1.0000 </r>
       <r>   10.4744    1.0000 </r>
       <r>   10.7952    1.0000 </r>
       <r>   11.5022    0.7203 </r>
       <r>   11.9550   -0.0082 </r>
       <r>   18.3479    0.0000 </r>
       <r>   18.4071    0.0000 </r>
       <r>   20.0166    0.0000 </r>
       <r>   22.0210    0.0000 </r>
       <r>   22.2325    0.0000 </r>
       <r>   22.2510    0.0000 </r>
       <r>   24.0145    0.0000 </r>
       <r>   24.2573    0.0000 </r>
      </set>
      <set comment="kpoint 13">
       <r>    2.9463    1.0000 </r>
       <r>    4.4789    1.0000 </r>
       <r>    5.1156    1.0000 </r>
       <r>    5.4915    1.0000 </r>
       <r>    5.7610    1.0000 </r>
       <r>    5.8425    1.0000 </r>
       <r>    5.8491    1.0000 </r>
       <r>    6.9778    1.0000 </r>
       <r>    7.9358    1.0000 </r>
       <r>    8.1419    1.0000 </r>
       <r>    8.6893    1.0000 </r>
       <r>    8.7312    1.0000 </r>
       <r>    8.7399    1.0000 </r>
       <r>    9.2660    1.0000 </r>
       <r>    9.4995    1.0000 </r>
       <r>    9.7034    1.0000 </r>
       <r>   10.2577    1.0000 </r>
       <r>   10.3861    1.0000 </r>
       <r>   10.7069    1.0000 </r>
       <r>   10.7783    1.0000 </r>
       <r>   11.3264    1.0345 </r>
       <r>   12.8933   -0.0000 </r>
       <r>   18.3034    0.0000 </r>
       <r>   18.4833    0.0000 </r>
       <r>   19.5295    0.0000 </r>
       <r>   22.0142    0.0000 </r>
       <r>   22.3926    0.0000 </r>
       <r>   22.7429    0.0000 </r>
       <r>   23.5288    0.0000 </r>
       <r>   24.7018    0.0000 </r>
      </set>
      <set comment="kpoint 14">
       <r>    3.1199    1.0000 </r>
       <r>    4.7921    1.0000 </r>
       <r>    4.9804    1.0000 </r>
       <r>    5.3404    1.0000 </r>
       <r>    6.3462    1.0000 </r>
       <r>    6.3619    1.0000 </r>
       <r>    6.3837    1.0000 </r>
       <r>    6.8875    1.0000 </r>
       <r>    7.3260    1.0000 </r>
       <r>    7.3406    1.0000 </r>
       <r>    8.5341    1.0000 </r>
       <r>    8.6987    1.0000 </r>
       <r>    8.8763    1.0000 </r>
       <r>    8.8842    1.0000 </r>
       <r>    9.0920    1.0000 </r>
       <r>    9.5900    1.0000 </r>
       <r>   10.1276    1.0000 </r>
       <r>   10.1720    1.0000 </r>
       <r>   10.3616    1.0000 </r>
       <r>   10.5706    1.0000 </r>
       <r>   11.7560   -0.0249 </r>
       <r>   13.6482   -0.0000 </r>
       <r>   19.4086    0.0000 </r>
       <r>   19.5245    0.0000 </r>
       <r>   20.0329    0.0000 </r>
       <r>   21.1510    0.0000 </r>
       <r>   21.3518    0.0000 </r>
       <r>   21.8788    0.0000 </r>
       <r>   22.1671    0.0000 </r>
       <r>   25.6834    0.0000 </r>
      </set>
      <set comment="kpoint 15">
       <r>    3.6584    1.0000 </r>
       <r>    4.4092    1.0000 </r>
       <r>    4.9382    1.0000 </r>
       <r>    5.3459    1.0000 </r>
       <r>    6.2533    1.0000 </r>
       <r>    6.2666    1.0000 </r>
       <r>    6.5267    1.0000 </r>
       <r>    7.1649    1.0000 </r>
       <r>    7.6936    1.0000 </r>
       <r>    7.7225    1.0000 </r>
       <r>    8.4017    1.0000 </r>
       <r>    8.7806    1.0000 </r>
       <r>    8.9698    1.0000 </r>
       <r>    8.9710    1.0000 </r>
       <r>    9.4337    1.0000 </r>
       <r>    9.6020    1.0000 </r>
       <r>    9.6315    1.0000 </r>
       <r>    9.9902    1.0000 </r>
       <r>   10.2639    1.0000 </r>
       <r>   10.5112    1.0000 </r>
       <r>   11.4798    0.7994 </r>
       <r>   11.9512   -0.0087 </r>
       <r>   19.6014    0.0000 </r>
       <r>   19.7770    0.0000 </r>
       <r>   19.8262    0.0000 </r>
       <r>   20.9114    0.0000 </r>
       <r>   21.0966    0.0000 </r>
       <r>   22.1206    0.0000 </r>
       <r>   23.8834    0.0000 </r>
       <r>   24.2912    0.0000 </r>
      </set>
      <set comment="kpoint 16">
       <r>    3.7339    1.0000 </r>
       <r>    4.3497    1.0000 </r>
       <r>    5.2454    1.0000 </r>
       <r>    5.7277    1.0000 </r>
       <r>    6.0695    1.0000 </r>
       <r>    6.4421    1.0000 </r>
       <r>    6.4576    1.0000 </r>
       <r>    6.7019    1.0000 </r>
       <r>    7.2615    1.0000 </r>
       <r>    7.3132    1.0000 </r>
       <r>    8.4716    1.0000 </r>
       <r>    8.6876    1.0000 </r>
       <r>    8.9622    1.0000 </r>
       <r>    8.9645    1.0000 </r>
       <r>    9.1540    1.0000 </r>
       <r>    9.7546    1.0000 </r>
       <r>    9.8579    1.0000 </r>
       <r>    9.8815    1.0000 </r>
       <r>   10.3585    1.0000 </r>
       <r>   10.6973    1.0000 </r>
       <r>   11.2361    1.0230 </r>
       <r>   12.8867   -0.0000 </r>
       <r>   19.3179    0.0000 </r>
       <r>   19.5745    0.0000 </r>
       <r>   19.8973    0.0000 </r>
       <r>   20.8727    0.0000 </r>
       <r>   21.2315    0.0000 </r>
       <r>   22.7343    0.0000 </r>
       <r>   23.2659    0.0000 </r>
       <r>   24.7904    0.0000 </r>
      </set>
      <set comment="kpoint 17">
       <r>    1.3648    1.0000 </r>
       <r>    3.6100    1.0000 </r>
       <r>    4.6925    1.0000 </r>
       <r>    4.7453    1.0000 </r>
       <r>    4.8138    1.0000 </r>
       <r>    4.9378    1.0000 </r>
       <r>    5.0358    1.0000 </r>
       <r>    7.8127    1.0000 </r>
       <r>    7.9356    1.0000 </r>
       <r>    8.0431    1.0000 </r>
       <r>    9.3607    1.0000 </r>
       <r>    9.5245    1.0000 </r>
       <r>   10.1584    1.0000 </r>
       <r>   10.2534    1.0000 </r>
       <r>   10.4804    1.0000 </r>
       <r>   11.1401    1.0061 </r>
       <r>   11.6219    0.2388 </r>
       <r>   11.7069    0.0232 </r>
       <r>   11.7707   -0.0310 </r>
       <r>   12.1166   -0.0003 </r>
       <r>   12.9697   -0.0000 </r>
       <r>   13.6391   -0.0000 </r>
       <r>   14.2625   -0.0000 </r>
       <r>   15.0922   -0.0000 </r>
       <r>   21.5937    0.0000 </r>
       <r>   22.3937    0.0000 </r>
       <r>   22.7981    0.0000 </r>
       <r>   23.5602    0.0000 </r>
       <r>   23.6781    0.0000 </r>
       <r>   24.7215    0.0000 </r>
      </set>
      <set comment="kpoint 18">
       <r>    1.3756    1.0000 </r>
       <r>    3.6190    1.0000 </r>
       <r>    4.7010    1.0000 </r>
       <r>    4.8007    1.0000 </r>
       <r>    4.8011    1.0000 </r>
       <r>    4.9492    1.0000 </r>
       <r>    4.9779    1.0000 </r>
       <r>    7.7991    1.0000 </r>
       <r>    7.9453    1.0000 </r>
       <r>    8.0420    1.0000 </r>
       <r>    9.3376    1.0000 </r>
       <r>    9.5575    1.0000 </r>
       <r>   10.0136    1.0000 </r>
       <r>   10.4381    1.0000 </r>
       <r>   10.5205    1.0000 </r>
       <r>   11.2981    1.0348 </r>
       <r>   11.5688    0.4480 </r>
       <r>   11.5871    0.3719 </r>
       <r>   11.8778   -0.0228 </r>
       <r>   12.0615   -0.0010 </r>
       <r>   12.5415   -0.0000 </r>
       <r>   13.6132   -0.0000 </r>
       <r>   14.6777   -0.0000 </r>
       <r>   14.9410   -0.0000 </r>
       <r>   21.5841    0.0000 </r>
       <r>   21.9351    0.0000 </r>
       <r>   23.3684    0.0000 </r>
       <r>   23.3759    0.0000 </r>
       <r>   24.0898    0.0000 </r>
       <r>   24.4212    0.0000 </r>
      </set>
      <set comment="kpoint 19">
       <r>    1.3654    1.0000 </r>
       <r>    3.6128    1.0000 </r>
       <r>    4.7161    1.0000 </r>
       <r>    4.7503    1.0000 </r>
       <r>    4.8489    1.0000 </r>
       <r>    4.9476    1.0000 </r>
       <r>    4.9689    1.0000 </r>
       <r>    7.7432    1.0000 </r>
       <r>    7.9272    1.0000 </r>
       <r>    8.1034    1.0000 </r>
       <r>    9.3850    1.0000 </r>
       <r>    9.4937    1.0000 </r>
       <r>   10.1046    1.0000 </r>
       <r>   10.4205    1.0000 </r>
       <r>   10.5838    1.0000 </r>
       <r>   10.9040    1.0000 </r>
       <r>   11.0532    1.0011 </r>
       <r>   11.7300   -0.0055 </r>
       <r>   12.1713   -0.0001 </r>
       <r>   12.2947   -0.0000 </r>
       <r>   13.1236   -0.0000 </r>
       <r>   13.7780   -0.0000 </r>
       <r>   13.9934   -0.0000 </r>
       <r>   15.0853   -0.0000 </r>
       <r>   21.4277    0.0000 </r>
       <r>   22.4620    0.0000 </r>
       <r>   22.8036    0.0000 </r>
       <r>   23.6491    0.0000 </r>
       <r>   23.7880    0.0000 </r>
       <r>   24.6587    0.0000 </r>
      </set>
      <set comment="kpoint 20">
       <r>    1.6879    1.0000 </r>
       <r>    3.8359    1.0000 </r>
       <r>    4.8434    1.0000 </r>
       <r>    4.8592    1.0000 </r>
       <r>    5.0297    1.0000 </r>
       <r>    5.1105    1.0000 </r>
       <r>    5.2888    1.0000 </r>
       <r>    7.6180    1.0000 </r>
       <r>    8.0312    1.0000 </r>
       <r>    8.1837    1.0000 </r>
       <r>    9.3002    1.0000 </r>
       <r>    9.4249    1.0000 </r>
       <r>    9.6311    1.0000 </r>
       <r>    9.8070    1.0000 </r>
       <r>   10.1801    1.0000 </r>
       <r>   10.5207    1.0000 </r>
       <r>   10.8790    1.0000 </r>
       <r>   11.4187    0.9559 </r>
       <r>   11.5347    0.5915 </r>
       <r>   11.8692   -0.0247 </r>
       <r>   12.9862   -0.0000 </r>
       <r>   13.1930   -0.0000 </r>
       <r>   15.1116   -0.0000 </r>
       <r>   16.0601   -0.0000 </r>
       <r>   21.2144    0.0000 </r>
       <r>   22.0793    0.0000 </r>
       <r>   23.1122    0.0000 </r>
       <r>   23.7268    0.0000 </r>
       <r>   23.9451    0.0000 </r>
       <r>   24.7886    0.0000 </r>
      </set>
      <set comment="kpoint 21">
       <r>    1.7314    1.0000 </r>
       <r>    3.8610    1.0000 </r>
       <r>    4.7964    1.0000 </r>
       <r>    4.9053    1.0000 </r>
       <r>    5.0089    1.0000 </r>
       <r>    5.1581    1.0000 </r>
       <r>    5.2627    1.0000 </r>
       <r>    7.7354    1.0000 </r>
       <r>    8.0599    1.0000 </r>
       <r>    8.0846    1.0000 </r>
       <r>    9.2182    1.0000 </r>
       <r>    9.4779    1.0000 </r>
       <r>    9.6716    1.0000 </r>
       <r>    9.7860    1.0000 </r>
       <r>   10.4476    1.0000 </r>
       <r>   10.7675    1.0000 </r>
       <r>   11.1961    1.0144 </r>
       <r>   11.2065    1.0164 </r>
       <r>   11.5138    0.6759 </r>
       <r>   11.7050    0.0260 </r>
       <r>   12.0669   -0.0009 </r>
       <r>   12.9695   -0.0000 </r>
       <r>   15.5034   -0.0000 </r>
       <r>   16.0374   -0.0000 </r>
       <r>   21.0311    0.0000 </r>
       <r>   22.1476    0.0000 </r>
       <r>   23.1741    0.0000 </r>
       <r>   23.6191    0.0000 </r>
       <r>   24.4761    0.0000 </r>
       <r>   24.6357    0.0000 </r>
      </set>
      <set comment="kpoint 22">
       <r>    1.7283    1.0000 </r>
       <r>    3.8637    1.0000 </r>
       <r>    4.9207    1.0000 </r>
       <r>    4.9582    1.0000 </r>
       <r>    5.0427    1.0000 </r>
       <r>    5.1082    1.0000 </r>
       <r>    5.1249    1.0000 </r>
       <r>    7.5563    1.0000 </r>
       <r>    8.0373    1.0000 </r>
       <r>    8.2100    1.0000 </r>
       <r>    9.2557    1.0000 </r>
       <r>    9.4943    1.0000 </r>
       <r>    9.5839    1.0000 </r>
       <r>    9.9718    1.0000 </r>
       <r>   10.2108    1.0000 </r>
       <r>   10.4428    1.0000 </r>
       <r>   10.6231    1.0000 </r>
       <r>   11.5253    0.6298 </r>
       <r>   11.8070   -0.0353 </r>
       <r>   11.8866   -0.0207 </r>
       <r>   12.7641   -0.0000 </r>
       <r>   12.8074   -0.0000 </r>
       <r>   15.1585   -0.0000 </r>
       <r>   16.1584   -0.0000 </r>
       <r>   20.6848    0.0000 </r>
       <r>   22.7903    0.0000 </r>
       <r>   23.2191    0.0000 </r>
       <r>   23.8058    0.0000 </r>
       <r>   23.8612    0.0000 </r>
       <r>   24.5791    0.0000 </r>
      </set>
      <set comment="kpoint 23">
       <r>    1.7254    1.0000 </r>
       <r>    3.8516    1.0000 </r>
       <r>    4.8044    1.0000 </r>
       <r>    4.8961    1.0000 </r>
       <r>    5.0040    1.0000 </r>
       <r>    5.1185    1.0000 </r>
       <r>    5.3023    1.0000 </r>
       <r>    7.7416    1.0000 </r>
       <r>    8.0530    1.0000 </r>
       <r>    8.0886    1.0000 </r>
       <r>    9.2271    1.0000 </r>
       <r>    9.5013    1.0000 </r>
       <r>    9.6320    1.0000 </r>
       <r>    9.7714    1.0000 </r>
       <r>   10.3815    1.0000 </r>
       <r>   10.6946    1.0000 </r>
       <r>   11.1468    1.0068 </r>
       <r>   11.3051    1.0353 </r>
       <r>   11.6808    0.0705 </r>
       <r>   11.7690   -0.0305 </r>
       <r>   12.1953   -0.0000 </r>
       <r>   12.8308   -0.0000 </r>
       <r>   15.2640   -0.0000 </r>
       <r>   16.1875   -0.0000 </r>
       <r>   20.9636    0.0000 </r>
       <r>   22.6265    0.0000 </r>
       <r>   23.2039    0.0000 </r>
       <r>   23.6533    0.0000 </r>
       <r>   23.8031    0.0000 </r>
       <r>   24.5498    0.0000 </r>
      </set>
      <set comment="kpoint 24">
       <r>    1.6881    1.0000 </r>
       <r>    3.8392    1.0000 </r>
       <r>    4.8408    1.0000 </r>
       <r>    4.8604    1.0000 </r>
       <r>    5.0445    1.0000 </r>
       <r>    5.1584    1.0000 </r>
       <r>    5.2368    1.0000 </r>
       <r>    7.5761    1.0000 </r>
       <r>    8.0323    1.0000 </r>
       <r>    8.2097    1.0000 </r>
       <r>    9.3204    1.0000 </r>
       <r>    9.4142    1.0000 </r>
       <r>    9.6528    1.0000 </r>
       <r>    9.8654    1.0000 </r>
       <r>   10.1426    1.0000 </r>
       <r>   10.3987    1.0000 </r>
       <r>   10.5749    1.0000 </r>
       <r>   11.5772    0.4127 </r>
       <r>   11.7238    0.0011 </r>
       <r>   12.0158   -0.0027 </r>
       <r>   12.9083   -0.0000 </r>
       <r>   13.2305   -0.0000 </r>
       <r>   15.0488   -0.0000 </r>
       <r>   16.0470   -0.0000 </r>
       <r>   21.1568    0.0000 </r>
       <r>   22.1114    0.0000 </r>
       <r>   23.1074    0.0000 </r>
       <r>   23.8236    0.0000 </r>
       <r>   23.9214    0.0000 </r>
       <r>   24.7848    0.0000 </r>
      </set>
      <set comment="kpoint 25">
       <r>    1.7341    1.0000 </r>
       <r>    3.8696    1.0000 </r>
       <r>    4.9177    1.0000 </r>
       <r>    4.9854    1.0000 </r>
       <r>    4.9932    1.0000 </r>
       <r>    5.1147    1.0000 </r>
       <r>    5.1406    1.0000 </r>
       <r>    7.5920    1.0000 </r>
       <r>    8.0388    1.0000 </r>
       <r>    8.1841    1.0000 </r>
       <r>    9.2361    1.0000 </r>
       <r>    9.4657    1.0000 </r>
       <r>    9.6023    1.0000 </r>
       <r>    9.9187    1.0000 </r>
       <r>   10.2976    1.0000 </r>
       <r>   10.8035    1.0000 </r>
       <r>   10.8553    1.0000 </r>
       <r>   11.2411    1.0242 </r>
       <r>   11.4279    0.9382 </r>
       <r>   11.6634    0.1113 </r>
       <r>   12.6573   -0.0000 </r>
       <r>   13.0164   -0.0000 </r>
       <r>   15.4582   -0.0000 </r>
       <r>   16.0223   -0.0000 </r>
       <r>   20.7460    0.0000 </r>
       <r>   22.3515    0.0000 </r>
       <r>   23.1817    0.0000 </r>
       <r>   23.6724    0.0000 </r>
       <r>   24.4501    0.0000 </r>
       <r>   24.8743    0.0000 </r>
      </set>
      <set comment="kpoint 26">
       <r>    2.1859    1.0000 </r>
       <r>    4.1753    1.0000 </r>
       <r>    5.0069    1.0000 </r>
       <r>    5.0393    1.0000 </r>
       <r>    5.3771    1.0000 </r>
       <r>    5.4264    1.0000 </r>
       <r>    5.6689    1.0000 </r>
       <r>    7.3552    1.0000 </r>
       <r>    8.1221    1.0000 </r>
       <r>    8.3877    1.0000 </r>
       <r>    8.8792    1.0000 </r>
       <r>    8.9760    1.0000 </r>
       <r>    9.0671    1.0000 </r>
       <r>    9.4504    1.0000 </r>
       <r>    9.7538    1.0000 </r>
       <r>   10.0533    1.0000 </r>
       <r>   10.3493    1.0000 </r>
       <r>   10.9737    1.0002 </r>
       <r>   11.1355    1.0056 </r>
       <r>   11.6255    0.2263 </r>
       <r>   12.1679   -0.0001 </r>
       <r>   13.2765   -0.0000 </r>
       <r>   16.2636   -0.0000 </r>
       <r>   17.3015    0.0000 </r>
       <r>   20.5586    0.0000 </r>
       <r>   21.9700    0.0000 </r>
       <r>   22.2932    0.0000 </r>
       <r>   23.3889    0.0000 </r>
       <r>   24.5643    0.0000 </r>
       <r>   25.2576    0.0000 </r>
      </set>
      <set comment="kpoint 27">
       <r>    2.2954    1.0000 </r>
       <r>    4.2150    1.0000 </r>
       <r>    4.8983    1.0000 </r>
       <r>    5.0721    1.0000 </r>
       <r>    5.3437    1.0000 </r>
       <r>    5.4828    1.0000 </r>
       <r>    5.7013    1.0000 </r>
       <r>    7.5364    1.0000 </r>
       <r>    8.2418    1.0000 </r>
       <r>    8.2808    1.0000 </r>
       <r>    8.8759    1.0000 </r>
       <r>    9.0327    1.0000 </r>
       <r>    9.0569    1.0000 </r>
       <r>    9.6276    1.0000 </r>
       <r>    9.7314    1.0000 </r>
       <r>   10.3771    1.0000 </r>
       <r>   10.6077    1.0000 </r>
       <r>   10.7253    1.0000 </r>
       <r>   11.1699    1.0099 </r>
       <r>   11.4771    0.8082 </r>
       <r>   11.8827   -0.0216 </r>
       <r>   12.0155   -0.0028 </r>
       <r>   16.5820   -0.0000 </r>
       <r>   17.2968    0.0000 </r>
       <r>   20.3801    0.0000 </r>
       <r>   21.9032    0.0000 </r>
       <r>   22.9852    0.0000 </r>
       <r>   23.3365    0.0000 </r>
       <r>   24.4177    0.0000 </r>
       <r>   25.0714    0.0000 </r>
      </set>
      <set comment="kpoint 28">
       <r>    2.3041    1.0000 </r>
       <r>    4.2312    1.0000 </r>
       <r>    5.1134    1.0000 </r>
       <r>    5.2301    1.0000 </r>
       <r>    5.2979    1.0000 </r>
       <r>    5.4286    1.0000 </r>
       <r>    5.5038    1.0000 </r>
       <r>    7.2735    1.0000 </r>
       <r>    8.1815    1.0000 </r>
       <r>    8.3721    1.0000 </r>
       <r>    8.8770    1.0000 </r>
       <r>    8.9673    1.0000 </r>
       <r>    9.0625    1.0000 </r>
       <r>    9.5402    1.0000 </r>
       <r>    9.7424    1.0000 </r>
       <r>    9.9169    1.0000 </r>
       <r>   10.6171    1.0000 </r>
       <r>   11.0910    1.0024 </r>
       <r>   11.1616    1.0087 </r>
       <r>   11.5417    0.5620 </r>
       <r>   11.7121    0.0157 </r>
       <r>   12.6825   -0.0000 </r>
       <r>   16.4435   -0.0000 </r>
       <r>   17.3349    0.0000 </r>
       <r>   20.0365    0.0000 </r>
       <r>   22.2970    0.0000 </r>
       <r>   23.2076    0.0000 </r>
       <r>   23.2262    0.0000 </r>
       <r>   24.4243    0.0000 </r>
       <r>   24.7900    0.0000 </r>
      </set>
      <set comment="kpoint 29">
       <r>    2.2963    1.0000 </r>
       <r>    4.2049    1.0000 </r>
       <r>    4.9104    1.0000 </r>
       <r>    5.0735    1.0000 </r>
       <r>    5.3612    1.0000 </r>
       <r>    5.4335    1.0000 </r>
       <r>    5.7138    1.0000 </r>
       <r>    7.5411    1.0000 </r>
       <r>    8.2386    1.0000 </r>
       <r>    8.2836    1.0000 </r>
       <r>    8.8916    1.0000 </r>
       <r>    8.9699    1.0000 </r>
       <r>    9.0757    1.0000 </r>
       <r>    9.6402    1.0000 </r>
       <r>    9.7755    1.0000 </r>
       <r>   10.2134    1.0000 </r>
       <r>   10.7839    1.0000 </r>
       <r>   10.8116    1.0000 </r>
       <r>   11.2535    1.0270 </r>
       <r>   11.4908    0.7617 </r>
       <r>   11.8187   -0.0344 </r>
       <r>   11.8705   -0.0244 </r>
       <r>   16.4691   -0.0000 </r>
       <r>   17.3683    0.0000 </r>
       <r>   20.3562    0.0000 </r>
       <r>   22.1323    0.0000 </r>
       <r>   23.1645    0.0000 </r>
       <r>   23.1741    0.0000 </r>
       <r>   24.4120    0.0000 </r>
       <r>   24.6225    0.0000 </r>
      </set>
      <set comment="kpoint 30">
       <r>    2.1853    1.0000 </r>
       <r>    4.1793    1.0000 </r>
       <r>    4.9986    1.0000 </r>
       <r>    5.0358    1.0000 </r>
       <r>    5.3539    1.0000 </r>
       <r>    5.4922    1.0000 </r>
       <r>    5.6503    1.0000 </r>
       <r>    7.3229    1.0000 </r>
       <r>    8.1744    1.0000 </r>
       <r>    8.3698    1.0000 </r>
       <r>    8.8491    1.0000 </r>
       <r>    8.9814    1.0000 </r>
       <r>    9.0711    1.0000 </r>
       <r>    9.4444    1.0000 </r>
       <r>    9.7101    1.0000 </r>
       <r>    9.9284    1.0000 </r>
       <r>   10.3482    1.0000 </r>
       <r>   11.1220    1.0044 </r>
       <r>   11.2577    1.0279 </r>
       <r>   11.7514   -0.0223 </r>
       <r>   11.9736   -0.0060 </r>
       <r>   13.2751   -0.0000 </r>
       <r>   16.2847   -0.0000 </r>
       <r>   17.2443    0.0000 </r>
       <r>   20.5687    0.0000 </r>
       <r>   22.0133    0.0000 </r>
       <r>   22.2900    0.0000 </r>
       <r>   23.3205    0.0000 </r>
       <r>   24.5679    0.0000 </r>
       <r>   25.1773    0.0000 </r>
      </set>
      <set comment="kpoint 31">
       <r>    2.3038    1.0000 </r>
       <r>    4.2359    1.0000 </r>
       <r>    5.1163    1.0000 </r>
       <r>    5.2381    1.0000 </r>
       <r>    5.2772    1.0000 </r>
       <r>    5.4302    1.0000 </r>
       <r>    5.5070    1.0000 </r>
       <r>    7.3004    1.0000 </r>
       <r>    8.1309    1.0000 </r>
       <r>    8.3899    1.0000 </r>
       <r>    8.8752    1.0000 </r>
       <r>    9.0324    1.0000 </r>
       <r>    9.0401    1.0000 </r>
       <r>    9.5465    1.0000 </r>
       <r>    9.8469    1.0000 </r>
       <r>    9.9831    1.0000 </r>
       <r>   10.5545    1.0000 </r>
       <r>   10.9102    1.0000 </r>
       <r>   11.0560    1.0011 </r>
       <r>   11.2317    1.0220 </r>
       <r>   12.1302   -0.0002 </r>
       <r>   12.6854   -0.0000 </r>
[...]
       <r>   11.7689   -0.0304 </r>
       <r>   11.9943   -0.0041 </r>
       <r>   12.2871   -0.0000 </r>
       <r>   13.1861   -0.0000 </r>
       <r>   13.4053   -0.0000 </r>
       <r>   18.5126    0.0000 </r>
       <r>   19.0142    0.0000 </r>
       <r>   19.4391    0.0000 </r>
       <r>   20.8540    0.0000 </r>
       <r>   27.8867    0.0000 </r>
       <r>   27.9248    0.0000 </r>
      </set>
      <set comment="kpoint 214">
       <r>    3.9881    1.0000 </r>
       <r>    4.1880    1.0000 </r>
       <r>    4.2812    1.0000 </r>
       <r>    4.7899    1.0000 </r>
       <r>    7.1654    1.0000 </r>
       <r>    7.4209    1.0000 </r>
       <r>    7.5009    1.0000 </r>
       <r>    7.6363    1.0000 </r>
       <r>    7.7306    1.0000 </r>
       <r>    8.0246    1.0000 </r>
       <r>    8.1512    1.0000 </r>
       <r>    8.3292    1.0000 </r>
       <r>    9.3869    1.0000 </r>
       <r>    9.4835    1.0000 </r>
       <r>    9.5350    1.0000 </r>
       <r>    9.8388    1.0000 </r>
       <r>   10.5056    1.0000 </r>
       <r>   11.1127    1.0037 </r>
       <r>   11.3574    1.0246 </r>
       <r>   11.5527    0.5160 </r>
       <r>   12.0259   -0.0022 </r>
       <r>   12.1416   -0.0001 </r>
       <r>   13.4382   -0.0000 </r>
       <r>   13.6690   -0.0000 </r>
       <r>   18.5018    0.0000 </r>
       <r>   18.6699    0.0000 </r>
       <r>   19.4671    0.0000 </r>
       <r>   20.9046    0.0000 </r>
       <r>   27.7382    0.0000 </r>
       <r>   27.8696    0.0000 </r>
      </set>
      <set comment="kpoint 215">
       <r>    3.9867    1.0000 </r>
       <r>    4.1733    1.0000 </r>
       <r>    4.3693    1.0000 </r>
       <r>    4.7435    1.0000 </r>
       <r>    7.1129    1.0000 </r>
       <r>    7.2906    1.0000 </r>
       <r>    7.6259    1.0000 </r>
       <r>    7.7622    1.0000 </r>
       <r>    7.7888    1.0000 </r>
       <r>    8.0690    1.0000 </r>
       <r>    8.1401    1.0000 </r>
       <r>    8.2174    1.0000 </r>
       <r>    9.3444    1.0000 </r>
       <r>    9.4467    1.0000 </r>
       <r>    9.6159    1.0000 </r>
       <r>    9.9537    1.0000 </r>
       <r>   10.4693    1.0000 </r>
       <r>   10.9923    1.0002 </r>
       <r>   11.0702    1.0016 </r>
       <r>   11.8906   -0.0198 </r>
       <r>   12.2817   -0.0000 </r>
       <r>   12.5186   -0.0000 </r>
       <r>   12.8340   -0.0000 </r>
       <r>   13.2703   -0.0000 </r>
       <r>   18.4973    0.0000 </r>
       <r>   19.0565    0.0000 </r>
       <r>   19.4041    0.0000 </r>
       <r>   20.8826    0.0000 </r>
       <r>   27.8497    0.0000 </r>
       <r>   27.9884    0.0000 </r>
      </set>
      <set comment="kpoint 216">
       <r>    3.8351    1.0000 </r>
       <r>    4.0967    1.0000 </r>
       <r>    4.1753    1.0000 </r>
       <r>    4.6209    1.0000 </r>
       <r>    7.2173    1.0000 </r>
       <r>    7.3753    1.0000 </r>
       <r>    7.6004    1.0000 </r>
       <r>    7.6028    1.0000 </r>
       <r>    7.7197    1.0000 </r>
       <r>    8.0497    1.0000 </r>
       <r>    8.1110    1.0000 </r>
       <r>    8.2553    1.0000 </r>
       <r>    9.9669    1.0000 </r>
       <r>   10.0459    1.0000 </r>
       <r>   10.3426    1.0000 </r>
       <r>   10.4759    1.0000 </r>
       <r>   10.7389    1.0000 </r>
       <r>   11.0749    1.0017 </r>
       <r>   11.1145    1.0038 </r>
       <r>   11.6681    0.0997 </r>
       <r>   11.9901   -0.0045 </r>
       <r>   12.2186   -0.0000 </r>
       <r>   12.5621   -0.0000 </r>
       <r>   12.7818   -0.0000 </r>
       <r>   18.3249    0.0000 </r>
       <r>   18.5120    0.0000 </r>
       <r>   18.9686    0.0000 </r>
       <r>   20.5419    0.0000 </r>
       <r>   27.5326    0.0000 </r>
       <r>   27.7463    0.0000 </r>
      </set>
     </set>
    </set>
   </array>
  </eigenvalues>
  <separator name="orbital magnetization" >
   <v name="MAGDIPOLOUT">      0.00000000      0.00000000      0.00000000</v>
  </separator>
  <dos>
   <i name="efermi">     11.55643719 </i>
   <total>
    <array>
     <dimension dim="1">gridpoints</dimension>
     <dimension dim="2">spin</dimension>
     <field>energy</field>
     <field>total</field>
     <field>integrated</field>
     <set>
      <set comment="spin 1">
       <r>    -0.8707     0.0000     0.0000 </r>
       <r>    -0.7668     0.0000     0.0000 </r>
       <r>    -0.6629     0.0000     0.0000 </r>
       <r>    -0.5590    -0.0000    -0.0000 </r>
       <r>    -0.4551    -0.0000    -0.0000 </r>
       <r>    -0.3512    -0.0000    -0.0000 </r>
       <r>    -0.2473    -0.0000    -0.0000 </r>
       <r>    -0.1434    -0.0000    -0.0000 </r>
       <r>    -0.0395    -0.0000    -0.0000 </r>
       <r>     0.0644    -0.0000    -0.0000 </r>
       <r>     0.1683    -0.0000    -0.0000 </r>
       <r>     0.2723    -0.0000    -0.0000 </r>
       <r>     0.3762    -0.0000    -0.0000 </r>
       <r>     0.4801    -0.0000    -0.0000 </r>
       <r>     0.5840    -0.0000    -0.0000 </r>
       <r>     0.6879    -0.0001    -0.0000 </r>
       <r>     0.7918    -0.0005    -0.0001 </r>
       <r>     0.8957    -0.0017    -0.0002 </r>
       <r>     0.9996    -0.0024    -0.0005 </r>
       <r>     1.1035     0.0056     0.0001 </r>
       <r>     1.2074     0.0354     0.0038 </r>
       <r>     1.3113     0.0834     0.0125 </r>
       <r>     1.4152     0.1144     0.0243 </r>
       <r>     1.5191     0.1136     0.0361 </r>
       <r>     1.6230     0.1392     0.0506 </r>
       <r>     1.7269     0.2201     0.0735 </r>
       <r>     1.8308     0.2520     0.0996 </r>
       <r>     1.9347     0.1841     0.1188 </r>
       <r>     2.0386     0.1635     0.1358 </r>
       <r>     2.1425     0.2587     0.1626 </r>
       <r>     2.2464     0.3345     0.1974 </r>
       <r>     2.3503     0.3206     0.2307 </r>
       <r>     2.4542     0.2919     0.2610 </r>
       <r>     2.5581     0.3435     0.2967 </r>
       <r>     2.6620     0.4232     0.3407 </r>
       <r>     2.7659     0.3839     0.3806 </r>
       <r>     2.8698     0.3073     0.4125 </r>
       <r>     2.9737     0.3650     0.4505 </r>
       <r>     3.0776     0.5366     0.5062 </r>
       <r>     3.1815     0.6696     0.5758 </r>
       <r>     3.2854     0.6769     0.6461 </r>
       <r>     3.3893     0.5666     0.7050 </r>
       <r>     3.4933     0.4994     0.7569 </r>
       <r>     3.5972     0.7209     0.8318 </r>
       <r>     3.7011     1.0669     0.9426 </r>
       <r>     3.8050     1.1746     1.0647 </r>
       <r>     3.9089     1.1855     1.1879 </r>
       <r>     4.0128     1.5281     1.3466 </r>
       <r>     4.1167     2.0695     1.5617 </r>
       <r>     4.2206     2.3512     1.8060 </r>
       <r>     4.3245     2.3399     2.0491 </r>
       <r>     4.4284     2.2867     2.2867 </r>
       <r>     4.5323     2.3603     2.5319 </r>
       <r>     4.6362     2.7713     2.8199 </r>
       <r>     4.7401     3.6132     3.1953 </r>
       <r>     4.8440     4.3428     3.6465 </r>
       <r>     4.9479     4.6588     4.1306 </r>
       <r>     5.0518     4.9490     4.6448 </r>
       <r>     5.1557     5.2880     5.1942 </r>
       <r>     5.2596     5.5840     5.7744 </r>
       <r>     5.3635     5.8513     6.3824 </r>
       <r>     5.4674     5.8438     6.9896 </r>
       <r>     5.5713     5.4988     7.5609 </r>
       <r>     5.6752     5.1470     8.0957 </r>
       <r>     5.7791     5.0812     8.6237 </r>
       <r>     5.8830     5.1574     9.1595 </r>
       <r>     5.9869     4.9323     9.6720 </r>
       <r>     6.0908     4.3457    10.1236 </r>
       <r>     6.1947     3.8502    10.5236 </r>
       <r>     6.2986     3.7166    10.9098 </r>
       <r>     6.4025     3.7779    11.3023 </r>
       <r>     6.5064     3.7805    11.6951 </r>
       <r>     6.6103     3.6957    12.0791 </r>
       <r>     6.7142     3.7161    12.4652 </r>
       <r>     6.8182     4.0167    12.8826 </r>
       <r>     6.9221     4.5587    13.3562 </r>
       <r>     7.0260     5.1590    13.8923 </r>
       <r>     7.1299     5.7679    14.4916 </r>
       <r>     7.2338     6.1677    15.1324 </r>
       <r>     7.3377     5.9778    15.7535 </r>
       <r>     7.4416     5.3343    16.3078 </r>
       <r>     7.5455     4.8986    16.8168 </r>
       <r>     7.6494     4.9081    17.3267 </r>
       <r>     7.7533     5.0172    17.8480 </r>
       <r>     7.8572     5.4844    18.4179 </r>
       <r>     7.9611     6.7933    19.1237 </r>
       <r>     8.0650     8.5958    20.0169 </r>
       <r>     8.1689    10.0528    21.0614 </r>
       <r>     8.2728    10.2515    22.1265 </r>
       <r>     8.3767     8.9524    23.0567 </r>
       <r>     8.4806     7.2965    23.8149 </r>
       <r>     8.5845     6.5051    24.4907 </r>
       <r>     8.6884     6.5476    25.1711 </r>
       <r>     8.7923     6.8361    25.8814 </r>
       <r>     8.8962     7.0418    26.6130 </r>
       <r>     9.0001     7.3051    27.3721 </r>
       <r>     9.1040     7.4470    28.1458 </r>
       <r>     9.2079     6.6778    28.8397 </r>
       <r>     9.3118     5.4004    29.4008 </r>
       <r>     9.4157     4.8810    29.9079 </r>
       <r>     9.5196     4.9619    30.4235 </r>
       <r>     9.6235     4.5671    30.8980 </r>
       <r>     9.7274     3.7246    31.2850 </r>
       <r>     9.8313     3.1092    31.6081 </r>
       <r>     9.9352     2.8715    31.9064 </r>
       <r>    10.0391     3.0476    32.2231 </r>
       <r>    10.1431     3.7818    32.6160 </r>
       <r>    10.2470     4.9345    33.1287 </r>
       <r>    10.3509     5.9921    33.7513 </r>
       <r>    10.4548     6.5186    34.4286 </r>
       <r>    10.5587     6.3295    35.0863 </r>
       <r>    10.6626     5.6741    35.6758 </r>
       <r>    10.7665     5.1645    36.2125 </r>
       <r>    10.8704     4.9395    36.7257 </r>
       <r>    10.9743     4.6551    37.2094 </r>
       <r>    11.0782     4.6004    37.6874 </r>
       <r>    11.1821     5.1710    38.2246 </r>
       <r>    11.2860     5.6161    38.8082 </r>
       <r>    11.3899     5.1252    39.3407 </r>
       <r>    11.4938     4.1555    39.7725 </r>
       <r>    11.5977     3.5816    40.1446 </r>
       <r>    11.7016     3.4941    40.5077 </r>
       <r>    11.8055     3.5236    40.8738 </r>
       <r>    11.9094     3.3191    41.2186 </r>
       <r>    12.0133     2.9343    41.5235 </r>
       <r>    12.1172     2.8207    41.8166 </r>
       <r>    12.2211     2.9132    42.1193 </r>
       <r>    12.3250     2.7481    42.4048 </r>
       <r>    12.4289     2.3429    42.6483 </r>
       <r>    12.5328     1.9351    42.8493 </r>
       <r>    12.6367     1.5160    43.0068 </r>
       <r>    12.7406     1.2034    43.1319 </r>
       <r>    12.8445     1.1848    43.2550 </r>
       <r>    12.9484     1.2340    43.3832 </r>
       <r>    13.0523     1.0794    43.4954 </r>
       <r>    13.1562     0.9252    43.5915 </r>
       <r>    13.2601     0.9504    43.6902 </r>
       <r>    13.3640     0.9321    43.7871 </r>
       <r>    13.4680     0.7499    43.8650 </r>
       <r>    13.5719     0.5761    43.9249 </r>
       <r>    13.6758     0.5196    43.9788 </r>
       <r>    13.7797     0.5897    44.0401 </r>
       <r>    13.8836     0.7273    44.1157 </r>
       <r>    13.9875     0.7390    44.1925 </r>
       <r>    14.0914     0.6670    44.2618 </r>
       <r>    14.1953     0.6950    44.3340 </r>
       <r>    14.2992     0.7144    44.4082 </r>
       <r>    14.4031     0.6562    44.4764 </r>
       <r>    14.5070     0.6899    44.5481 </r>
       <r>    14.6109     0.7967    44.6309 </r>
       <r>    14.7148     0.8097    44.7150 </r>
       <r>    14.8187     0.7622    44.7942 </r>
       <r>    14.9226     0.7629    44.8734 </r>
       <r>    15.0265     0.8522    44.9620 </r>
       <r>    15.1304     1.0469    45.0708 </r>
       <r>    15.2343     1.3044    45.2063 </r>
       <r>    15.3382     1.4281    45.3547 </r>
       <r>    15.4421     1.3391    45.4938 </r>
       <r>    15.5460     1.2619    45.6249 </r>
       <r>    15.6499     1.2723    45.7571 </r>
       <r>    15.7538     1.2325    45.8852 </r>
       <r>    15.8577     1.0734    45.9967 </r>
       <r>    15.9616     0.7944    46.0793 </r>
       <r>    16.0655     0.5966    46.1413 </r>
       <r>    16.1694     0.6395    46.2077 </r>
       <r>    16.2733     0.6951    46.2799 </r>
       <r>    16.3772     0.6905    46.3517 </r>
       <r>    16.4811     0.8219    46.4371 </r>
       <r>    16.5850     1.0196    46.5430 </r>
       <r>    16.6890     1.1531    46.6628 </r>
       <r>    16.7929     1.1774    46.7852 </r>
       <r>    16.8968     1.0156    46.8907 </r>
       <r>    17.0007     0.6902    46.9624 </r>
       <r>    17.1046     0.3811    47.0020 </r>
       <r>    17.2085     0.3470    47.0381 </r>
       <r>    17.3124     0.6390    47.1044 </r>
       <r>    17.4163     0.9264    47.2007 </r>
       <r>    17.5202     0.9559    47.3000 </r>
       <r>    17.6241     0.7656    47.3796 </r>
       <r>    17.7280     0.4627    47.4277 </r>
       <r>    17.8319     0.2075    47.4492 </r>
       <r>    17.9358     0.1883    47.4688 </r>
       <r>    18.0397     0.4373    47.5142 </r>
       <r>    18.1436     0.7277    47.5898 </r>
       <r>    18.2475     0.9191    47.6853 </r>
       <r>    18.3514     1.1892    47.8089 </r>
       <r>    18.4553     1.5379    47.9687 </r>
       <r>    18.5592     1.6343    48.1385 </r>
       <r>    18.6631     1.3550    48.2793 </r>
       <r>    18.7670     1.0442    48.3878 </r>
       <r>    18.8709     0.9825    48.4899 </r>
       <r>    18.9748     1.0846    48.6026 </r>
       <r>    19.0787     1.2474    48.7322 </r>
       <r>    19.1826     1.3458    48.8720 </r>
       <r>    19.2865     1.2788    49.0049 </r>
       <r>    19.3904     1.2112    49.1307 </r>
       <r>    19.4943     1.2609    49.2617 </r>
       <r>    19.5982     1.2702    49.3937 </r>
       <r>    19.7021     1.2016    49.5186 </r>
       <r>    19.8060     1.1830    49.6415 </r>
       <r>    19.9099     1.2007    49.7662 </r>
       <r>    20.0139     1.1820    49.8890 </r>
       <r>    20.1178     1.0871    50.0020 </r>
       <r>    20.2217     0.9874    50.1046 </r>
       <r>    20.3256     1.0503    50.2137 </r>
       <r>    20.4295     1.1821    50.3365 </r>
       <r>    20.5334     1.1387    50.4548 </r>
       <r>    20.6373     0.9613    50.5547 </r>
       <r>    20.7412     0.8908    50.6473 </r>
       <r>    20.8451     1.0027    50.7515 </r>
       <r>    20.9490     1.2055    50.8767 </r>
       <r>    21.0529     1.3697    51.0190 </r>
       <r>    21.1568     1.3310    51.1573 </r>
       <r>    21.2607     1.1599    51.2778 </r>
       <r>    21.3646     1.0976    51.3919 </r>
       <r>    21.4685     1.1364    51.5100 </r>
       <r>    21.5724     1.1977    51.6344 </r>
       <r>    21.6763     1.3379    51.7734 </r>
       <r>    21.7802     1.4729    51.9265 </r>
       <r>    21.8841     1.3867    52.0705 </r>
       <r>    21.9880     1.1291    52.1879 </r>
       <r>    22.0919     0.9787    52.2896 </r>
       <r>    22.1958     1.0779    52.4016 </r>
       <r>    22.2997     1.3583    52.5427 </r>
       <r>    22.4036     1.5749    52.7063 </r>
       <r>    22.5075     1.5432    52.8667 </r>
       <r>    22.6114     1.3448    53.0064 </r>
       <r>    22.7153     1.1265    53.1234 </r>
       <r>    22.8192     0.9828    53.2256 </r>
       <r>    22.9231     1.0361    53.3332 </r>
       <r>    23.0270     1.3577    53.4743 </r>
       <r>    23.1309     1.8008    53.6614 </r>
       <r>    23.2348     2.1138    53.8810 </r>
       <r>    23.3388     2.1462    54.1040 </r>
       <r>    23.4427     1.9311    54.3047 </r>
       <r>    23.5466     1.6758    54.4788 </r>
       <r>    23.6505     1.6468    54.6499 </r>
       <r>    23.7544     1.7670    54.8335 </r>
       <r>    23.8583     1.7183    55.0120 </r>
       <r>    23.9622     1.5696    55.1751 </r>
       <r>    24.0661     1.5265    55.3337 </r>
       <r>    24.1700     1.4785    55.4874 </r>
       <r>    24.2739     1.3553    55.6282 </r>
       <r>    24.3778     1.2878    55.7620 </r>
       <r>    24.4817     1.4217    55.9097 </r>
       <r>    24.5856     1.7225    56.0887 </r>
       <r>    24.6895     1.9406    56.2903 </r>
       <r>    24.7934     2.0400    56.5023 </r>
       <r>    24.8973     2.1561    56.7263 </r>
       <r>    25.0012     2.1330    56.9479 </r>
       <r>    25.1051     1.8289    57.1379 </r>
       <r>    25.2090     1.5142    57.2953 </r>
       <r>    25.3129     1.4655    57.4475 </r>
       <r>    25.4168     1.5683    57.6105 </r>
       <r>    25.5207     1.5599    57.7726 </r>
       <r>    25.6246     1.3516    57.9130 </r>
       <r>    25.7285     1.1863    58.0363 </r>
       <r>    25.8324     1.3040    58.1718 </r>
       <r>    25.9363     1.4142    58.3187 </r>
       <r>    26.0402     1.2517    58.4488 </r>
       <r>    26.1441     1.1105    58.5641 </r>
       <r>    26.2480     1.1843    58.6872 </r>
       <r>    26.3519     1.2883    58.8211 </r>
       <r>    26.4558     1.2570    58.9517 </r>
       <r>    26.5598     1.0438    59.0601 </r>
       <r>    26.6637     0.7192    59.1349 </r>
       <r>    26.7676     0.5398    59.1909 </r>
       <r>    26.8715     0.5514    59.2482 </r>
       <r>    26.9754     0.5290    59.3032 </r>
       <r>    27.0793     0.4522    59.3502 </r>
       <r>    27.1832     0.4482    59.3967 </r>
       <r>    27.2871     0.5021    59.4489 </r>
       <r>    27.3910     0.5080    59.5017 </r>
       <r>    27.4949     0.4191    59.5452 </r>
       <r>    27.5988     0.3609    59.5827 </r>
       <r>    27.7027     0.4529    59.6298 </r>
       <r>    27.8066     0.5962    59.6917 </r>
       <r>    27.9105     0.6625    59.7606 </r>
       <r>    28.0144     0.6477    59.8279 </r>
       <r>    28.1183     0.6261    59.8929 </r>
       <r>    28.2222     0.5636    59.9515 </r>
       <r>    28.3261     0.3657    59.9895 </r>
       <r>    28.4300     0.1260    60.0026 </r>
       <r>    28.5339    -0.0001    60.0026 </r>
       <r>    28.6378    -0.0172    60.0008 </r>
       <r>    28.7417    -0.0063    60.0001 </r>
       <r>    28.8456    -0.0011    60.0000 </r>
       <r>    28.9495    -0.0001    60.0000 </r>
       <r>    29.0534    -0.0000    60.0000 </r>
       <r>    29.1573    -0.0000    60.0000 </r>
       <r>    29.2612    -0.0000    60.0000 </r>
       <r>    29.3651    -0.0000    60.0000 </r>
       <r>    29.4690    -0.0000    60.0000 </r>
       <r>    29.5729    -0.0000    60.0000 </r>
       <r>    29.6768     0.0000    60.0000 </r>
       <r>    29.7807     0.0000    60.0000 </r>
       <r>    29.8847     0.0000    60.0000 </r>
       <r>    29.9886     0.0000    60.0000 </r>
       <r>    30.0925     0.0000    60.0000 </r>
       <r>    30.1964     0.0000    60.0000 </r>
       <r>    30.3003     0.0000    60.0000 </r>
      </set>
     </set>
    </array>
   </total>
  </dos>
 </calculation>
 <structure name="finalpos" >
  <crystal>
   <varray name="basis" >
    <v>       3.69460076       0.00000000       0.00000000 </v>
    <v>       0.00000000       3.69460076       0.00000000 </v>
    <v>       0.00000000       0.00000000       3.69460076 </v>
   </varray>
   <i name="volume">     50.43157652 </i>
   <varray name="rec_basis" >
    <v>       0.27066524       0.00000000       0.00000000 </v>
    <v>       0.00000000       0.27066524       0.00000000 </v>
    <v>       0.00000000       0.00000000       0.27066524 </v>
   </varray>
  </crystal>
  <varray name="positions" >
   <v>       0.00000000       0.00000000       0.00000000 </v>
   <v>       0.50000000       0.50000000       0.00000000 </v>
   <v>       0.50000000       0.00000000       0.50000000 </v>
   <v>       0.00000000       0.50000000       0.50000000 </v>
  </varray>
 </structure>
</modeling>
