unknown system                          
   1.00000000000000     
     2.423200    0.000000    0.000000
    -1.211600    2.098553    0.000000
     0.000000    0.000000    4.306640
   Fe
     2
Direct
  0.000000  0.000000  0.000000
  0.333333  0.666667  0.500000
 
   20   20   36
  184.21      173.80      146.00      109.21      72.618      42.948      23.253      13.183      9.7015      8.5990    
  8.2335      8.5999      9.7023      13.183      23.252      42.948      72.619      109.21      146.00      173.80    
  173.81      173.80      154.74      122.68      86.535      54.210      30.467      16.555      10.675      8.9454    
  8.2280      8.2267      8.9440      10.676      16.557      30.466      54.208      86.542      122.70      154.76    
  146.02      154.72      146.00      122.68      91.723      60.903      36.051      19.863      11.908      9.2628    
  8.2584      7.9208      8.2552      9.2618      11.911      19.864      36.045      60.897      91.729      122.70    
  109.20      122.62      122.62      109.21      86.535      60.902      38.152      21.915      12.983      9.5483    
  8.3133      7.7082      7.7073      8.3122      9.5491      12.985      21.913      38.145      60.890      86.523    
  72.595      86.430      91.591      86.449      72.618      54.209      36.051      21.915      13.411      9.7427    
  8.3671      7.5864      7.3380      7.5875      8.3677      9.7432      13.414      21.921      36.051      54.196    
  42.946      54.132      60.768      60.774      54.143      42.947      30.467      19.864      12.983      9.7425    
  8.3898      7.5349      7.1344      7.1357      7.5360      8.3878      9.7413      12.990      19.879      30.479    
  23.269      30.464      36.000      38.076      35.994      30.451      23.253      16.555      11.909      9.5477    
  8.3673      7.5350      7.0703      6.9285      7.0720      7.5338      8.3614      9.5421      11.911      16.568    
  13.181      16.592      19.906      21.941      21.933      19.890      16.581      13.183      10.675      9.2621    
  8.3132      7.5867      7.1341      6.9285      6.9296      7.1361      7.5861      8.3063      9.2494      10.663    
  9.6830      10.705      11.983      13.078      13.507      13.072      11.982      10.718      9.7019      8.9451    
  8.2580      7.7087      7.3379      7.1355      7.0725      7.1362      7.3421      7.7146      8.2575      8.9325    
  8.5989      8.9796      9.3369      9.6602      9.8773      9.8794      9.6676      9.3493      8.9904      8.5993    
  8.2276      7.9213      7.7077      7.5871      7.5363      7.5341      7.5854      7.7144      7.9356      8.2392    
  8.2506      8.2880      8.3533      8.4410      8.5234      8.5601      8.5295      8.4470      8.3515      8.2759    
  8.2335      8.2267      8.2557      8.3118      8.3673      8.3880      8.3608      8.3059      8.2584      8.2395    
  8.5980      8.2877      8.0350      7.8611      7.7687      7.7372      7.7390      7.7696      7.8537      8.0208    
  8.2770      8.5993      8.9441      9.2617      9.5484      9.7433      9.7417      9.5420      9.2500      8.9330    
  9.6823      8.9791      8.3542      7.8613      7.5328      7.3577      7.3054      7.3575      7.5288      7.8547    
  8.3537      8.9914      9.7019      10.676      11.911      12.985      13.415      12.990      11.911      10.663    
  13.182      10.706      9.3375      8.4413      7.7681      7.3577      7.1742      7.1733      7.3562      7.7692    
  8.4483      9.3496      10.716      13.183      16.557      19.864      21.914      21.921      19.878      16.567    
  23.270      16.592      11.982      9.6600      8.5229      7.7372      7.3059      7.1731      7.3032      7.7378    
  8.5295      9.6669      11.980      16.579      23.253      30.466      36.045      38.145      36.051      30.479    
  42.946      30.464      19.905      13.077      9.8777      8.5603      7.7393      7.3572      7.3559      7.7380    
  8.5620      9.8786      13.070      19.890      30.452      42.947      54.207      60.897      60.891      54.197    
  72.595      54.131      36.000      21.941      13.507      9.8795      8.5292      7.7694      7.5287      7.7697    
  8.5296      9.8783      13.502      21.935      36.000      54.145      72.618      86.543      91.729      86.524    
  109.20      86.429      60.768      38.077      21.934      13.072      9.6670      8.4472      7.8541      7.8548    
  8.4482      9.6664      13.070      21.935      38.084      60.780      86.441      109.21      122.70      122.70    
  146.02      122.62      91.592      60.775      35.994      19.889      11.982      9.3499      8.3520      8.0203    
  8.3533      9.3496      11.980      19.890      36.000      60.780      91.585      122.60      146.00      154.76    
  173.81      154.73      122.62      86.448      54.143      30.450      16.581      10.718      8.9905      8.2752    
  8.2766      8.9920      10.717      16.579      30.452      54.145      86.441      122.60      154.70      173.80    
  173.99      164.16      137.92      103.13      68.519      40.502      22.020      12.691      9.5154      8.4533    
  8.0993      8.4542      9.5161      12.691      22.019      40.502      68.519      103.13      137.92      164.16    
  164.17      164.16      146.17      115.87      81.673      51.112      28.756      15.783      10.393      8.7837    
  8.0883      8.0870      8.7823      10.394      15.785      28.755      51.110      81.679      115.89      146.19    
  137.93      146.16      137.92      115.87      86.577      57.426      33.989      18.840      11.503      9.0857    
  8.1129      7.7874      8.1099      9.0847      11.505      18.840      33.984      57.421      86.582      115.89    
  103.12      115.82      115.83      103.13      81.673      57.425      35.962      20.742      12.475      9.3437    
  8.1625      7.5795      7.5787      8.1615      9.3443      12.477      20.741      35.955      57.415      81.662    
  68.498      81.594      86.481      81.611      68.519      51.111      33.989      20.743      12.864      9.5158    
  8.2123      7.4605      7.2224      7.4616      8.2128      9.5161      12.867      20.747      33.990      51.099    
  40.500      51.064      57.339      57.345      51.074      40.502      28.756      18.841      12.475      9.5156    
  8.2334      7.4100      7.0264      7.0277      7.4111      8.2316      9.5145      12.482      18.854      28.767    
  22.034      28.777      33.986      35.942      33.980      28.765      22.019      15.784      11.503      9.3431    
  8.2124      7.4101      6.9648      6.8294      6.9665      7.4092      8.2071      9.3380      11.505      15.796    
  12.690      15.840      18.921      20.820      20.813      18.906      15.830      12.691      10.393      9.0851    
  8.1624      7.4608      7.0261      6.8293      6.8303      7.0279      7.4602      8.1562      9.0734      10.382    
  9.4983      10.440      11.608      12.612      13.007      12.607      11.608      10.451      9.5157      8.7834    
  8.1126      7.5800      7.2222      7.0275      6.9670      7.0280      7.2259      7.5854      8.1121      8.7718    
  8.4532      8.8308      9.1847      9.4896      9.6894      9.6913      9.4963      9.1960      8.8407      8.4535    
  8.0879      7.7878      7.5791      7.4611      7.4115      7.4094      7.4595      7.5851      7.8010      8.0985    
  8.1149      8.1576      8.2273      8.3173      8.3998      8.4361      8.4054      8.3226      8.2256      8.1465    
  8.0993      8.0870      8.1104      8.1611      8.2124      8.2318      8.2066      8.1558      8.1129      8.0988    
  8.4523      8.1573      7.9181      7.7541      7.6672      7.6376      7.6393      7.6680      7.7473      7.9051    
  8.1475      8.4536      8.7825      9.0846      9.3436      9.5163      9.5149      9.3379      9.0740      8.7723    
  9.4977      8.8303      8.2282      7.7543      7.4385      7.2701      7.2197      7.2701      7.4351      7.7483    
  8.2277      8.8417      9.5158      10.395      11.505      12.477      12.868      12.482      11.505      10.382    
  12.690      10.440      9.1853      8.3176      7.6665      7.2701      7.0926      7.0919      7.2688      7.6677    
  8.3239      9.1963      10.450      12.691      15.786      18.840      20.741      20.747      18.853      15.795    
  22.035      15.840      11.607      9.4894      8.3994      7.6376      7.2202      7.0917      7.2176      7.6380    
  8.4054      9.4957      11.605      15.828      22.019      28.755      33.984      35.955      33.989      28.767    
  40.501      28.777      18.920      12.612      9.6898      8.4364      7.6396      7.2698      7.2685      7.6383    
  8.4378      9.6907      12.606      18.906      28.767      40.502      51.109      57.420      57.415      51.100    
  68.498      51.063      33.986      20.820      13.008      9.6914      8.4051      7.6679      7.4349      7.6681    
  8.4055      9.6904      13.003      20.814      33.986      51.075      68.519      81.679      86.583      81.662    
  103.12      81.593      57.340      35.943      20.813      12.607      9.4956      8.3229      7.7477      7.7484    
  8.3239      9.4952      12.606      20.814      35.949      57.350      81.605      103.13      115.89      115.89    
  137.93      115.82      86.481      57.346      33.980      18.905      11.607      9.1966      8.2261      7.9045    
  8.2273      9.1963      11.605      18.907      33.986      57.350      86.475      115.81      137.92      146.19    
  164.17      146.16      115.83      81.611      51.073      28.765      15.830      10.452      8.8408      8.1459    
  8.1471      8.8423      10.450      15.828      28.766      51.076      81.605      115.81      146.14      164.16    
  146.64      138.37      116.23      86.801      57.521      33.995      18.798      11.441      9.0212      8.0561    
  7.7355      8.0569      9.0218      11.440      18.797      33.994      57.521      86.801      116.23      138.37    
  138.38      138.37      123.19      97.568      68.611      42.832      24.244      13.798      9.6727      8.3377    
  7.7066      7.7055      8.3364      9.6740      13.800      24.244      42.830      68.616      97.583      123.21    
  116.24      123.20      116.23      97.569      72.751      48.117      28.527      16.181      10.471      8.5985    
  7.7132      7.4217      7.7106      8.5976      10.473      16.182      28.523      48.113      72.754      97.582    
  86.796      97.564      97.566      86.802      68.611      48.117      30.150      17.684      11.180      8.8004    
  7.7458      7.2255      7.2248      7.7449      8.8007      11.181      17.682      30.145      48.108      68.602    
  57.505      68.603      72.749      68.616      57.521      42.831      28.527      17.684      11.467      8.9221    
  7.7828      7.1126      6.9028      7.1136      7.7833      8.9220      11.469      17.687      28.527      42.822    
  33.993      42.861      48.157      48.162      42.869      33.994      24.244      16.182      11.180      8.9219    
  7.7991      7.0642      6.7271      6.7282      7.0654      7.7978      8.9209      11.185      16.192      24.253    
  18.809      24.331      28.649      30.280      28.645      24.322      18.797      13.798      10.471      8.7999    
  7.7830      7.0642      6.6719      6.5534      6.6734      7.0637      7.7791      8.7963      10.473      13.807    
  11.439      13.907      16.368      17.903      17.898      16.357      13.900      11.441      9.6731      8.5979    
  7.7458      7.1128      6.7268      6.5534      6.5541      6.7280      7.1124      7.7411      8.5892      9.6647    
  9.0079      9.7666      10.665      11.439      11.745      11.435      10.664      9.7754      9.0215      8.3374    
  7.7129      7.2260      6.9027      6.7280      6.6738      6.7281      6.9051      7.2298      7.7124      8.3284    
  8.0561      8.4254      8.7753      9.0526      9.2175      9.2188      9.0574      8.7837      8.4329      8.0563    
  7.7063      7.4222      7.2251      7.1132      7.0657      7.0640      7.1117      7.2296      7.4322      7.7144    
  7.7475      7.8081      7.8937      7.9938      8.0800      8.1163      8.0840      7.9976      7.8922      7.7996    
  7.7355      7.7055      7.7110      7.7445      7.7830      7.7981      7.7787      7.7408      7.7132      7.7147    
  8.0553      7.8078      7.6120      7.4820      7.4165      7.3959      7.3972      7.4172      7.4770      7.6021    
  7.8004      8.0564      8.3366      8.5975      8.8001      8.9221      8.9213      8.7962      8.5897      8.3288    
  9.0074      8.4250      7.8944      7.4822      7.2106      7.0671      7.0246      7.0675      7.2084      7.4778    
  7.8940      8.4337      9.0215      9.6743      10.473      11.181      11.469      11.185      10.472      9.6647    
  11.440      9.7667      8.7758      7.9940      7.4159      7.0671      6.9119      6.9114      7.0663      7.4168    
  7.9987      8.7841      9.7742      11.441      13.800      16.182      17.683      17.687      16.191      13.807    
  18.810      13.907      10.664      9.0524      8.0796      7.3959      7.0250      6.9113      7.0227      7.3959    
  8.0840      9.0571      10.663      13.898      18.797      24.244      28.522      30.144      28.527      24.253    
  33.994      24.331      16.367      11.439      9.2178      8.1164      7.3975      7.0672      7.0661      7.3961    
  8.1173      9.2186      11.434      16.357      24.323      33.994      42.829      48.113      48.109      42.823    
  57.505      42.860      28.649      17.903      11.746      9.2189      8.0838      7.4171      7.2083      7.4172    
  8.0842      9.2183      11.743      17.899      28.649      42.870      57.521      68.616      72.755      68.603    
  86.796      68.602      48.158      30.281      17.898      11.435      9.0568      7.9978      7.4773      7.4779    
  7.9987      9.0567      11.434      17.899      30.286      48.166      68.611      86.802      97.584      97.581    
  116.24      97.564      72.749      48.162      28.645      16.356      10.664      8.7843      7.8926      7.6016    
  7.8937      8.7841      10.663      16.357      28.649      48.166      72.745      97.551      116.23      123.21    
  138.38      123.20      97.566      68.615      42.868      24.322      13.900      9.7759      8.4330      7.7989    
  7.8001      8.4343      9.7746      13.898      24.323      42.870      68.611      97.551      123.18      138.37    
  110.29      104.04      87.279      64.988      42.927      25.538      14.782      9.9568      8.3384      7.5076    
  7.2386      7.5083      8.3389      9.9565      14.782      25.538      42.927      64.988      87.279      104.04    
  104.04      104.04      92.540      73.114      51.211      31.954      18.501      11.394      8.7836      7.7102    
  7.1789      7.1781      7.7093      8.7847      11.396      18.501      31.953      51.214      73.123      92.552    
  87.287      92.564      87.279      73.115      54.315      35.833      21.495      12.905      9.2345      7.9036    
  7.1542      6.9133      7.1521      7.9027      9.2362      12.906      21.494      35.830      54.317      73.122    
  64.986      73.165      73.166      64.989      51.211      35.833      22.643      13.882      9.6312      8.0537    
  7.1573      6.7290      6.7285      7.1566      8.0537      9.6315      13.881      22.640      35.828      51.206    
  42.918      51.294      54.435      51.302      42.927      31.953      21.496      13.882      9.7936      8.1353    
  7.1722      6.6205      6.4509      6.6214      7.1725      8.1348      9.7939      13.884      21.496      31.948    
  25.537      32.084      36.038      36.041      32.089      25.538      18.500      12.906      9.6312      8.1351    
  7.1800      6.5725      6.3000      6.3009      6.5737      7.1794      8.1344      9.6341      12.913      18.506    
  14.789      18.675      21.784      22.970      21.781      18.670      14.782      11.394      9.2346      8.0533    
  7.1722      6.5725      6.2528      6.1570      6.2538      6.5725      7.1702      8.0514      9.2362      11.400    
  9.9555      11.577      13.238      14.294      14.291      13.232      11.573      9.9568      8.7839      7.9031    
  7.1573      6.6207      6.2998      6.1570      6.1573      6.3003      6.6204      7.1546      7.8978      8.7786    
  8.3300      8.9479      9.5599      10.068      10.268      10.066      9.5598      8.9536      8.3386      7.7100    
  7.1539      6.7294      6.4508      6.3008      6.2542      6.3004      6.4517      6.7315      7.1535      7.7042    
  7.5077      7.8633      8.2050      8.4759      8.6254      8.6260      8.4784      8.2099      7.8679      7.5078    
  7.1786      6.9137      6.7288      6.6211      6.5739      6.5727      6.6198      6.7313      6.9199      7.1837    
  7.2461      7.3367      7.4490      7.5673      7.6617      7.6992      7.6639      7.5693      7.4479      7.3314    
  7.2386      7.1780      7.1524      7.1562      7.1722      7.1796      7.1698      7.1543      7.1542      7.1839    
  7.5070      7.3365      7.2115      7.1385      7.1106      7.1073      7.1082      7.1112      7.1355      7.2054    
  7.3320      7.5079      7.7094      7.9027      8.0531      8.1349      8.1347      8.0514      7.8983      7.7046    
  8.3295      7.8630      7.4497      7.1387      6.9415      6.8418      6.8135      6.8426      6.9407      7.1361    
  7.4493      7.8685      8.3387      8.7849      9.2360      9.6316      9.7945      9.6342      9.2359      8.7786    
  9.9558      8.9480      8.2055      7.5675      7.1101      6.8418      6.7253      6.7252      6.8416      7.1108    
  7.5702      8.2103      8.9526      9.9569      11.396      12.906      13.881      13.884      12.912      11.400    
  14.790      11.577      9.5596      8.4757      7.6614      7.1073      6.8138      6.7251      6.8121      7.1069    
  7.6639      8.4785      9.5583      11.571      14.782      18.501      21.493      22.639      21.495      18.506    
  25.538      18.675      13.237      10.068      8.6256      7.6993      7.1084      6.8424      6.8414      7.1071    
  7.6996      8.6262      10.065      13.231      18.669      25.538      31.952      35.830      35.828      31.948    
  42.917      32.083      21.783      14.295      10.269      8.6260      7.6637      7.1111      6.9406      7.1112    
  7.6640      8.6260      10.267      14.292      21.784      32.089      42.927      51.214      54.318      51.206    
  64.985      51.294      36.038      22.971      14.292      10.065      8.4780      7.5694      7.1357      7.1362    
  7.5702      8.4782      10.065      14.292      22.974      36.043      51.299      64.989      73.123      73.122    
  87.287      73.166      54.436      36.041      21.781      13.231      9.5596      8.2104      7.4482      7.2050    
  7.4490      8.2103      9.5584      13.231      21.784      36.043      54.433      73.158      87.279      92.551    
  104.04      92.566      73.167      51.302      32.088      18.669      11.573      8.9540      7.8680      7.3309    
  7.3318      7.8690      8.9529      11.571      18.669      32.089      51.299      73.157      92.554      104.04    
  73.819      69.580      58.225      43.217      28.632      17.596      11.276      8.7043      7.5846      6.9249    
  6.7172      6.9254      7.5850      8.7040      11.275      17.595      28.633      43.217      58.225      69.580    
  69.582      69.579      61.773      48.634      34.005      21.520      13.303      9.3720      7.8951      7.0309    
  6.6193      6.6188      7.0302      7.8959      9.3738      13.304      21.520      34.006      48.638      61.778    
  58.228      61.815      58.225      48.635      36.036      23.943      15.006      10.092      8.1389      7.1374    
  6.5530      6.3702      6.5515      7.1367      8.1401      10.093      15.006      23.942      36.036      48.638    
  43.216      48.738      48.739      43.218      34.005      23.943      15.672      10.574      8.3064      7.2220    
  6.5161      6.1917      6.1914      6.5155      7.2217      8.3062      10.574      15.670      23.940      34.002    
  28.628      34.174      36.271      34.177      28.633      21.519      15.006      10.574      8.3713      7.2685    
  6.5007      6.0811      5.9547      6.0819      6.5009      7.2678      8.3707      10.575      15.007      21.517    
  17.596      21.746      24.303      24.304      21.748      17.595      13.303      10.092      8.3064      7.2684    
  6.4970      6.0295      5.8248      5.8255      6.0306      6.4970      7.2679      8.3075      10.096      13.306    
  11.278      13.563      15.454      16.189      15.454      13.561      11.275      9.3724      8.1390      7.2217    
  6.5007      6.0296      5.7838      5.7108      5.7845      6.0299      6.5002      7.2212      8.1401      9.3753    
  8.7032      9.6322      10.572      11.180      11.178      10.570      9.6308      8.7043      7.8953      7.1370    
  6.5161      6.0813      5.8247      5.7108      5.7108      5.8247      6.0811      6.5150      7.1348      7.8928    
  7.5805      8.1365      8.6062      8.9331      9.0547      8.9318      8.6061      8.1393      7.5847      7.0307    
  6.5528      6.1920      5.9546      5.8254      5.7848      5.8247      5.9545      6.1926      6.5525      7.0279    
  6.9250      7.2586      7.5800      7.8360      7.9779      7.9779      7.8367      7.5819      7.2605      6.9251    
  6.6191      6.3705      6.1916      6.0816      6.0308      6.0301      6.0807      6.1925      6.3733      6.6215    
  6.7207      6.8445      6.9825      7.1155      7.2148      7.2523      7.2155      7.1160      6.9817      6.8420    
  6.7172      6.6187      6.5518      6.5153      6.5007      6.4971      6.4999      6.5148      6.5530      6.6217    
  6.9245      6.8443      6.7979      6.7851      6.7951      6.8087      6.8092      6.7956      6.7839      6.7951    
  6.8424      6.9251      7.0303      7.1366      7.2213      7.2679      7.2681      7.2212      7.1351      7.0282    
  7.5801      7.2583      6.9829      6.7853      6.6680      6.6139      6.6000      6.6149      6.6683      6.7843    
  6.9827      7.2609      7.5848      7.8961      8.1399      8.3063      8.3712      8.3076      8.1398      7.8928    
  8.7035      8.1365      7.5803      7.1156      6.7948      6.6139      6.5384      6.5386      6.6142      6.7953    
  7.1167      7.5822      8.1385      8.7043      9.3740      10.093      10.574      10.575      10.095      9.3751    
  11.279      9.6325      8.6060      7.8359      7.2146      6.8087      6.6003      6.5385      6.5991      6.8081    
  7.2155      7.8371      8.6052      9.6293      11.275      13.304      15.006      15.670      15.006      13.306    
  17.596      13.563      10.572      8.9329      7.9781      7.2524      6.8094      6.6148      6.6140      6.8082    
  7.2522      7.9785      8.9319      10.569      13.560      17.595      21.519      23.942      23.941      21.518    
  28.628      21.745      15.454      11.180      9.0552      7.9780      7.2153      6.7955      6.6683      6.7955    
  7.2156      7.9783      9.0549      11.179      15.454      21.748      28.633      34.006      36.036      34.003    
  43.216      34.173      24.303      16.189      11.179      8.9316      7.8364      7.1161      6.7840      6.7843    
  7.1167      7.8368      8.9319      11.179      16.191      24.306      34.176      43.218      48.638      48.638    
  58.228      48.739      36.271      24.305      15.453      10.569      8.6060      7.5822      6.9820      6.7948    
  6.9825      7.5822      8.6052      10.569      15.454      24.306      36.270      48.735      58.225      61.778    
  69.582      61.816      48.739      34.177      21.748      13.561      9.6310      8.1396      7.2606      6.8416    
  6.8422      7.2613      8.1388      9.6292      13.560      21.748      34.176      48.735      61.810      69.579    
  43.802      41.267      34.528      25.800      17.660      11.945      9.0191      7.7375      6.8838      6.4033    
  6.2556      6.4036      6.8841      7.7373      9.0187      11.945      17.660      25.801      34.528      41.266    
  41.267      41.266      36.608      28.880      20.537      13.820      9.8142      8.0458      7.0555      6.4132    
  6.1201      6.1198      6.4128      7.0560      8.0470      9.8151      13.820      20.536      28.881      36.610    
  34.529      36.664      34.528      28.880      21.643      15.022      10.520      8.2886      7.1912      6.4285    
  6.0091      5.8811      6.0082      6.4280      7.1920      8.2897      10.520      15.022      21.643      28.881    
  25.801      29.023      29.023      25.801      20.537      15.022      10.804      8.4440      7.2740      6.4417    
  5.9278      5.6999      5.6998      5.9275      6.4413      7.2737      8.4436      10.804      15.021      20.536    
  17.660      20.767      21.962      20.768      17.660      13.820      10.520      8.4442      7.3012      6.4489    
  5.8788      5.5799      5.4912      5.5804      5.8789      6.4482      7.3002      8.4438      10.520      13.820    
  11.945      14.116      15.495      15.495      14.116      11.945      9.8141      8.2890      7.2740      6.4488    
  5.8625      5.5204      5.3730      5.3734      5.5212      5.8627      6.4485      7.2741      8.2900      9.8153    
  9.0196      10.139      11.088      11.463      11.088      10.139      9.0189      8.0461      7.1913      6.4414    
  5.8788      5.5204      5.3348      5.2795      5.3352      5.5208      5.8791      6.4418      7.1920      8.0470    
  7.7368      8.3696      8.8883      9.2029      9.2027      8.8881      8.3698      7.7375      7.0557      6.4282    
  5.9278      5.5800      5.3729      5.2794      5.2793      5.3726      5.5799      5.9278      6.4279      7.0550    
  6.8827      7.3640      7.7812      8.0626      8.1614      8.0622      7.7811      7.3649      6.8839      6.4131    
  6.0090      5.7002      5.4912      5.3734      5.3354      5.3727      5.4906      5.7000      6.0088      6.4123    
  6.4034      6.7075      6.9964      7.2248      7.3511      7.3509      7.2245      6.9964      6.7078      6.4034    
  6.1200      5.8814      5.6999      5.5802      5.5213      5.5209      5.5796      5.6999      5.8819      6.1206    
  6.2565      6.4075      6.5607      6.6971      6.7929      6.8276      6.7927      6.6968      6.5603      6.4069    
  6.2556      6.1198      6.0084      5.9273      5.8788      5.8628      5.8789      5.9277      6.0091      6.1207    
  6.4031      6.4074      6.4278      6.4604      6.4948      6.5174      6.5176      6.4951      6.4602      6.4273    
  6.4071      6.4034      6.4129      6.4279      6.4410      6.4483      6.4486      6.4417      6.4281      6.4125    
  6.8824      6.7073      6.5611      6.4605      6.4051      6.3826      6.3779      6.3835      6.4059      6.4604    
  6.5609      6.7080      6.8840      7.0562      7.1919      7.2737      7.3005      7.2742      7.1918      7.0550    
  7.7370      7.3641      6.9966      6.6972      6.4946      6.3826      6.3369      6.3371      6.3830      6.4948    
  6.6972      6.9967      7.3644      7.7375      8.0472      8.2897      8.4437      8.4437      8.2896      8.0468    
  9.0200      8.3698      7.7810      7.2248      6.7927      6.5174      6.3780      6.3370      6.3773      6.5168    
  6.7927      7.2249      7.7805      8.3687      9.0189      9.8150      10.520      10.803      10.520      9.8154    
  11.945      10.139      8.8879      8.0625      7.3512      6.8276      6.5177      6.3834      6.3830      6.5169    
  6.8272      7.3514      8.0625      8.8872      10.138      11.945      13.820      15.021      15.021      13.820    
  17.659      14.115      11.088      9.2030      8.1617      7.3509      6.7926      6.4951      6.4058      6.4950    
  6.7927      7.3513      8.1621      9.2031      11.088      14.116      17.660      20.537      21.643      20.536    
  25.800      20.767      15.495      11.463      9.2028      8.0620      7.2243      6.6969      6.4603      6.4605    
  6.6972      7.2247      8.0625      9.2032      11.464      15.496      20.768      25.801      28.881      28.881    
  34.529      29.023      21.962      15.496      11.088      8.8877      7.7810      6.9967      6.5605      6.4271    
  6.5607      6.9967      7.7806      8.8873      11.088      15.496      21.962      29.022      34.528      36.609    
  41.267      36.664      29.023      20.768      14.116      10.139      8.3699      7.3651      6.7078      6.4066    
  6.4070      6.7083      7.3646      8.3686      10.138      14.116      20.768      29.022      36.663      41.266    
  23.404      22.142      18.851      14.763      11.225      8.9873      7.8002      6.9258      6.3235      5.9997    
  5.9019      5.9999      6.3236      6.9257      7.7999      8.9873      11.225      14.764      18.851      22.142    
  22.142      22.142      19.839      16.131      12.356      9.5861      8.0540      7.0904      6.3667      5.9268    
  5.7320      5.7318      5.9265      6.3670      7.0912      8.0546      9.5862      12.355      16.131      19.839    
  18.851      19.900      18.851      16.132      12.805      9.9890      8.2357      7.2003      6.3976      5.8623    