   2   2   0   0
  0.1095009E+02  0.2423200E-09  0.2423200E-09  0.4306640E-09  0.5000000E-15
  1.000000000000000E-004
  CAR 
 unknown system                          
     69.49512571     -5.79594784  301      6.10901960      1.00000000
     -5.796  0.0000E+00  0.0000E+00
     -5.545  0.0000E+00  0.0000E+00
     -5.294  0.0000E+00  0.0000E+00
     -5.043  0.0000E+00  0.0000E+00
     -4.792  0.0000E+00  0.0000E+00
     -4.541  0.0000E+00  0.0000E+00
     -4.290  0.0000E+00  0.0000E+00
     -4.039 -0.1075E-31 -0.2699E-32
     -3.788 -0.2270E-23 -0.5698E-24
     -3.537 -0.1942E-16 -0.4875E-17
     -3.286 -0.7088E-11 -0.1779E-11
     -3.035 -0.1054E-06 -0.2645E-07
     -2.784 -0.5955E-04 -0.1497E-04
     -2.533 -0.4354E-03 -0.1242E-03
     -2.282  0.8775E-02  0.2078E-02
     -2.031  0.6082E-01  0.1734E-01
     -1.780  0.1064E+00  0.4404E-01
     -1.529  0.6447E-01  0.6022E-01
     -1.278  0.1654E+00  0.1017E+00
     -1.028  0.1907E+00  0.1496E+00
     -0.777  0.1934E+00  0.1981E+00
     -0.526  0.8849E-01  0.2203E+00
     -0.275  0.2863E+00  0.2922E+00
     -0.024  0.2843E+00  0.3635E+00
      0.227  0.3384E+00  0.4484E+00
      0.478  0.2855E+00  0.5201E+00
      0.729  0.2311E+00  0.5781E+00
      0.980  0.4704E+00  0.6961E+00
      1.231  0.6565E+00  0.8609E+00
      1.482  0.8054E+00  0.1063E+01
      1.733  0.1151E+01  0.1352E+01
      1.984  0.2001E+01  0.1854E+01
      2.235  0.2677E+01  0.2526E+01
      2.486  0.2329E+01  0.3110E+01
      2.737  0.3075E+01  0.3882E+01
      2.988  0.2524E+01  0.4516E+01
      3.239  0.3417E+01  0.5373E+01
      3.490  0.3474E+01  0.6245E+01
      3.741  0.3457E+01  0.7112E+01
      3.992  0.2618E+01  0.7769E+01
      4.243  0.3050E+01  0.8535E+01
      4.494  0.4556E+01  0.9678E+01
      4.745  0.4219E+01  0.1074E+02
      4.996  0.4191E+01  0.1179E+02
      5.247  0.3901E+01  0.1277E+02
      5.498  0.4065E+01  0.1379E+02
      5.749  0.3555E+01  0.1468E+02
      6.000  0.3809E+01  0.1564E+02
      6.251  0.3160E+01  0.1643E+02
      6.502  0.4027E+01  0.1744E+02
      6.753  0.5601E+01  0.1885E+02
      7.004  0.5157E+01  0.2014E+02
      7.255  0.3878E+01  0.2111E+02
      7.505  0.5722E+00  0.2126E+02
      7.756  0.4149E+00  0.2136E+02
      8.007  0.7619E+00  0.2155E+02
      8.258  0.8695E+00  0.2177E+02
      8.509  0.7654E+00  0.2196E+02
      8.760  0.5223E+00  0.2209E+02
      9.011  0.3981E+00  0.2219E+02
      9.262  0.4729E+00  0.2231E+02
      9.513  0.4212E+00  0.2242E+02
      9.764  0.6579E+00  0.2258E+02
     10.015  0.6226E+00  0.2274E+02
     10.266  0.4470E+00  0.2285E+02
     10.517  0.4513E+00  0.2296E+02
     10.768  0.5585E+00  0.2311E+02
     11.019  0.3515E+00  0.2319E+02
     11.270  0.2684E+00  0.2326E+02
     11.521  0.3370E+00  0.2335E+02
     11.772  0.4556E+00  0.2346E+02
     12.023  0.3737E+00  0.2355E+02
     12.274  0.2399E+00  0.2361E+02
     12.525  0.4587E+00  0.2373E+02
     12.776  0.6567E+00  0.2389E+02
     13.027  0.2975E+00  0.2397E+02
     13.278  0.2848E+00  0.2404E+02
     13.529  0.2291E+00  0.2410E+02
     13.780  0.1739E+00  0.2414E+02
     14.031  0.1040E+00  0.2417E+02
     14.282  0.1714E+00  0.2421E+02
     14.533  0.3254E+00  0.2429E+02
     14.784  0.3243E+00  0.2437E+02
     15.035  0.6567E+00  0.2454E+02
     15.286  0.9258E+00  0.2477E+02
     15.537  0.9406E+00  0.2501E+02
     15.787  0.6838E+00  0.2518E+02
     16.038  0.7211E+00  0.2536E+02
     16.289  0.5464E+00  0.2550E+02
     16.540  0.5278E+00  0.2563E+02
     16.791  0.9452E+00  0.2587E+02
     17.042  0.8096E+00  0.2607E+02
     17.293  0.6863E+00  0.2624E+02
     17.544  0.7768E+00  0.2644E+02
     17.795  0.8353E+00  0.2665E+02
     18.046  0.3740E+00  0.2674E+02
     18.297  0.8422E+00  0.2695E+02
     18.548  0.6366E+00  0.2711E+02
     18.799  0.7100E+00  0.2729E+02
     19.050  0.6061E+00  0.2744E+02
     19.301  0.5426E+00  0.2758E+02
     19.552  0.6644E+00  0.2774E+02
     19.803  0.4165E+00  0.2785E+02
     20.054  0.5574E+00  0.2799E+02
     20.305  0.8677E+00  0.2821E+02
     20.556  0.5378E+00  0.2834E+02
     20.807  0.8081E+00  0.2854E+02
     21.058  0.6503E+00  0.2871E+02
     21.309  0.6206E+00  0.2886E+02
     21.560  0.6509E+00  0.2903E+02
     21.811  0.1209E+01  0.2933E+02
     22.062  0.1180E+01  0.2963E+02
     22.313  0.5418E+00  0.2976E+02
     22.564  0.1129E+01  0.3005E+02
     22.815  0.8593E+00  0.3026E+02
     23.066  0.4718E+00  0.3038E+02
     23.317  0.9202E+00  0.3061E+02
     23.568  0.1240E+01  0.3092E+02
     23.819  0.9371E+00  0.3116E+02
     24.070  0.1056E+01  0.3142E+02
     24.320  0.7482E+00  0.3161E+02
     24.571  0.1127E+01  0.3189E+02
     24.822  0.1087E+01  0.3216E+02
     25.073  0.1120E+01  0.3245E+02
     25.324  0.7721E+00  0.3264E+02
     25.575  0.7744E+00  0.3283E+02
     25.826  0.9629E+00  0.3308E+02
     26.077  0.6716E+00  0.3324E+02
     26.328  0.9792E+00  0.3349E+02
     26.579  0.9420E+00  0.3373E+02
     26.830  0.7565E+00  0.3392E+02
     27.081  0.7958E+00  0.3412E+02
     27.332  0.8099E+00  0.3432E+02
     27.583  0.7525E+00  0.3451E+02
     27.834  0.7381E+00  0.3469E+02
     28.085  0.3830E+00  0.3479E+02
     28.336  0.6300E+00  0.3495E+02
     28.587  0.6690E+00  0.3512E+02
     28.838  0.9627E+00  0.3536E+02
     29.089  0.8002E+00  0.3556E+02
     29.340  0.8328E+00  0.3577E+02
     29.591  0.6211E+00  0.3592E+02
     29.842  0.8487E+00  0.3614E+02
     30.093  0.1157E+01  0.3643E+02
     30.344  0.1117E+01  0.3671E+02
     30.595  0.7177E+00  0.3689E+02
     30.846  0.6340E+00  0.3705E+02
     31.097  0.7914E+00  0.3724E+02
     31.348  0.7321E+00  0.3743E+02
     31.599  0.8157E+00  0.3763E+02
     31.850  0.9246E+00  0.3787E+02
     32.101  0.1183E+01  0.3816E+02
     32.352  0.8171E+00  0.3837E+02
     32.602  0.1107E+01  0.3865E+02
     32.853  0.9026E+00  0.3887E+02
     33.104  0.1106E+01  0.3915E+02
     33.355  0.1030E+01  0.3941E+02
     33.606  0.1314E+01  0.3974E+02
     33.857  0.9929E+00  0.3999E+02
     34.108  0.1232E+01  0.4030E+02
     34.359  0.9400E+00  0.4053E+02
     34.610  0.1075E+01  0.4080E+02
     34.861  0.6649E+00  0.4097E+02
     35.112  0.7824E+00  0.4116E+02
     35.363  0.7570E+00  0.4135E+02
     35.614  0.6242E+00  0.4151E+02
     35.865  0.5852E+00  0.4166E+02
     36.116  0.8614E+00  0.4187E+02
     36.367  0.5859E+00  0.4202E+02
     36.618  0.8291E+00  0.4223E+02
     36.869  0.1203E+01  0.4253E+02
     37.120  0.1180E+01  0.4283E+02
     37.371  0.1048E+01  0.4309E+02
     37.622  0.7411E+00  0.4328E+02
     37.873  0.8514E+00  0.4349E+02
     38.124  0.7368E+00  0.4368E+02
     38.375  0.9207E+00  0.4391E+02
     38.626  0.1162E+01  0.4420E+02
     38.877  0.6942E+00  0.4437E+02
     39.128  0.1064E+01  0.4464E+02
     39.379  0.1592E+01  0.4504E+02
     39.630  0.8832E+00  0.4526E+02
     39.881  0.9324E+00  0.4549E+02
     40.132  0.1104E+01  0.4577E+02
     40.383  0.8116E+00  0.4598E+02
     40.634  0.1007E+01  0.4623E+02
     40.885  0.1366E+01  0.4657E+02
     41.135  0.1023E+01  0.4683E+02
     41.386  0.1229E+01  0.4714E+02
     41.637  0.1231E+01  0.4744E+02
     41.888  0.9379E+00  0.4768E+02
     42.139  0.1381E+01  0.4803E+02
     42.390  0.1218E+01  0.4833E+02
     42.641  0.7909E+00  0.4853E+02
     42.892  0.7077E+00  0.4871E+02
     43.143  0.1239E+01  0.4902E+02
     43.394  0.9058E+00  0.4925E+02
     43.645  0.6318E+00  0.4941E+02
     43.896  0.7158E+00  0.4959E+02
     44.147  0.1037E+01  0.4985E+02
     44.398  0.1274E+01  0.5017E+02
     44.649  0.1300E+01  0.5049E+02
     44.900  0.1067E+01  0.5076E+02
     45.151  0.9133E+00  0.5099E+02
     45.402  0.6808E+00  0.5116E+02
     45.653  0.1019E+01  0.5142E+02
     45.904  0.1306E+01  0.5174E+02
     46.155  0.1295E+01  0.5207E+02
     46.406  0.7787E+00  0.5226E+02
     46.657  0.1106E+01  0.5254E+02
     46.908  0.8259E+00  0.5275E+02
     47.159  0.8868E+00  0.5297E+02
     47.410  0.1707E+01  0.5340E+02
     47.661  0.1790E+01  0.5385E+02
     47.912  0.1268E+01  0.5417E+02
     48.163  0.1043E+01  0.5443E+02
     48.414  0.1414E+01  0.5478E+02
     48.665  0.9174E+00  0.5501E+02
     48.916  0.8133E+00  0.5522E+02
     49.167  0.1026E+01  0.5548E+02
     49.418  0.1313E+01  0.5581E+02
     49.668  0.8998E+00  0.5603E+02
     49.919  0.1020E+01  0.5629E+02
     50.170  0.1159E+01  0.5658E+02
     50.421  0.1071E+01  0.5685E+02
     50.672  0.1447E+01  0.5721E+02
     50.923  0.1103E+01  0.5749E+02
     51.174  0.1430E+01  0.5785E+02
     51.425  0.1508E+01  0.5822E+02
     51.676  0.1272E+01  0.5854E+02
     51.927  0.1117E+01  0.5882E+02
     52.178  0.1444E+01  0.5919E+02
     52.429  0.1316E+01  0.5952E+02
     52.680  0.1021E+01  0.5977E+02
     52.931  0.1109E+01  0.6005E+02
     53.182  0.7969E+00  0.6025E+02
     53.433  0.1337E+01  0.6059E+02
     53.684  0.1750E+01  0.6103E+02
     53.935  0.1935E+01  0.6151E+02
     54.186  0.1794E+01  0.6196E+02
     54.437  0.1219E+01  0.6227E+02
     54.688  0.1166E+01  0.6256E+02
     54.939  0.1314E+01  0.6289E+02
     55.190  0.1574E+01  0.6328E+02
     55.441  0.1621E+01  0.6369E+02
     55.692  0.1384E+01  0.6404E+02
     55.943  0.1298E+01  0.6436E+02
     56.194  0.1474E+01  0.6473E+02
     56.445  0.1410E+01  0.6509E+02
     56.696  0.1673E+01  0.6551E+02
     56.947  0.1625E+01  0.6592E+02
     57.198  0.1607E+01  0.6632E+02
     57.449  0.1948E+01  0.6681E+02
     57.700  0.1322E+01  0.6714E+02
     57.950  0.1321E+01  0.6747E+02
     58.201  0.1192E+01  0.6777E+02
     58.452  0.1721E+01  0.6820E+02
     58.703  0.1307E+01  0.6853E+02
     58.954  0.1050E+01  0.6879E+02
     59.205  0.1200E+01  0.6910E+02
     59.456  0.1799E+01  0.6955E+02
     59.707  0.2102E+01  0.7007E+02
     59.958  0.1594E+01  0.7047E+02
     60.209  0.1576E+01  0.7087E+02
     60.460  0.1257E+01  0.7119E+02
     60.711  0.1804E+01  0.7164E+02
     60.962  0.1840E+01  0.7210E+02
     61.213  0.1484E+01  0.7247E+02
     61.464  0.2177E+01  0.7302E+02
     61.715  0.1846E+01  0.7348E+02
     61.966  0.1356E+01  0.7382E+02
     62.217  0.1419E+01  0.7418E+02
     62.468  0.1751E+01  0.7462E+02
     62.719  0.2177E+01  0.7516E+02
     62.970  0.2265E+01  0.7573E+02
     63.221  0.2106E+01  0.7626E+02
     63.472  0.1999E+01  0.7676E+02
     63.723  0.1641E+01  0.7718E+02
     63.974  0.2629E+01  0.7784E+02
     64.225  0.1859E+01  0.7830E+02
     64.476  0.1529E+01  0.7869E+02
     64.727  0.1919E+01  0.7917E+02
     64.978  0.1030E+01  0.7943E+02
     65.229  0.5335E+00  0.7956E+02
     65.480  0.1235E+01  0.7987E+02
     65.731  0.4067E+00  0.7997E+02
     65.982  0.5640E-01  0.7999E+02
     66.233  0.5698E-01  0.8000E+02
     66.483  0.9083E-03  0.8000E+02
     66.734 -0.4809E-03  0.8000E+02
     66.985 -0.1080E-05  0.8000E+02
     67.236 -0.7987E-10  0.8000E+02
     67.487 -0.2233E-15  0.8000E+02
     67.738  0.0000E+00  0.8000E+02
     67.989  0.0000E+00  0.8000E+02
     68.240  0.0000E+00  0.8000E+02
     68.491  0.0000E+00  0.8000E+02
     68.742  0.0000E+00  0.8000E+02
     68.993  0.0000E+00  0.8000E+02
     69.244  0.0000E+00  0.8000E+02
     69.495  0.0000E+00  0.8000E+02
