    2    2    1    1
  0.1095009E+02  0.2423200E-09  0.2423200E-09  0.4306640E-09  0.5000000E-15
  1.000000000000000E-004
  CAR 
 unknown system                          
     16     96     40
 
  0.0000000E+00  0.0000000E+00  0.0000000E+00  0.7513148E-03
    1       -2.373626   1.000000
    2        1.461982   1.000000
    3        4.077088   1.000000
    4        4.698012   1.000000
    5        4.698186   1.000000
    6        4.960879   1.000000
    7        4.961058   1.000000
    8        5.395017   1.000003
    9        5.856921   1.035270
   10        5.856961   1.035272
   11        6.772007  -0.000014
   12        6.772050  -0.000014
   13       12.611219   0.000000
   14       28.511759   0.000000
   15       29.019034   0.000000
   16       31.757701   0.000000
   17       33.484648   0.000000
   18       33.484706   0.000000
   19       34.337618   0.000000
   20       34.337853   0.000000
   21       34.552025   0.000000
   22       37.379365   0.000000
   23       37.379396   0.000000
   24       38.355162   0.000000
   25       40.531921   0.000000
   26       40.531933   0.000000
   27       40.742381   0.000000
   28       43.777638   0.000000
   29       43.778034   0.000000
   30       45.399568   0.000000
   31       45.399734   0.000000
   32       47.671952   0.000000
   33       55.326648   0.000000
   34       59.484910   0.000000
   35       59.486070   0.000000
   36       60.131109   0.000000
   37       60.567427   0.000000
   38       60.892001   0.000000
   39       60.892052   0.000000
   40       61.001384   0.000000
 
  0.9090909E-01 -0.6408321E-17  0.0000000E+00  0.4507889E-02
    1       -2.059701   1.000000
    2        1.697108   1.000000
    3        4.103309   1.000000
    4        4.631134   1.000000
    5        4.652715   1.000000
    6        4.858057   1.000000
    7        4.873478   1.000000
    8        5.124210   1.000000
    9        5.719769   1.009474
   10        5.759465   1.016517
   11        6.798920  -0.000006
   12        7.780645  -0.000000
   13       12.641335   0.000000
   14       27.531426   0.000000
   15       28.873189   0.000000
   16       29.961994   0.000000
   17       30.850043   0.000000
   18       33.373262   0.000000
   19       33.448282   0.000000
   20       34.415601   0.000000
   21       36.692045   0.000000
   22       37.074070   0.000000
   23       37.201505   0.000000
   24       37.835929   0.000000
   25       41.185990   0.000000
   26       41.425948   0.000000
   27       41.789129   0.000000
   28       42.260395   0.000000
   29       45.320072   0.000000
   30       46.710578   0.000000
   31       47.926590   0.000000
   32       49.784784   0.000000
   33       55.069631   0.000000
   34       57.227980   0.000000
   35       57.915620   0.000000
   36       58.314893   0.000000
   37       59.354147   0.000000
   38       60.753919   0.000000
   39       62.467408   0.000000
   40       62.742359   0.000000
 
  0.1818182E+00  0.1592148E-16  0.0000000E+00  0.4507889E-02
    1       -1.165853   1.000000
    2        2.260280   1.000000
    3        3.719190   1.000000
    4        3.971666   1.000000
    5        4.453197   1.000000
    6        4.947767   1.000000
    7        5.359610   1.000001
    8        5.390515   1.000002
    9        5.527656   1.000156
   10        5.575454   1.000530
   11        6.841359  -0.000001
   12        9.466754  -0.000000
   13       12.759403   0.000000
   14       23.653065   0.000000
   15       28.149974   0.000000
   16       28.722902   0.000000
   17       29.074297   0.000000
   18       29.973214   0.000000
   19       33.300610   0.000000
   20       34.456975   0.000000
   21       34.697883   0.000000
   22       35.707921   0.000000
   23       37.894840   0.000000
   24       38.545280   0.000000
   25       41.397627   0.000000
   26       42.858088   0.000000
   27       44.433161   0.000000
   28       46.464919   0.000000
   29       47.625503   0.000000
   30       50.606073   0.000000
   31       50.813459   0.000000
   32       53.218476   0.000000
   33       53.948827   0.000000
   34       54.084150   0.000000
   35       56.157514   0.000000
   36       57.691565   0.000000
   37       58.762386   0.000000
   38       60.457915   0.000000
   39       63.329236   0.000000
   40       64.006378   0.000000
 
  0.2727273E+00 -0.1971069E-16  0.0000000E+00  0.4507889E-02
    1        0.126448   1.000000
    2        2.573968   1.000000
    3        3.008406   1.000000
    4        3.931202   1.000000
    5        4.275621   1.000000
    6        4.971655   1.000000
    7        5.261839   1.000000
    8        5.609877   1.001180
    9        6.049872   0.738553
   10        6.205569   0.139524
   11        6.863582  -0.000001
   12       11.399012  -0.000000
   13       13.029770   0.000000
   14       19.717405   0.000000
   15       25.491231   0.000000
   16       25.859544   0.000000
   17       26.910119   0.000000
   18       30.104084   0.000000
   19       31.422561   0.000000
   20       34.310517   0.000000
   21       34.967931   0.000000
   22       35.187073   0.000000
   23       35.490569   0.000000
   24       39.063339   0.000000
   25       45.035036   0.000000
   26       46.503421   0.000000
   27       47.825154   0.000000
   28       48.676675   0.000000
   29       49.333335   0.000000
   30       50.898876   0.000000
   31       52.189081   0.000000
   32       53.139596   0.000000
   33       55.757443   0.000000
   34       56.125659   0.000000
   35       56.872386   0.000000
   36       58.223672   0.000000
   37       60.267125   0.000000
   38       60.602361   0.000000
   39       63.202269   0.000000
   40       63.999063   0.000000
 
  0.3636364E+00 -0.7836409E-17  0.0000000E+00  0.4507889E-02
    1        1.348568   1.000000
    2        2.354922   1.000000
    3        2.548420   1.000000
    4        4.048534   1.000000
    5        4.597716   1.000000
    6        4.650968   1.000000
    7        5.040512   1.000000
    8        6.712428  -0.000085
    9        6.741880  -0.000036
   10        6.835394  -0.000002
   11        6.862415  -0.000001
   12       13.108058   0.000000
   13       13.502315   0.000000
   14       16.785198   0.000000
   15       22.238765   0.000000
   16       23.953242   0.000000
   17       24.119440   0.000000
   18       29.339035   0.000000
   19       30.478705   0.000000
   20       33.560356   0.000000
   21       34.500778   0.000000
   22       35.913085   0.000000
   23       36.201397   0.000000
   24       39.304595   0.000000
   25       45.951270   0.000000
   26       47.406476   0.000000
   27       48.508835   0.000000
   28       51.444424   0.000000
   29       51.762689   0.000000
   30       52.175847   0.000000
   31       54.227101   0.000000
   32       55.276198   0.000000
   33       55.559223   0.000000
   34       57.850477   0.000000
   35       59.719598   0.000000
   36       60.025322   0.000000
   37       61.323247   0.000000
   38       62.248919   0.000000
   39       64.218986   0.000000
   40       64.657532   0.000000
 
  0.4545455E+00  0.1008858E-16  0.0000000E+00  0.4507889E-02
    1        1.910286   1.000000
    2        2.111120   1.000000
    3        2.326653   1.000000
    4        4.379850   1.000000
    5        4.536440   1.000000
    6        4.866391   1.000000
    7        4.916525   1.000000
    8        6.855884  -0.000001
    9        7.165905  -0.000000
   10        7.259699  -0.000000
   11        8.258785  -0.000000
   12       11.460922  -0.000000
   13       15.527780   0.000000
   14       16.695930   0.000000
   15       19.662696   0.000000
   16       21.243242   0.000000
   17       23.154863   0.000000
   18       28.761566   0.000000
   19       30.174122   0.000000
   20       32.499282   0.000000
   21       34.284211   0.000000
   22       36.766874   0.000000
   23       38.621733   0.000000
   24       38.953299   0.000000
   25       42.623843   0.000000
   26       47.487949   0.000000
   27       49.718575   0.000000
   28       53.655028   0.000000
   29       54.218273   0.000000
   30       54.788230   0.000000
   31       55.590030   0.000000
   32       57.450353   0.000000
   33       58.302008   0.000000
   34       59.142172   0.000000
   35       59.766745   0.000000
   36       59.837371   0.000000
   37       63.068590   0.000000
   38       63.175148   0.000000
   39       63.585234   0.000000
   40       64.133718   0.000000
 
  0.9090909E-01  0.9090909E-01  0.0000000E+00  0.4507889E-02
    1       -1.453676   1.000000
    2        2.112257   1.000000
    3        3.961993   1.000000
    4        4.002902   1.000000
    5        4.659512   1.000000
    6        4.667553   1.000000
    7        5.229288   1.000000
    8        5.377266   1.000001
    9        5.472798   1.000033
   10        5.720136   1.009528
   11        6.806044  -0.000005
   12        8.995257  -0.000000
   13       12.719792   0.000000
   14       25.456060   0.000000
   15       26.497650   0.000000
   16       29.437398   0.000000
   17       30.800687   0.000000
   18       32.045407   0.000000
   19       32.305205   0.000000
   20       33.294007   0.000000
   21       34.127382   0.000000
   22       38.425919   0.000000
   23       39.120926   0.000000
   24       39.265195   0.000000
   25       40.718478   0.000000
   26       40.778640   0.000000
   27       41.069928   0.000000
   28       47.162917   0.000000
   29       48.598634   0.000000
   30       48.785840   0.000000
   31       48.807950   0.000000
   32       52.881074   0.000000
   33       54.472545   0.000000
   34       54.893376   0.000000
   35       55.973347   0.000000
   36       57.560819   0.000000
   37       58.734338   0.000000
   38       61.426396   0.000000
   39       63.145886   0.000000
   40       63.650849   0.000000
 
  0.1818182E+00  0.9090909E-01  0.0000000E+00  0.9015778E-02
    1       -0.340290   1.000000
    2        2.660531   1.000000
    3        3.263730   1.000000
    4        3.738659   1.000000
    5        4.375367   1.000000
    6        4.981294   1.000000
    7        5.051310   1.000000
    8        5.492537   1.000058
    9        5.864077   1.035458
   10        6.119012   0.457774
   11        6.797426  -0.000006
   12       10.716226  -0.000000
   13       12.950858   0.000000
   14       21.742206   0.000000
   15       24.242747   0.000000
   16       27.337635   0.000000
   17       29.434142   0.000000
   18       29.576789   0.000000
   19       32.459205   0.000000
   20       32.487330   0.000000
   21       33.581337   0.000000
   22       37.572775   0.000000
   23       38.432527   0.000000
   24       39.163684   0.000000
   25       42.318328   0.000000
   26       43.434392   0.000000
   27       45.305117   0.000000
   28       48.741135   0.000000
   29       51.042157   0.000000
   30       51.406502   0.000000
   31       51.635890   0.000000
   32       53.577297   0.000000
   33       54.738139   0.000000
   34       55.032813   0.000000
   35       55.952876   0.000000
   36       56.454049   0.000000
   37       59.767273   0.000000
   38       61.664463   0.000000
   39       63.798024   0.000000
   40       63.899607   0.000000
 
  0.2727273E+00  0.9090909E-01  0.0000000E+00  0.9015778E-02
    1        0.994849   1.000000
    2        2.653086   1.000000
    3        2.754994   1.000000
    4        3.792120   1.000000
    5        4.424518   1.000000
    6        4.644799   1.000000
    7        5.169679   1.000000
    8        5.747012   1.014049
    9        6.555558  -0.003513
   10        6.784025  -0.000010
   11        6.959121  -0.000000
   12       12.712478   0.000000
   13       13.369461   0.000000
   14       18.089809   0.000000
   15       22.617181   0.000000
   16       23.956774   0.000000
   17       26.179950   0.000000
   18       28.334723   0.000000
   19       31.580595   0.000000
   20       32.838913   0.000000
   21       34.012374   0.000000
   22       37.221441   0.000000
   23       37.780705   0.000000
   24       40.470795   0.000000
   25       44.136120   0.000000
   26       46.982704   0.000000
   27       48.036227   0.000000
   28       48.129400   0.000000
   29       50.107004   0.000000
   30       52.199827   0.000000
   31       53.498089   0.000000
   32       54.957908   0.000000
   33       56.059972   0.000000
   34       57.017286   0.000000
   35       58.841378   0.000000
   36       61.093978   0.000000
   37       61.475459   0.000000
   38       61.579894   0.000000
   39       62.495244   0.000000
   40       64.399696   0.000000
 
  0.3636364E+00  0.9090909E-01  0.0000000E+00  0.9015778E-02
    1        1.914121   1.000000
    2        2.367430   1.000000
    3        2.460439   1.000000
    4        4.128948   1.000000
    5        4.425724   1.000000
    6        4.772052   1.000000
    7        4.895566   1.000000
    8        6.585780  -0.001915
    9        6.765072  -0.000018
   10        7.027511  -0.000000
   11        8.046124  -0.000000
   12       12.790564   0.000000
   13       14.847665   0.000000
   14       16.501650   0.000000
   15       20.988511   0.000000
   16       21.335122   0.000000
   17       23.007856   0.000000
   18       27.505849   0.000000
   19       30.656159   0.000000
   20       32.354448   0.000000
   21       35.427147   0.000000
   22       37.681194   0.000000
   23       38.422614   0.000000
   24       39.964746   0.000000
   25       44.573244   0.000000
   26       46.776832   0.000000
   27       48.257302   0.000000
   28       50.374851   0.000000
   29       51.471590   0.000000
   30       53.931763   0.000000
   31       55.093394   0.000000
   32       56.964138   0.000000
   33       58.171894   0.000000
   34       59.580924   0.000000
   35       60.322322   0.000000
   36       61.112604   0.000000
   37       61.828885   0.000000
   38       62.806926   0.000000
   39       63.757876   0.000000
   40       64.364511   0.000000
 
  0.4545455E+00  0.9090909E-01  0.0000000E+00  0.4507889E-02
    1        2.155791   1.000000
    2        2.218772   1.000000
    3        2.366068   1.000000
    4        4.351136   1.000000
    5        4.487871   1.000000
    6        4.788782   1.000000
    7        4.864830   1.000000
    8        6.757023  -0.000023
    9        7.067789  -0.000000
   10        7.090325  -0.000000
   11        9.206614  -0.000000
   12       11.172710  -0.000000
   13       16.318763   0.000000
   14       17.149372   0.000000
   15       19.252021   0.000000
   16       20.359622   0.000000
   17       21.729288   0.000000
   18       27.215017   0.000000
   19       30.282221   0.000000
   20       32.201756   0.000000
   21       35.713409   0.000000
   22       38.564469   0.000000
   23       38.863622   0.000000
   24       40.074245   0.000000
   25       42.261265   0.000000
   26       47.847159   0.000000
   27       48.340876   0.000000
   28       50.969893   0.000000
   29       53.836286   0.000000
   30       54.284418   0.000000
   31       57.395665   0.000000
   32       57.629267   0.000000
   33       58.596945   0.000000
   34       58.713121   0.000000
   35       59.017696   0.000000
   36       61.140656   0.000000
   37       63.751470   0.000000
   38       63.947474   0.000000
   39       64.295619   0.000000
   40       65.453083   0.000000
 
  0.1818182E+00  0.1818182E+00  0.0000000E+00  0.4507889E-02
    1        0.877564   1.000000
    2        2.878146   1.000000
    3        3.101262   1.000000
    4        3.337359   1.000000
    5        4.416227   1.000000
    6        4.585162   1.000000
    7        5.271415   1.000000
    8        5.284226   1.000000
    9        6.531019  -0.005514
   10        6.693930  -0.000142
   11        7.020537  -0.000000
   12       12.460028   0.000000
   13       13.467581   0.000000
   14       19.865579   0.000000
   15       20.480775   0.000000
   16       25.603905   0.000000
   17       26.646694   0.000000
   18       28.427218   0.000000
   19       29.011598   0.000000
   20       33.568842   0.000000
   21       35.397326   0.000000
   22       38.679047   0.000000
   23       39.089264   0.000000
   24       41.678417   0.000000
   25       42.445968   0.000000
   26       44.261894   0.000000
   27       45.303540   0.000000
   28       49.539610   0.000000
   29       50.846797   0.000000
   30       51.822429   0.000000
   31       51.929886   0.000000
   32       55.523021   0.000000
   33       55.984778   0.000000
   34       58.479963   0.000000
   35       58.797123   0.000000
   36       59.547528   0.000000
   37       59.907367   0.000000
   38       63.023660   0.000000
   39       63.264978   0.000000
   40       64.596651   0.000000
 
  0.2727273E+00  0.1818182E+00  0.0000000E+00  0.9015778E-02
    1        2.082167   1.000000
    2        2.645631   1.000000
    3        2.868180   1.000000
    4        3.499732   1.000000
    5        4.348120   1.000000
    6        4.669614   1.000000
    7        4.926421   1.000000
    8        5.787611   1.022741
    9        6.604964  -0.001267
   10        6.964298  -0.000000
   11        8.181834  -0.000000
   12       14.124684   0.000000
   13       14.516198   0.000000
   14       16.947733   0.000000
   15       18.969934   0.000000
   16       22.874147   0.000000
   17       24.981219   0.000000
   18       25.205649   0.000000
   19       27.724135   0.000000
   20       35.697742   0.000000
   21       35.869895   0.000000
   22       38.705449   0.000000
   23       41.159383   0.000000
   24       42.279991   0.000000
   25       43.242393   0.000000
   26       45.397051   0.000000
   27       46.429138   0.000000
   28       47.387821   0.000000
   29       50.660271   0.000000
   30       51.278629   0.000000
   31       53.919647   0.000000
   32       57.210965   0.000000
   33       58.433617   0.000000
   34       59.608020   0.000000
   35       61.751160   0.000000
   36       61.874499   0.000000
   37       62.456950   0.000000
   38       63.222193   0.000000
   39       64.125316   0.000000
   40       65.328390   0.000000
 
  0.3636364E+00  0.1818182E+00  0.0000000E+00  0.9015778E-02
    1        2.549347   1.000000
    2        2.569486   1.000000
    3        2.653188   1.000000
    4        3.929609   1.000000
    5        4.315000   1.000000
    6        4.588758   1.000000
    7        4.918865   1.000000
    8        6.427218  -0.023483
    9        6.554055  -0.003615
   10        6.958682  -0.000000
   11        9.690770  -0.000000
   12       12.541665   0.000000
   13       16.647762   0.000000
   14       17.190172   0.000000
   15       18.150608   0.000000
   16       20.223487   0.000000
   17       22.084984   0.000000
   18       24.664098   0.000000
   19       27.097559   0.000000
   20       35.831995   0.000000
   21       37.758714   0.000000
   22       39.123679   0.000000
   23       40.636472   0.000000
   24       41.510179   0.000000
   25       44.703137   0.000000
   26       45.682618   0.000000
   27       47.358661   0.000000
   28       47.878690   0.000000
   29       51.137429   0.000000
   30       52.796512   0.000000
   31       53.504603   0.000000
   32       57.104175   0.000000
   33       57.502190   0.000000
   34       59.102448   0.000000
   35       62.288957   0.000000
   36       63.552503   0.000000
   37       63.858330   0.000000
   38       64.470631   0.000000
   39       64.661369   0.000000
   40       65.206209   0.000000
 
  0.2727273E+00  0.2727273E+00  0.0000000E+00  0.4507889E-02
    1        2.675924   1.000000
    2        2.893810   1.000000
    3        3.189144   1.000000
    4        3.252824   1.000000
    5        4.205618   1.000000
    6        4.565735   1.000000
    7        4.949906   1.000000
    8        6.026608   0.818051
    9        6.448205  -0.018725
   10        6.926210  -0.000000
   11        9.804650  -0.000000
   12       14.564194   0.000000
   13       15.168542   0.000000
   14       16.669766   0.000000
   15       17.759032   0.000000
   16       22.117762   0.000000
   17       22.314547   0.000000
   18       23.786496   0.000000
   19       24.605063   0.000000
   20       37.428679   0.000000
   21       38.139221   0.000000
   22       41.539752   0.000000
   23       42.408699   0.000000
   24       43.102337   0.000000
   25       43.138763   0.000000
   26       43.938647   0.000000
   27       45.979640   0.000000
   28       48.353317   0.000000
   29       48.585967   0.000000
   30       52.797862   0.000000
   31       52.809581   0.000000
   32       55.073802   0.000000
   33       57.330115   0.000000
   34       59.331240   0.000000
   35       62.915711   0.000000
   36       64.024582   0.000000
   37       64.034830   0.000000
   38       65.166840   0.000000
   39       65.406143   0.000000
   40       65.539382   0.000000
 
  0.3636364E+00  0.2727273E+00  0.0000000E+00  0.4507889E-02
    1        2.720543   1.000000
    2        3.063926   1.000000
    3        3.081309   1.000000
    4        3.542156   1.000000
    5        4.267646   1.000000
    6        4.287314   1.000000
    7        5.081617   1.000000
    8        6.363770  -0.035112
    9        6.388935  -0.031788
   10        6.638116  -0.000590
   11       11.532381  -0.000000
   12       12.658347   0.000000
   13       14.789014   0.000000
   14       18.550052   0.000000
   15       18.744078   0.000000
   16       20.019683   0.000000
   17       22.053966   0.000000
   18       22.110230   0.000000
   19       24.024183   0.000000
   20       37.857309   0.000000
   21       40.516147   0.000000
   22       41.294255   0.000000
   23       41.698952   0.000000
   24       42.422693   0.000000
   25       44.045240   0.000000
   26       44.669786   0.000000
   27       47.660128   0.000000
   28       47.974870   0.000000
   29       48.275113   0.000000
   30       51.752637   0.000000
   31       53.076091   0.000000
   32       53.460404   0.000000
   33       56.942495   0.000000
   34       57.638223   0.000000
   35       63.912277   0.000000
   36       64.504101   0.000000
   37       65.451281   0.000000
   38       65.457623   0.000000
   39       65.595687   0.000000
   40       65.672327   0.000000
 
  0.0000000E+00  0.0000000E+00  0.9090909E-01  0.1502630E-02
    1       -2.299650   1.000000
    2        1.421072   1.000000
    3        4.059007   1.000000
    4        4.691501   1.000000
    5        4.691673   1.000000
    6        4.946952   1.000000
    7        4.947130   1.000000
    8        5.191742   1.000000
    9        5.888142   1.032844
   10        5.888184   1.032834
   11        6.763382  -0.000019
   12        6.763425  -0.000019
   13       12.979511   0.000000
   14       27.750154   0.000000
   15       29.134801   0.000000
   16       31.608053   0.000000
   17       33.539705   0.000000
   18       33.539759   0.000000
   19       34.354067   0.000000
   20       34.354294   0.000000
   21       35.146927   0.000000
   22       37.275162   0.000000
   23       37.275180   0.000000
   24       38.577503   0.000000
   25       40.169069   0.000000
   26       40.169085   0.000000
   27       40.938709   0.000000
   28       44.039605   0.000000
   29       44.039981   0.000000
   30       45.852606   0.000000
   31       45.852753   0.000000
   32       47.586132   0.000000
   33       54.842741   0.000000
   34       58.825419   0.000000
   35       58.825700   0.000000
   36       59.107762   0.000000
   37       59.108787   0.000000
   38       59.705731   0.000000
   39       61.101348   0.000000
   40       61.226904   0.000000
 
  0.9090909E-01 -0.6408321E-17  0.9090909E-01  0.9015778E-02
    1       -1.987191   1.000000
    2        1.660189   1.000000
    3        4.092875   1.000000
    4        4.511431   1.000000
    5        4.608281   1.000000
    6        4.864402   1.000000
    7        4.884258   1.000000
    8        5.108816   1.000000
    9        5.758241   1.016265
   10        5.796511   1.024799
   11        6.787730  -0.000009
   12        7.633640  -0.000000
   13       13.045868   0.000000
   14       27.505075   0.000000
   15       28.209471   0.000000
   16       29.966423   0.000000
   17       30.917488   0.000000
   18       32.715119   0.000000
   19       33.964636   0.000000
   20       34.939876   0.000000
   21       36.357328   0.000000
   22       37.152549   0.000000
   23       37.289606   0.000000
   24       38.065980   0.000000
   25       41.164736   0.000000
   26       41.309288   0.000000
   27       42.082147   0.000000
   28       42.573938   0.000000
   29       45.111859   0.000000
   30       47.020310   0.000000
   31       48.251751   0.000000
   32       49.790266   0.000000
   33       53.919461   0.000000
   34       57.029648   0.000000
   35       57.519216   0.000000
   36       58.322278   0.000000
   37       59.530818   0.000000
   38       60.512977   0.000000
   39       61.260599   0.000000
   40       62.328614   0.000000
 
  0.1818182E+00  0.1592148E-16  0.9090909E-01  0.9015778E-02
    1       -1.099312   1.000000
    2        2.236350   1.000000
    3        3.649935   1.000000
    4        3.985894   1.000000
    5        4.428215   1.000000
    6        4.886615   1.000000
    7        5.320802   1.000000
    8        5.482883   1.000044
    9        5.523788   1.000140
   10        5.634287   1.001998
   11        6.826273  -0.000002
   12        9.119817  -0.000000
   13       13.294880   0.000000
   14       23.718150   0.000000
   15       28.129857   0.000000
   16       28.234574   0.000000
   17       29.261496   0.000000
   18       29.479456   0.000000
   19       33.138165   0.000000
   20       34.703828   0.000000
   21       35.159815   0.000000
   22       35.227754   0.000000
   23       38.382542   0.000000
   24       39.088782   0.000000
   25       41.614232   0.000000
   26       42.819411   0.000000
   27       44.215632   0.000000
   28       46.456972   0.000000
   29       47.553160   0.000000
   30       50.540320   0.000000
   31       51.128387   0.000000
   32       52.106998   0.000000
   33       53.238581   0.000000
   34       55.403872   0.000000
   35       55.664557   0.000000
   36       57.489751   0.000000
   37       59.260573   0.000000
   38       60.963599   0.000000
   39       61.975415   0.000000
   40       63.992999   0.000000
 
  0.2727273E+00 -0.1971069E-16  0.9090909E-01  0.9015778E-02
    1        0.175849   1.000000
    2        2.560760   1.000000
    3        2.990789   1.000000
    4        3.938030   1.000000
    5        4.241605   1.000000
    6        4.978008   1.000000
    7        5.280257   1.000000
    8        5.650133   1.002760
    9        6.058265   0.707284
   10        6.194120   0.173516
   11        6.845115  -0.000001
   12       10.697401  -0.000000
   13       13.868283   0.000000
   14       19.778785   0.000000
   15       25.019310   0.000000
   16       25.959237   0.000000
   17       27.289694   0.000000
   18       29.760818   0.000000
   19       31.399488   0.000000
   20       33.502453   0.000000
   21       33.850995   0.000000
   22       36.159951   0.000000
   23       36.651515   0.000000
   24       39.676959   0.000000
   25       45.131999   0.000000
   26       46.106768   0.000000
   27       47.255515   0.000000
   28       47.470459   0.000000
   29       50.573353   0.000000
   30       51.059159   0.000000
   31       52.449028   0.000000
   32       53.581758   0.000000
   33       54.707590   0.000000
   34       55.648913   0.000000
   35       57.297518   0.000000
   36       58.367468   0.000000
   37       60.891424   0.000000
   38       60.916163   0.000000
   39       62.503965   0.000000
   40       64.551379   0.000000
 
  0.3636364E+00 -0.7836409E-17  0.9090909E-01  0.9015778E-02
    1        1.350795   1.000000
    2        2.321396   1.000000
    3        2.617420   1.000000
    4        3.877563   1.000000
    5        4.651161   1.000000
    6        4.828337   1.000000
    7        5.070014   1.000000
    8        6.681121  -0.000199
    9        6.735267  -0.000044
   10        6.760640  -0.000021
   11        6.904874  -0.000000
   12       11.993751   0.000000
   13       14.637933   0.000000
   14       16.889055   0.000000
   15       21.793879   0.000000
   16       24.229381   0.000000
   17       24.446815   0.000000
   18       29.268748   0.000000
   19       30.462037   0.000000
   20       32.545440   0.000000
   21       34.374629   0.000000
   22       35.561822   0.000000
   23       37.289449   0.000000
   24       39.964748   0.000000
   25       44.655442   0.000000
   26       48.353894   0.000000
   27       48.773684   0.000000
   28       50.725550   0.000000
   29       51.187290   0.000000
   30       53.214730   0.000000
   31       53.711328   0.000000
   32       55.277711   0.000000
   33       56.061754   0.000000
   34       57.477527   0.000000
   35       59.905267   0.000000
   36       60.692833   0.000000
   37       61.319122   0.000000
   38       61.952610   0.000000
   39       64.466387   0.000000
   40       64.629478   0.000000
 
  0.4545455E+00  0.1008858E-16  0.9090909E-01  0.9015778E-02
    1        1.838208   1.000000
    2        2.060025   1.000000
    3        2.499400   1.000000
    4        3.937335   1.000000
    5        4.813447   1.000000
    6        4.949739   1.000000
    7        5.118531   1.000000
    8        6.805762  -0.000005
    9        7.169683  -0.000000
   10        7.260282  -0.000000
   11        8.181229  -0.000000
   12       11.292185  -0.000000
   13       15.342187   0.000000
   14       16.802292   0.000000
   15       19.690886   0.000000
   16       21.681900   0.000000
   17       23.271102   0.000000
   18       28.742407   0.000000
   19       30.164378   0.000000
   20       31.703464   0.000000
   21       35.129534   0.000000