 vasp.6.2.0 18Jan21 (build Mar 17 2021 09:06:54) complex                        
  
 executed on             LinuxIFC date 2021.09.09  12:10:43
 serial version


--------------------------------------------------------------------------------------------------------


 INCAR:
   ENCUT = 280.000000
   SIGMA = 0.200000
   EDIFF = 1.00e-06
   GGA = PE
   PREC = normal
   IBRION = 1
   ICHARG = 1
   ISIF = 2
   ISMEAR = 1
   KPAR = 1
   NBANDS = 40
   NSW = 0
   NCORE = 1
   LCHARG = .TRUE.

 POTCAR:    PAW_PBE Fe 06Sep2000                  
 POTCAR:    PAW_PBE Fe 06Sep2000                  
   SHA256 =  cd5a22d9368cc8b5cc476bea79732366149640da08ac9009b0e1b7fc627eea28 Fe/POTCAR             
   COPYR  = (c) Copyright 06Sep2000 Georg Kresse                                                    
   COPYR  = This file is part of the software VASP. Any use, copying, and all other rights are regul
   COPYR  = If you do not have a valid VASP license, you may not use, copy or distribute this file. 
   VRHFIN =Fe:  d7 s1                                                                               
   LEXCH  = PE                                                                                      
   EATOM  =   594.3153 eV,   43.6809 Ry                                                             
                                                                                                    
   TITEL  = PAW_PBE Fe 06Sep2000                                                                    
   LULTRA =        F    use ultrasoft PP ?                                                          
   IUNSCR =        1    unscreen: 0-lin 1-nonlin 2-no                                               
   RPACOR =    2.000    partial core radius                                                         
   POMASS =   55.847; ZVAL   =    8.000    mass and valenz                                          
   RCORE  =    2.300    outmost cutoff radius                                                       
   RWIGS  =    2.460; RWIGS  =    1.302    wigner-seitz radius (au A)                               
   ENMAX  =  267.882; ENMIN  =  200.911 eV                                                          
   RCLOC  =    1.701    cutoff for local pot                                                        
   LCOR   =        T    correct aug charges                                                         
   LPAW   =        T    paw PP                                                                      
   EAUG   =  511.368                                                                                
   DEXC   =    0.000                                                                                
   RMAX   =    2.356    core radius for proj-oper                                                   
   RAUG   =    1.300    factor for augmentation sphere                                              
   RDEP   =    2.442    radius for radial grids                                                     
   RDEPT  =    1.890    core radius for aug-charge                                                  
                                                                                                    
   Atomic configuration                                                                             
    9 entries                                                                                       
     n  l   j            E        occ.                                                              
     1  0  0.50     -6993.8440   2.0000                                                             
     2  0  0.50      -814.6047   2.0000                                                             
     2  1  1.50      -693.3689   6.0000                                                             
     3  0  0.50       -89.4732   2.0000                                                             
     3  1  1.50       -55.6373   6.0000                                                             
     3  2  2.50        -3.8151   7.0000                                                             
     4  0  0.50        -4.2551   1.0000                                                             
     4  1  1.50        -3.4015   0.0000                                                             
     4  3  2.50        -1.3606   0.0000                                                             
   Description                                                                                      
     l       E           TYP  RCUT    TYP  RCUT                                                     
     2     -3.8151135     23  2.300                                                                 
     2     -5.1756961     23  2.300                                                                 
     0     -4.2550963     23  2.300                                                                 
     0      7.2035603     23  2.300                                                                 
     1     -2.7211652     23  2.300                                                                 
     1     18.4316424     23  2.300                                                                 
  local pseudopotential read in
  partial core-charges read in
  partial kinetic energy density read in
  atomic valenz-charges read in
  non local Contribution for L=           2  read in
    real space projection operators read in
  non local Contribution for L=           2  read in
    real space projection operators read in
  non local Contribution for L=           0  read in
    real space projection operators read in
  non local Contribution for L=           0  read in
    real space projection operators read in
  non local Contribution for L=           1  read in
    real space projection operators read in
  non local Contribution for L=           1  read in
    real space projection operators read in
    PAW grid and wavefunctions read in
 
   number of l-projection  operators is LMAX  =           6
   number of lm-projection operators is LMMAX =          18
 
  PAW_PBE Fe 06Sep2000                  :
 energy of atom  1       EATOM= -594.3153
 kinetic energy error for atom=    0.0278 (will be added to EATOM!!)
 
 
 POSCAR: Fe
  positions in cartesian coordinates
  No initial velocities read in
 exchange correlation table for  LEXCH =        8
   RHO(1)=    0.500       N(1)  =     2000
   RHO(2)=  100.500       N(2)  =     4000
 


--------------------------------------------------------------------------------------------------------


 ion  position               nearest neighbor table
   1  0.000  0.000  0.000-   2 2.57   2 2.57   2 2.57   2 2.57   2 2.57   2 2.57
   2  0.333  0.667  0.500-   1 2.57   1 2.57   1 2.57   1 2.57   1 2.57   1 2.57
 
  LATTYP: Found a hexagonal cell.
 ALAT       =     2.4232000000
 C/A-ratio  =     1.7772532189
  
  Lattice vectors:
  
 A1 = (   2.4232000000,   0.0000000000,   0.0000000000)
 A2 = (  -1.2116000000,   2.0985527585,   0.0000000000)
 A3 = (   0.0000000000,   0.0000000000,   4.3066400000)


Analysis of symmetry for initial positions (statically):
=====================================================================
 Subroutine PRICEL returns:
 Original cell was already a primitive cell.
 

 Routine SETGRP: Setting up the symmetry group for a 
 hexagonal supercell.


 Subroutine GETGRP returns: Found 24 space group operations
 (whereof 12 operations were pure point group operations)
 out of a pool of 24 trial point group operations.


The static configuration has the point symmetry D_3h.
 The point group associated with its full space group is D_6h.


Analysis of symmetry for dynamics (positions and initial velocities):
=====================================================================
 Subroutine PRICEL returns:
 Original cell was already a primitive cell.
 

 Routine SETGRP: Setting up the symmetry group for a 
 hexagonal supercell.


 Subroutine GETGRP returns: Found 24 space group operations
 (whereof 12 operations were pure point group operations)
 out of a pool of 24 trial point group operations.


The dynamic configuration has the point symmetry D_3h.
 The point group associated with its full space group is D_6h.


 Subroutine INISYM returns: Found 24 space group operations
 (whereof 12 operations are pure point group operations),
 and found     1 'primitive' translations


----------------------------------------------------------------------------------------

                                     Primitive cell                                     

  volume of cell :      21.9002

  direct lattice vectors                    reciprocal lattice vectors
     2.423200000  0.000000000  0.000000000     0.412677451  0.238259438  0.000000000
    -1.211600000  2.098552758  0.000000000     0.000000000  0.476518875  0.000000000
     0.000000000  0.000000000  4.306640000     0.000000000  0.000000000  0.232199580

  length of vectors
     2.423200000  2.423200000  4.306640000     0.476518875  0.476518875  0.232199580

  position of ions in fractional coordinates (direct lattice)
     0.000000000  0.000000000  0.000000000
     0.333333333  0.666666667  0.500000000

  ion indices of the primitive-cell ions
   primitive index   ion index
                 1           1
                 2           2

----------------------------------------------------------------------------------------

 
 
 KPOINTS: KPOINTS created by Atomic Simulation Env

Automatic generation of k-mesh.
 Grid dimensions read from file:
 generate k-points for:   11   11   11

 Generating k-lattice:

  Cartesian coordinates                     Fractional coordinates (reciprocal lattice)
     0.037516132  0.021659949  0.000000000     0.090909091  0.000000000  0.000000000
     0.000000000  0.043319898  0.000000000     0.000000000  0.090909091  0.000000000
     0.000000000  0.000000000  0.021109053     0.000000000  0.000000000  0.090909091

  Length of vectors
     0.043319898  0.043319898  0.021109053

  Shift w.r.t. Gamma in fractional coordinates (k-lattice)
     0.000000000  0.000000000  0.000000000

 
 Subroutine IBZKPT returns following result:
 ===========================================
 
 Found     96 irreducible k-points:
 
 Following reciprocal coordinates:
            Coordinates               Weight
  0.000000  0.000000  0.000000      1.000000
  0.090909 -0.000000  0.000000      6.000000
  0.181818  0.000000  0.000000      6.000000
  0.272727 -0.000000  0.000000      6.000000
  0.363636 -0.000000  0.000000      6.000000
  0.454545  0.000000  0.000000      6.000000
  0.090909  0.090909  0.000000      6.000000
  0.181818  0.090909  0.000000     12.000000
  0.272727  0.090909  0.000000     12.000000
  0.363636  0.090909  0.000000     12.000000
  0.454545  0.090909  0.000000      6.000000
  0.181818  0.181818  0.000000      6.000000
  0.272727  0.181818  0.000000     12.000000
  0.363636  0.181818  0.000000     12.000000
  0.272727  0.272727  0.000000      6.000000
  0.363636  0.272727  0.000000      6.000000
  0.000000  0.000000  0.090909      2.000000
  0.090909 -0.000000  0.090909     12.000000
  0.181818  0.000000  0.090909     12.000000
  0.272727 -0.000000  0.090909     12.000000
  0.363636 -0.000000  0.090909     12.000000
  0.454545  0.000000  0.090909     12.000000
  0.090909  0.090909  0.090909     12.000000
  0.181818  0.090909  0.090909     24.000000
  0.272727  0.090909  0.090909     24.000000
  0.363636  0.090909  0.090909     24.000000
  0.454545  0.090909  0.090909     12.000000
  0.181818  0.181818  0.090909     12.000000
  0.272727  0.181818  0.090909     24.000000
  0.363636  0.181818  0.090909     24.000000
  0.272727  0.272727  0.090909     12.000000
  0.363636  0.272727  0.090909     12.000000
  0.000000  0.000000  0.181818      2.000000
  0.090909 -0.000000  0.181818     12.000000
  0.181818  0.000000  0.181818     12.000000
  0.272727 -0.000000  0.181818     12.000000
  0.363636 -0.000000  0.181818     12.000000
  0.454545  0.000000  0.181818     12.000000
  0.090909  0.090909  0.181818     12.000000
  0.181818  0.090909  0.181818     24.000000
  0.272727  0.090909  0.181818     24.000000
  0.363636  0.090909  0.181818     24.000000
  0.454545  0.090909  0.181818     12.000000
  0.181818  0.181818  0.181818     12.000000
  0.272727  0.181818  0.181818     24.000000
  0.363636  0.181818  0.181818     24.000000
  0.272727  0.272727  0.181818     12.000000
  0.363636  0.272727  0.181818     12.000000
  0.000000  0.000000  0.272727      2.000000
  0.090909 -0.000000  0.272727     12.000000
  0.181818  0.000000  0.272727     12.000000
  0.272727 -0.000000  0.272727     12.000000
  0.363636 -0.000000  0.272727     12.000000
  0.454545  0.000000  0.272727     12.000000
  0.090909  0.090909  0.272727     12.000000
  0.181818  0.090909  0.272727     24.000000
  0.272727  0.090909  0.272727     24.000000
  0.363636  0.090909  0.272727     24.000000
  0.454545  0.090909  0.272727     12.000000
  0.181818  0.181818  0.272727     12.000000
  0.272727  0.181818  0.272727     24.000000
  0.363636  0.181818  0.272727     24.000000
  0.272727  0.272727  0.272727     12.000000
  0.363636  0.272727  0.272727     12.000000
  0.000000  0.000000  0.363636      2.000000
  0.090909 -0.000000  0.363636     12.000000
  0.181818  0.000000  0.363636     12.000000
  0.272727 -0.000000  0.363636     12.000000
  0.363636 -0.000000  0.363636     12.000000
  0.454545  0.000000  0.363636     12.000000
  0.090909  0.090909  0.363636     12.000000
  0.181818  0.090909  0.363636     24.000000
  0.272727  0.090909  0.363636     24.000000
  0.363636  0.090909  0.363636     24.000000
  0.454545  0.090909  0.363636     12.000000
  0.181818  0.181818  0.363636     12.000000
  0.272727  0.181818  0.363636     24.000000
  0.363636  0.181818  0.363636     24.000000
  0.272727  0.272727  0.363636     12.000000
  0.363636  0.272727  0.363636     12.000000
  0.000000  0.000000  0.454545      2.000000
  0.090909 -0.000000  0.454545     12.000000
  0.181818  0.000000  0.454545     12.000000
  0.272727 -0.000000  0.454545     12.000000
  0.363636 -0.000000  0.454545     12.000000
  0.454545  0.000000  0.454545     12.000000
  0.090909  0.090909  0.454545     12.000000
  0.181818  0.090909  0.454545     24.000000
  0.272727  0.090909  0.454545     24.000000
  0.363636  0.090909  0.454545     24.000000
  0.454545  0.090909  0.454545     12.000000
  0.181818  0.181818  0.454545     12.000000
  0.272727  0.181818  0.454545     24.000000
  0.363636  0.181818  0.454545     24.000000
  0.272727  0.272727  0.454545     12.000000
  0.363636  0.272727  0.454545     12.000000
 
 Following cartesian coordinates:
            Coordinates               Weight
  0.000000  0.000000  0.000000      1.000000
  0.037516  0.021660  0.000000      6.000000
  0.075032  0.043320  0.000000      6.000000
  0.112548  0.064980  0.000000      6.000000
  0.150065  0.086640  0.000000      6.000000
  0.187581  0.108300  0.000000      6.000000
  0.037516  0.064980  0.000000      6.000000
  0.075032  0.086640  0.000000     12.000000
  0.112548  0.108300  0.000000     12.000000
  0.150065  0.129960  0.000000     12.000000
  0.187581  0.151620  0.000000      6.000000
  0.075032  0.129960  0.000000      6.000000
  0.112548  0.151620  0.000000     12.000000
  0.150065  0.173280  0.000000     12.000000
  0.112548  0.194940  0.000000      6.000000
  0.150065  0.216599  0.000000      6.000000
  0.000000  0.000000  0.021109      2.000000
  0.037516  0.021660  0.021109     12.000000
  0.075032  0.043320  0.021109     12.000000
  0.112548  0.064980  0.021109     12.000000
  0.150065  0.086640  0.021109     12.000000
  0.187581  0.108300  0.021109     12.000000
  0.037516  0.064980  0.021109     12.000000
  0.075032  0.086640  0.021109     24.000000
  0.112548  0.108300  0.021109     24.000000
  0.150065  0.129960  0.021109     24.000000
  0.187581  0.151620  0.021109     12.000000
  0.075032  0.129960  0.021109     12.000000
  0.112548  0.151620  0.021109     24.000000
  0.150065  0.173280  0.021109     24.000000
  0.112548  0.194940  0.021109     12.000000
  0.150065  0.216599  0.021109     12.000000
  0.000000  0.000000  0.042218      2.000000
  0.037516  0.021660  0.042218     12.000000
  0.075032  0.043320  0.042218     12.000000
  0.112548  0.064980  0.042218     12.000000
  0.150065  0.086640  0.042218     12.000000
  0.187581  0.108300  0.042218     12.000000
  0.037516  0.064980  0.042218     12.000000
  0.075032  0.086640  0.042218     24.000000
  0.112548  0.108300  0.042218     24.000000
  0.150065  0.129960  0.042218     24.000000
  0.187581  0.151620  0.042218     12.000000
  0.075032  0.129960  0.042218     12.000000
  0.112548  0.151620  0.042218     24.000000
  0.150065  0.173280  0.042218     24.000000
  0.112548  0.194940  0.042218     12.000000
  0.150065  0.216599  0.042218     12.000000
  0.000000  0.000000  0.063327      2.000000
  0.037516  0.021660  0.063327     12.000000
  0.075032  0.043320  0.063327     12.000000
  0.112548  0.064980  0.063327     12.000000
  0.150065  0.086640  0.063327     12.000000
  0.187581  0.108300  0.063327     12.000000
  0.037516  0.064980  0.063327     12.000000
  0.075032  0.086640  0.063327     24.000000
  0.112548  0.108300  0.063327     24.000000
  0.150065  0.129960  0.063327     24.000000
  0.187581  0.151620  0.063327     12.000000
  0.075032  0.129960  0.063327     12.000000
  0.112548  0.151620  0.063327     24.000000
  0.150065  0.173280  0.063327     24.000000
  0.112548  0.194940  0.063327     12.000000
  0.150065  0.216599  0.063327     12.000000
  0.000000  0.000000  0.084436      2.000000
  0.037516  0.021660  0.084436     12.000000
  0.075032  0.043320  0.084436     12.000000
  0.112548  0.064980  0.084436     12.000000
  0.150065  0.086640  0.084436     12.000000
  0.187581  0.108300  0.084436     12.000000
  0.037516  0.064980  0.084436     12.000000
  0.075032  0.086640  0.084436     24.000000
  0.112548  0.108300  0.084436     24.000000
  0.150065  0.129960  0.084436     24.000000
  0.187581  0.151620  0.084436     12.000000
  0.075032  0.129960  0.084436     12.000000
  0.112548  0.151620  0.084436     24.000000
  0.150065  0.173280  0.084436     24.000000
  0.112548  0.194940  0.084436     12.000000
  0.150065  0.216599  0.084436     12.000000
  0.000000  0.000000  0.105545      2.000000
  0.037516  0.021660  0.105545     12.000000
  0.075032  0.043320  0.105545     12.000000
  0.112548  0.064980  0.105545     12.000000
  0.150065  0.086640  0.105545     12.000000
  0.187581  0.108300  0.105545     12.000000
  0.037516  0.064980  0.105545     12.000000
  0.075032  0.086640  0.105545     24.000000
  0.112548  0.108300  0.105545     24.000000
  0.150065  0.129960  0.105545     24.000000
  0.187581  0.151620  0.105545     12.000000
  0.075032  0.129960  0.105545     12.000000
  0.112548  0.151620  0.105545     24.000000
  0.150065  0.173280  0.105545     24.000000
  0.112548  0.194940  0.105545     12.000000
  0.150065  0.216599  0.105545     12.000000
 


--------------------------------------------------------------------------------------------------------




 Dimension of arrays:
   k-points           NKPTS =     96   k-points in BZ     NKDIM =     96   number of bands    NBANDS=     40
   number of dos      NEDOS =    301   number of ions     NIONS =      2
   non local maximal  LDIM  =      6   non local SUM 2l+1 LMDIM =     18
   total plane-waves  NPLWV =   1800
   max r-space proj   IRMAX =      1   max aug-charges    IRDMAX=   3127
   dimension x,y,z NGX =    10 NGY =   10 NGZ =   18
   dimension x,y,z NGXF=    20 NGYF=   20 NGZF=   36
   support grid    NGXF=    20 NGYF=   20 NGZF=   36
   ions per type =               2
   NGX,Y,Z   is equivalent  to a cutoff of   6.86,  6.86,  6.95 a.u.
   NGXF,Y,Z  is equivalent  to a cutoff of  13.72, 13.72, 13.90 a.u.

 SYSTEM =  unknown system                          
 POSCAR =  Fe                                      

 Startparameter for this run:
   NWRITE =      2    write-flag & timer
   PREC   = normal    normal or accurate (medium, high low for compatibility)
   ISTART =      0    job   : 0-new  1-cont  2-samecut
   ICHARG =      1    charge: 1-file 2-atom 10-const
   ISPIN  =      1    spin polarized calculation?
   LNONCOLLINEAR =      F non collinear calculations
   LSORBIT =      F    spin-orbit coupling
   INIWAV =      1    electr: 0-lowe 1-rand  2-diag
   LASPH  =      F    aspherical Exc in radial PAW
   METAGGA=      F    non-selfconsistent MetaGGA calc.

 Electronic Relaxation 1
   ENCUT  =  280.0 eV  20.58 Ry    4.54 a.u.   3.31  3.31  5.88*2*pi/ulx,y,z
   ENINI  =  280.0     initial cutoff
   ENAUG  =  511.4 eV  augmentation charge cutoff
   NELM   =     60;   NELMIN=  2; NELMDL= -5     # of ELM steps 
   EDIFF  = 0.1E-05   stopping-criterion for ELM
   LREAL  =      F    real-space projection
   NLSPLINE    = F    spline interpolate recip. space projectors
   LCOMPAT=      F    compatible to vasp.4.4
   GGA_COMPAT  = T    GGA compatible to vasp.4.4-vasp.4.6
   LMAXPAW     = -100 max onsite density
   LMAXMIX     =    2 max onsite mixed and CHGCAR
   VOSKOWN=      0    Vosko Wilk Nusair interpolation
   ROPT   =    0.00000
 Ionic relaxation
   EDIFFG = 0.1E-04   stopping-criterion for IOM
   NSW    =      0    number of steps for IOM
   NBLOCK =      1;   KBLOCK =      1    inner block; outer block 
   IBRION =     -1    ionic relax: 0-MD 1-quasi-New 2-CG
   NFREE  =      0    steps in history (QN), initial steepest desc. (CG)
   ISIF   =      2    stress and relaxation
   IWAVPR =      0    prediction:  0-non 1-charg 2-wave 3-comb
   ISYM   =      2    0-nonsym 1-usesym 2-fastsym
   LCORR  =      T    Harris-Foulkes like correction to forces

   POTIM  = 0.5000    time-step for ionic-motion
   TEIN   =    0.0    initial temperature
   TEBEG  =    0.0;   TEEND  =   0.0 temperature during run
   SMASS  =  -3.00    Nose mass-parameter (am)
   estimated Nose-frequenzy (Omega)   =  0.10E-29 period in steps = 0.13E+47 mass=  -0.134E-27a.u.
   SCALEE = 1.0000    scale energy and forces
   NPACO  =    256;   APACO  = 16.0  distance and # of slots for P.C.
   PSTRESS=    0.0 pullay stress

  Mass of Ions in am
   POMASS =  55.85
  Ionic Valenz
   ZVAL   =   8.00
  Atomic Wigner-Seitz radii
   RWIGS  =  -1.00
  virtual crystal weights 
   VCA    =   1.00
   NELECT =      16.0000    total number of electrons
   NUPDOWN=      -1.0000    fix difference up-down

 DOS related values:
   EMIN   =  10.00;   EMAX   =-10.00  energy-range for DOS
   EFERMI =   0.00
   ISMEAR =     1;   SIGMA  =   0.20  broadening in eV -4-tet -1-fermi 0-gaus

 Electronic relaxation 2 (details)
   IALGO  =     38    algorithm
   LDIAG  =      T    sub-space diagonalisation (order eigenvalues)
   LSUBROT=      F    optimize rotation matrix (better conditioning)
   TURBO    =      0    0=normal 1=particle mesh
   IRESTART =      0    0=no restart 2=restart with 2 vectors
   NREBOOT  =      0    no. of reboots
   NMIN     =      0    reboot dimension
   EREF     =   0.00    reference energy to select bands
   IMIX   =      4    mixing-type and parameters
     AMIX     =   0.40;   BMIX     =  1.00
     AMIX_MAG =   1.60;   BMIX_MAG =  1.00
     AMIN     =   0.10
     WC   =   100.;   INIMIX=   1;  MIXPRE=   1;  MAXMIX= -45

 Intra band minimization:
   WEIMIN = 0.0000     energy-eigenvalue tresh-hold
   EBREAK =  0.62E-08  absolut break condition
   DEPER  =   0.30     relativ break condition  

   TIME   =   0.40     timestep for ELM

  volume/ion in A,a.u.               =      10.95        73.89
  Fermi-wavevector in a.u.,A,eV,Ry     =   1.474457  2.786321 29.579404  2.174025
  Thomas-Fermi vector in A             =   2.589226
 
 Write flags
   LWAVE        =      T    write WAVECAR
   LDOWNSAMPLE  =      F    k-point downsampling of WAVECAR
   LCHARG       =      T    write CHGCAR
   LVTOT        =      F    write LOCPOT, total local potential
   LVHAR        =      F    write LOCPOT, Hartree potential only
   LELF         =      F    write electronic localiz. function (ELF)
   LORBIT       =      0    0 simple, 1 ext, 2 COOP (PROOUT), +10 PAW based schemes


 Dipole corrections
   LMONO  =      F    monopole corrections only (constant potential shift)
   LDIPOL =      F    correct potential (dipole corrections)
   IDIPOL =      0    1-x, 2-y, 3-z, 4-all directions 
   EPSILON=  1.0000000 bulk dielectric constant

 Exchange correlation treatment:
   GGA     =    PE    GGA type
   LEXCH   =     8    internal setting for exchange type
   VOSKOWN=      0    Vosko Wilk Nusair interpolation
   LHFCALC =     F    Hartree Fock is set to
   LHFONE  =     F    Hartree Fock one center treatment
   AEXX    =    0.0000 exact exchange contribution

 Linear response parameters
   LEPSILON=     F    determine dielectric tensor
   LRPA    =     F    only Hartree local field effects (RPA)
   LNABLA  =     F    use nabla operator in PAW spheres
   LVEL    =     F    velocity operator in full k-point grid
   LINTERFAST=   F  fast interpolation
   KINTER  =     0    interpolate to denser k-point grid
   CSHIFT  =0.1000    complex shift for real part using Kramers Kronig
   OMEGAMAX=  -1.0    maximum frequency
   DEG_THRESHOLD= 0.2000000E-02 threshold for treating states as degnerate
   RTIME   =   -0.100 relaxation time in fs
  (WPLASMAI=    0.000 imaginary part of plasma frequency in eV, 0.658/RTIME)
   DFIELD  = 0.0000000 0.0000000 0.0000000 field for delta impulse in time
 
 Orbital magnetization related:
   ORBITALMAG=     F  switch on orbital magnetization
   LCHIMAG   =     F  perturbation theory with respect to B field
   DQ        =  0.001000  dq finite difference perturbation B field
   LLRAUG    =     F  two centre corrections for induced B field



--------------------------------------------------------------------------------------------------------


 Static calculation
 charge density and potential will be updated during run
 non-spin polarized calculation
 Variant of blocked Davidson
 Davidson routine will perform the subspace rotation
 perform sub-space diagonalisation
    after iterative eigenvector-optimisation
 modified Broyden-mixing scheme, WC =      100.0
 initial mixing is a Kerker type mixing with AMIX =  0.4000 and BMIX =      1.0000
 Hartree-type preconditioning will be used
 using additional bands           32
 reciprocal scheme for non local part
 use partial core corrections
 calculate Harris-corrections to forces 
   (improved forces if not selfconsistent)
 use gradient corrections 
 use of overlap-Matrix (Vanderbilt PP)
 Methfessel and Paxton  Order N= 1 SIGMA  =   0.20


--------------------------------------------------------------------------------------------------------


  energy-cutoff  :      280.00
  volume of cell :       21.90
      direct lattice vectors                 reciprocal lattice vectors
     2.423200000  0.000000000  0.000000000     0.412677451  0.238259438  0.000000000
    -1.211600000  2.098552758  0.000000000     0.000000000  0.476518875  0.000000000
     0.000000000  0.000000000  4.306640000     0.000000000  0.000000000  0.232199580

  length of vectors
     2.423200000  2.423200000  4.306640000     0.476518875  0.476518875  0.232199580


 
 k-points in units of 2pi/SCALE and weight: KPOINTS created by Atomic Simulation Env
   0.00000000  0.00000000  0.00000000       0.001
   0.03751613  0.02165995  0.00000000       0.005
   0.07503226  0.04331990  0.00000000       0.005
   0.11254840  0.06497985  0.00000000       0.005
   0.15006453  0.08663980  0.00000000       0.005
   0.18758066  0.10829974  0.00000000       0.005
   0.03751613  0.06497985  0.00000000       0.005
   0.07503226  0.08663980  0.00000000       0.009
   0.11254840  0.10829974  0.00000000       0.009
   0.15006453  0.12995969  0.00000000       0.009
   0.18758066  0.15161964  0.00000000       0.005
   0.07503226  0.12995969  0.00000000       0.005
   0.11254840  0.15161964  0.00000000       0.009
   0.15006453  0.17327959  0.00000000       0.009
   0.11254840  0.19493954  0.00000000       0.005
   0.15006453  0.21659949  0.00000000       0.005
   0.00000000  0.00000000  0.02110905       0.002
   0.03751613  0.02165995  0.02110905       0.009
   0.07503226  0.04331990  0.02110905       0.009
   0.11254840  0.06497985  0.02110905       0.009
   0.15006453  0.08663980  0.02110905       0.009
   0.18758066  0.10829974  0.02110905       0.009
   0.03751613  0.06497985  0.02110905       0.009
   0.07503226  0.08663980  0.02110905       0.018
   0.11254840  0.10829974  0.02110905       0.018
   0.15006453  0.12995969  0.02110905       0.018
   0.18758066  0.15161964  0.02110905       0.009
   0.07503226  0.12995969  0.02110905       0.009
   0.11254840  0.15161964  0.02110905       0.018
   0.15006453  0.17327959  0.02110905       0.018
   0.11254840  0.19493954  0.02110905       0.009
   0.15006453  0.21659949  0.02110905       0.009
   0.00000000  0.00000000  0.04221811       0.002
   0.03751613  0.02165995  0.04221811       0.009
   0.07503226  0.04331990  0.04221811       0.009
   0.11254840  0.06497985  0.04221811       0.009
   0.15006453  0.08663980  0.04221811       0.009
   0.18758066  0.10829974  0.04221811       0.009
   0.03751613  0.06497985  0.04221811       0.009
   0.07503226  0.08663980  0.04221811       0.018
   0.11254840  0.10829974  0.04221811       0.018
   0.15006453  0.12995969  0.04221811       0.018
   0.18758066  0.15161964  0.04221811       0.009
   0.07503226  0.12995969  0.04221811       0.009
   0.11254840  0.15161964  0.04221811       0.018
   0.15006453  0.17327959  0.04221811       0.018
   0.11254840  0.19493954  0.04221811       0.009
   0.15006453  0.21659949  0.04221811       0.009
   0.00000000  0.00000000  0.06332716       0.002
   0.03751613  0.02165995  0.06332716       0.009
   0.07503226  0.04331990  0.06332716       0.009
   0.11254840  0.06497985  0.06332716       0.009
   0.15006453  0.08663980  0.06332716       0.009
   0.18758066  0.10829974  0.06332716       0.009
   0.03751613  0.06497985  0.06332716       0.009
   0.07503226  0.08663980  0.06332716       0.018
   0.11254840  0.10829974  0.06332716       0.018
   0.15006453  0.12995969  0.06332716       0.018
   0.18758066  0.15161964  0.06332716       0.009
   0.07503226  0.12995969  0.06332716       0.009
   0.11254840  0.15161964  0.06332716       0.018
   0.15006453  0.17327959  0.06332716       0.018
   0.11254840  0.19493954  0.06332716       0.009
   0.15006453  0.21659949  0.06332716       0.009
   0.00000000  0.00000000  0.08443621       0.002
   0.03751613  0.02165995  0.08443621       0.009
   0.07503226  0.04331990  0.08443621       0.009
   0.11254840  0.06497985  0.08443621       0.009
   0.15006453  0.08663980  0.08443621       0.009
   0.18758066  0.10829974  0.08443621       0.009
   0.03751613  0.06497985  0.08443621       0.009
   0.07503226  0.08663980  0.08443621       0.018
   0.11254840  0.10829974  0.08443621       0.018
   0.15006453  0.12995969  0.08443621       0.018
   0.18758066  0.15161964  0.08443621       0.009
   0.07503226  0.12995969  0.08443621       0.009
   0.11254840  0.15161964  0.08443621       0.018
   0.15006453  0.17327959  0.08443621       0.018
   0.11254840  0.19493954  0.08443621       0.009
   0.15006453  0.21659949  0.08443621       0.009
   0.00000000  0.00000000  0.10554526       0.002
   0.03751613  0.02165995  0.10554526       0.009
   0.07503226  0.04331990  0.10554526       0.009
   0.11254840  0.06497985  0.10554526       0.009
   0.15006453  0.08663980  0.10554526       0.009
   0.18758066  0.10829974  0.10554526       0.009
   0.03751613  0.06497985  0.10554526       0.009
   0.07503226  0.08663980  0.10554526       0.018
   0.11254840  0.10829974  0.10554526       0.018
   0.15006453  0.12995969  0.10554526       0.018
   0.18758066  0.15161964  0.10554526       0.009
   0.07503226  0.12995969  0.10554526       0.009
   0.11254840  0.15161964  0.10554526       0.018
   0.15006453  0.17327959  0.10554526       0.018
   0.11254840  0.19493954  0.10554526       0.009
   0.15006453  0.21659949  0.10554526       0.009
 
 k-points in reciprocal lattice and weights: KPOINTS created by Atomic Simulation Env
   0.00000000  0.00000000  0.00000000       0.001
   0.09090909 -0.00000000  0.00000000       0.005
   0.18181818  0.00000000  0.00000000       0.005
   0.27272727 -0.00000000  0.00000000       0.005
   0.36363636 -0.00000000  0.00000000       0.005
   0.45454545  0.00000000  0.00000000       0.005
   0.09090909  0.09090909  0.00000000       0.005
   0.18181818  0.09090909  0.00000000       0.009
   0.27272727  0.09090909  0.00000000       0.009
   0.36363636  0.09090909  0.00000000       0.009
   0.45454545  0.09090909  0.00000000       0.005
   0.18181818  0.18181818  0.00000000       0.005
   0.27272727  0.18181818  0.00000000       0.009
   0.36363636  0.18181818  0.00000000       0.009
   0.27272727  0.27272727  0.00000000       0.005
   0.36363636  0.27272727  0.00000000       0.005
   0.00000000  0.00000000  0.09090909       0.002
   0.09090909 -0.00000000  0.09090909       0.009
   0.18181818  0.00000000  0.09090909       0.009
   0.27272727 -0.00000000  0.09090909       0.009
   0.36363636 -0.00000000  0.09090909       0.009
   0.45454545  0.00000000  0.09090909       0.009
   0.09090909  0.09090909  0.09090909       0.009
   0.18181818  0.09090909  0.09090909       0.018
   0.27272727  0.09090909  0.09090909       0.018
   0.36363636  0.09090909  0.09090909       0.018
   0.45454545  0.09090909  0.09090909       0.009
   0.18181818  0.18181818  0.09090909       0.009
   0.27272727  0.18181818  0.09090909       0.018
   0.36363636  0.18181818  0.09090909       0.018
   0.27272727  0.27272727  0.09090909       0.009
   0.36363636  0.27272727  0.09090909       0.009
   0.00000000  0.00000000  0.18181818       0.002
   0.09090909 -0.00000000  0.18181818       0.009
   0.18181818  0.00000000  0.18181818       0.009
   0.27272727 -0.00000000  0.18181818       0.009
   0.36363636 -0.00000000  0.18181818       0.009
   0.45454545  0.00000000  0.18181818       0.009
   0.09090909  0.09090909  0.18181818       0.009
   0.18181818  0.09090909  0.18181818       0.018
   0.27272727  0.09090909  0.18181818       0.018
   0.36363636  0.09090909  0.18181818       0.018
   0.45454545  0.09090909  0.18181818       0.009
   0.18181818  0.18181818  0.18181818       0.009
   0.27272727  0.18181818  0.18181818       0.018
   0.36363636  0.18181818  0.18181818       0.018
   0.27272727  0.27272727  0.18181818       0.009
   0.36363636  0.27272727  0.18181818       0.009
   0.00000000  0.00000000  0.27272727       0.002
   0.09090909 -0.00000000  0.27272727       0.009
   0.18181818  0.00000000  0.27272727       0.009
   0.27272727 -0.00000000  0.27272727       0.009
   0.36363636 -0.00000000  0.27272727       0.009
   0.45454545  0.00000000  0.27272727       0.009
   0.09090909  0.09090909  0.27272727       0.009
   0.18181818  0.09090909  0.27272727       0.018
   0.27272727  0.09090909  0.27272727       0.018
   0.36363636  0.09090909  0.27272727       0.018
   0.45454545  0.09090909  0.27272727       0.009
   0.18181818  0.18181818  0.27272727       0.009
   0.27272727  0.18181818  0.27272727       0.018
   0.36363636  0.18181818  0.27272727       0.018
   0.27272727  0.27272727  0.27272727       0.009
   0.36363636  0.27272727  0.27272727       0.009
   0.00000000  0.00000000  0.36363636       0.002
   0.09090909 -0.00000000  0.36363636       0.009
   0.18181818  0.00000000  0.36363636       0.009
   0.27272727 -0.00000000  0.36363636       0.009
   0.36363636 -0.00000000  0.36363636       0.009
   0.45454545  0.00000000  0.36363636       0.009
   0.09090909  0.09090909  0.36363636       0.009
   0.18181818  0.09090909  0.36363636       0.018
   0.27272727  0.09090909  0.36363636       0.018
   0.36363636  0.09090909  0.36363636       0.018
   0.45454545  0.09090909  0.36363636       0.009
   0.18181818  0.18181818  0.36363636       0.009
   0.27272727  0.18181818  0.36363636       0.018
   0.36363636  0.18181818  0.36363636       0.018
   0.27272727  0.27272727  0.36363636       0.009
   0.36363636  0.27272727  0.36363636       0.009
   0.00000000  0.00000000  0.45454545       0.002
   0.09090909 -0.00000000  0.45454545       0.009
   0.18181818  0.00000000  0.45454545       0.009
   0.27272727 -0.00000000  0.45454545       0.009
   0.36363636 -0.00000000  0.45454545       0.009
   0.45454545  0.00000000  0.45454545       0.009
   0.09090909  0.09090909  0.45454545       0.009
   0.18181818  0.09090909  0.45454545       0.018
   0.27272727  0.09090909  0.45454545       0.018
   0.36363636  0.09090909  0.45454545       0.018
   0.45454545  0.09090909  0.45454545       0.009
   0.18181818  0.18181818  0.45454545       0.009
   0.27272727  0.18181818  0.45454545       0.018
   0.36363636  0.18181818  0.45454545       0.018
   0.27272727  0.27272727  0.45454545       0.009
   0.36363636  0.27272727  0.45454545       0.009
 
 position of ions in fractional coordinates (direct lattice) 
   0.00000000  0.00000000  0.00000000
   0.33333333  0.66666667  0.50000000
 
 position of ions in cartesian coordinates  (Angst):
   0.00000000  0.00000000  0.00000000
   0.00000000  1.39903517  2.15332000
 


--------------------------------------------------------------------------------------------------------


 k-point   1 :   0.0000 0.0000 0.0000  plane waves:     245
 k-point   2 :   0.0909-0.0000 0.0000  plane waves:     237
 k-point   3 :   0.1818 0.0000 0.0000  plane waves:     238
 k-point   4 :   0.2727-0.0000 0.0000  plane waves:     232
 k-point   5 :   0.3636-0.0000 0.0000  plane waves:     234
 k-point   6 :   0.4545 0.0000 0.0000  plane waves:     234
 k-point   7 :   0.0909 0.0909 0.0000  plane waves:     229
 k-point   8 :   0.1818 0.0909 0.0000  plane waves:     235
 k-point   9 :   0.2727 0.0909 0.0000  plane waves:     234
 k-point  10 :   0.3636 0.0909 0.0000  plane waves:     233
 k-point  11 :   0.4545 0.0909 0.0000  plane waves:     230
 k-point  12 :   0.1818 0.1818 0.0000  plane waves:     235
 k-point  13 :   0.2727 0.1818 0.0000  plane waves:     233
 k-point  14 :   0.3636 0.1818 0.0000  plane waves:     234
 k-point  15 :   0.2727 0.2727 0.0000  plane waves:     231
 k-point  16 :   0.3636 0.2727 0.0000  plane waves:     226
 k-point  17 :   0.0000 0.0000 0.0909  plane waves:     245
 k-point  18 :   0.0909-0.0000 0.0909  plane waves:     236
 k-point  19 :   0.1818 0.0000 0.0909  plane waves:     233
 k-point  20 :   0.2727-0.0000 0.0909  plane waves:     228
 k-point  21 :   0.3636-0.0000 0.0909  plane waves:     234
 k-point  22 :   0.4545 0.0000 0.0909  plane waves:     233
 k-point  23 :   0.0909 0.0909 0.0909  plane waves:     231
 k-point  24 :   0.1818 0.0909 0.0909  plane waves:     232
 k-point  25 :   0.2727 0.0909 0.0909  plane waves:     235
 k-point  26 :   0.3636 0.0909 0.0909  plane waves:     231
 k-point  27 :   0.4545 0.0909 0.0909  plane waves:     227
 k-point  28 :   0.1818 0.1818 0.0909  plane waves:     233
 k-point  29 :   0.2727 0.1818 0.0909  plane waves:     232
 k-point  30 :   0.3636 0.1818 0.0909  plane waves:     229
 k-point  31 :   0.2727 0.2727 0.0909  plane waves:     233
 k-point  32 :   0.3636 0.2727 0.0909  plane waves:     228
 k-point  33 :   0.0000 0.0000 0.1818  plane waves:     246
 k-point  34 :   0.0909-0.0000 0.1818  plane waves:     235
 k-point  35 :   0.1818 0.0000 0.1818  plane waves:     238
 k-point  36 :   0.2727-0.0000 0.1818  plane waves:     233
 k-point  37 :   0.3636-0.0000 0.1818  plane waves:     231
 k-point  38 :   0.4545 0.0000 0.1818  plane waves:     233
 k-point  39 :   0.0909 0.0909 0.1818  plane waves:     237
 k-point  40 :   0.1818 0.0909 0.1818  plane waves:     233
 k-point  41 :   0.2727 0.0909 0.1818  plane waves:     234
 k-point  42 :   0.3636 0.0909 0.1818  plane waves:     230
 k-point  43 :   0.4545 0.0909 0.1818  plane waves:     231
 k-point  44 :   0.1818 0.1818 0.1818  plane waves:     232
 k-point  45 :   0.2727 0.1818 0.1818  plane waves:     234
 k-point  46 :   0.3636 0.1818 0.1818  plane waves:     230
 k-point  47 :   0.2727 0.2727 0.1818  plane waves:     229
 k-point  48 :   0.3636 0.2727 0.1818  plane waves:     231
 k-point  49 :   0.0000 0.0000 0.2727  plane waves:     228
 k-point  50 :   0.0909-0.0000 0.2727  plane waves:     239
 k-point  51 :   0.1818 0.0000 0.2727  plane waves:     239
 k-point  52 :   0.2727-0.0000 0.2727  plane waves:     229
 k-point  53 :   0.3636-0.0000 0.2727  plane waves:     234
 k-point  54 :   0.4545 0.0000 0.2727  plane waves:     231
 k-point  55 :   0.0909 0.0909 0.2727  plane waves:     235
 k-point  56 :   0.1818 0.0909 0.2727  plane waves:     235
 k-point  57 :   0.2727 0.0909 0.2727  plane waves:     233
 k-point  58 :   0.3636 0.0909 0.2727  plane waves:     231
 k-point  59 :   0.4545 0.0909 0.2727  plane waves:     234
 k-point  60 :   0.1818 0.1818 0.2727  plane waves:     230
 k-point  61 :   0.2727 0.1818 0.2727  plane waves:     232
 k-point  62 :   0.3636 0.1818 0.2727  plane waves:     233
 k-point  63 :   0.2727 0.2727 0.2727  plane waves:     237
 k-point  64 :   0.3636 0.2727 0.2727  plane waves:     234
 k-point  65 :   0.0000 0.0000 0.3636  plane waves:     234
 k-point  66 :   0.0909-0.0000 0.3636  plane waves:     237
 k-point  67 :   0.1818 0.0000 0.3636  plane waves:     238
 k-point  68 :   0.2727-0.0000 0.3636  plane waves:     233
 k-point  69 :   0.3636-0.0000 0.3636  plane waves:     232
 k-point  70 :   0.4545 0.0000 0.3636  plane waves:     234
 k-point  71 :   0.0909 0.0909 0.3636  plane waves:     237
 k-point  72 :   0.1818 0.0909 0.3636  plane waves:     234
 k-point  73 :   0.2727 0.0909 0.3636  plane waves:     232
 k-point  74 :   0.3636 0.0909 0.3636  plane waves:     235
 k-point  75 :   0.4545 0.0909 0.3636  plane waves:     237
 k-point  76 :   0.1818 0.1818 0.3636  plane waves:     234
 k-point  77 :   0.2727 0.1818 0.3636  plane waves:     231
 k-point  78 :   0.3636 0.1818 0.3636  plane waves:     232
 k-point  79 :   0.2727 0.2727 0.3636  plane waves:     234
 k-point  80 :   0.3636 0.2727 0.3636  plane waves:     231
 k-point  81 :   0.0000 0.0000 0.4545  plane waves:     234
 k-point  82 :   0.0909-0.0000 0.4545  plane waves:     242
 k-point  83 :   0.1818 0.0000 0.4545  plane waves:     233
 k-point  84 :   0.2727-0.0000 0.4545  plane waves:     228
 k-point  85 :   0.3636-0.0000 0.4545  plane waves:     234
 k-point  86 :   0.4545 0.0000 0.4545  plane waves:     238
 k-point  87 :   0.0909 0.0909 0.4545  plane waves:     238
 k-point  88 :   0.1818 0.0909 0.4545  plane waves:     234
 k-point  89 :   0.2727 0.0909 0.4545  plane waves:     230
 k-point  90 :   0.3636 0.0909 0.4545  plane waves:     234
 k-point  91 :   0.4545 0.0909 0.4545  plane waves:     234
 k-point  92 :   0.1818 0.1818 0.4545  plane waves:     234
 k-point  93 :   0.2727 0.1818 0.4545  plane waves:     232
 k-point  94 :   0.3636 0.1818 0.4545  plane waves:     232
 k-point  95 :   0.2727 0.2727 0.4545  plane waves:     230
 k-point  96 :   0.3636 0.2727 0.4545  plane waves:     232

 maximum number of plane-waves:       246
 maximum index in each direction: 
   IXMAX=    3   IYMAX=    3   IZMAX=    5
   IXMIN=   -3   IYMIN=   -3   IZMIN=   -6


 total amount of memory used by VASP MPI-rank0    51577. kBytes
=======================================================================

   base      :      30000. kBytes
   nonl-proj :       3408. kBytes
   grid      :        812. kBytes
   one-center:         31. kBytes
   wavefun   :      17326. kBytes
 
     INWAV:  cpu time    0.0000: real time    0.0000
 Broyden mixing: mesh for mixing (old mesh)
   NGX =  7   NGY =  7   NGZ = 11
  (NGX  = 20   NGY  = 20   NGZ  = 36)
  gives a total of    539 points

 initial charge density was supplied:
 charge density of overlapping atoms calculated
 number of electron      16.0000000 magnetization 
 keeping initial charge density in first step


--------------------------------------------------------------------------------------------------------


 Maximum index for augmentation-charges         2862 (set IRDMAX)


--------------------------------------------------------------------------------------------------------


 First call to EWALD:  gamma=   0.634
 Maximum number of real-space cells 3x 3x 2
 Maximum number of reciprocal cells 2x 2x 4

    FEWALD:  cpu time    0.0009: real time    0.0009


--------------------------------------- Iteration      1(   1)  ---------------------------------------


    POTLOK:  cpu time    0.0035: real time    0.0035
    SETDIJ:  cpu time    0.0021: real time    0.0021
     EDDAV:  cpu time    0.7884: real time    0.8095
       DOS:  cpu time    0.0056: real time    0.0056
    --------------------------------------------
      LOOP:  cpu time    0.7996: real time    0.8207

 eigenvalue-minimisations  :  9136
 total energy-change (2. order) : 0.6089742E+02  (-0.2778533E+03)
 number of electron      16.0000000 magnetization 
 augmentation part       16.0000000 magnetization 

 Free energy of the ion-electron system (eV)
  ---------------------------------------------------
  alpha Z        PSCENC =       126.23415878
  Ewald energy   TEWEN  =     -1197.34942578
  -Hartree energ DENC   =      -218.57543225
  -exchange      EXHF   =         0.00000000
  -V(xc)+E(xc)   XCENC  =         8.05109024
  PAW double counting   =      1109.69170683    -1125.09647265
  entropy T*S    EENTRO =         0.00145729
  eigenvalues    EBANDS =       169.36542593
  atomic energy  EATOM  =      1188.57490811
  Solvation  Ediel_sol  =         0.00000000
  ---------------------------------------------------
  free energy    TOTEN  =        60.89741650 eV

  energy without entropy =       60.89595921  energy(sigma->0) =       60.89693073


--------------------------------------------------------------------------------------------------------




--------------------------------------- Iteration      1(   2)  ---------------------------------------


     EDDAV:  cpu time    0.6969: real time    0.6969
       DOS:  cpu time    0.0065: real time    0.0065
    --------------------------------------------
      LOOP:  cpu time    0.7034: real time    0.7034

 eigenvalue-minimisations  :  7984
 total energy-change (2. order) :-0.7549535E+02  (-0.6400006E+02)
 number of electron      16.0000000 magnetization 
 augmentation part       16.0000000 magnetization 

 Free energy of the ion-electron system (eV)
  ---------------------------------------------------
  alpha Z        PSCENC =       126.23415878
  Ewald energy   TEWEN  =     -1197.34942578
  -Hartree energ DENC   =      -218.57543225
  -exchange      EXHF   =         0.00000000
  -V(xc)+E(xc)   XCENC  =         8.05109024
  PAW double counting   =      1109.69170683    -1125.09647265
  entropy T*S    EENTRO =         0.00384356
  eigenvalues    EBANDS =        93.86769227
  atomic energy  EATOM  =      1188.57490811
  Solvation  Ediel_sol  =         0.00000000
  ---------------------------------------------------
  free energy    TOTEN  =       -14.59793090 eV

  energy without entropy =      -14.60177445  energy(sigma->0) =      -14.59921208


--------------------------------------------------------------------------------------------------------




--------------------------------------- Iteration      1(   3)  ---------------------------------------


     EDDAV:  cpu time    0.7838: real time    0.7838
       DOS:  cpu time    0.0065: real time    0.0065
    --------------------------------------------
      LOOP:  cpu time    0.7903: real time    0.7904

 eigenvalue-minimisations  :  9368
 total energy-change (2. order) :-0.4585130E+01  (-0.4310214E+01)
 number of electron      16.0000000 magnetization 
 augmentation part       16.0000000 magnetization 

 Free energy of the ion-electron system (eV)
  ---------------------------------------------------
  alpha Z        PSCENC =       126.23415878
  Ewald energy   TEWEN  =     -1197.34942578
  -Hartree energ DENC   =      -218.57543225
  -exchange      EXHF   =         0.00000000
  -V(xc)+E(xc)   XCENC  =         8.05109024
  PAW double counting   =      1109.69170683    -1125.09647265
  entropy T*S    EENTRO =         0.00104770
  eigenvalues    EBANDS =        89.28535810
  atomic energy  EATOM  =      1188.57490811
  Solvation  Ediel_sol  =         0.00000000
  ---------------------------------------------------
  free energy    TOTEN  =       -19.18306092 eV

  energy without entropy =      -19.18410862  energy(sigma->0) =      -19.18341016


--------------------------------------------------------------------------------------------------------




--------------------------------------- Iteration      1(   4)  ---------------------------------------


     EDDAV:  cpu time    0.7666: real time    0.7666
       DOS:  cpu time    0.0066: real time    0.0066
    --------------------------------------------
      LOOP:  cpu time    0.7732: real time    0.7732

 eigenvalue-minimisations  :  9200
 total energy-change (2. order) :-0.2504953E-01  (-0.2502738E-01)
 number of electron      16.0000000 magnetization 
 augmentation part       16.0000000 magnetization 

 Free energy of the ion-electron system (eV)
  ---------------------------------------------------
  alpha Z        PSCENC =       126.23415878
  Ewald energy   TEWEN  =     -1197.34942578
  -Hartree energ DENC   =      -218.57543225
  -exchange      EXHF   =         0.00000000
  -V(xc)+E(xc)   XCENC  =         8.05109024
  PAW double counting   =      1109.69170683    -1125.09647265
  entropy T*S    EENTRO =         0.00108000
  eigenvalues    EBANDS =        89.26027628
  atomic energy  EATOM  =      1188.57490811
  Solvation  Ediel_sol  =         0.00000000
  ---------------------------------------------------
  free energy    TOTEN  =       -19.20811045 eV

  energy without entropy =      -19.20919045  energy(sigma->0) =      -19.20847045


--------------------------------------------------------------------------------------------------------




--------------------------------------- Iteration      1(   5)  ---------------------------------------


     EDDAV:  cpu time    0.7690: real time    0.7693
       DOS:  cpu time    0.0066: real time    0.0066
    CHARGE:  cpu time    0.0207: real time    0.0207
    MIXING:  cpu time    0.0002: real time    0.0002
    --------------------------------------------
      LOOP:  cpu time    0.7964: real time    0.7968

 eigenvalue-minimisations  :  9224
 total energy-change (2. order) :-0.4447550E-04  (-0.4447340E-04)
 number of electron      15.9999955 magnetization 
 augmentation part        7.0323169 magnetization 

 Broyden mixing:
  rms(total) = 0.15961E+01    rms(broyden)= 0.15961E+01
  rms(prec ) = 0.28539E+01
  weight for this iteration     100.00

 Free energy of the ion-electron system (eV)
  ---------------------------------------------------
  alpha Z        PSCENC =       126.23415878
  Ewald energy   TEWEN  =     -1197.34942578
  -Hartree energ DENC   =      -218.57543225
  -exchange      EXHF   =         0.00000000
  -V(xc)+E(xc)   XCENC  =         8.05109024
  PAW double counting   =      1109.69170683    -1125.09647265
  entropy T*S    EENTRO =         0.00108003
  eigenvalues    EBANDS =        89.26023177
  atomic energy  EATOM  =      1188.57490811
  Solvation  Ediel_sol  =         0.00000000
  ---------------------------------------------------
  free energy    TOTEN  =       -19.20815493 eV

  energy without entropy =      -19.20923496  energy(sigma->0) =      -19.20851494


--------------------------------------------------------------------------------------------------------




--------------------------------------- Iteration      1(   6)  ---------------------------------------


    POTLOK:  cpu time    0.0033: real time    0.0033
    SETDIJ:  cpu time    0.0021: real time    0.0021
     EDDAV:  cpu time    0.9145: real time    0.9146
       DOS:  cpu time    0.0069: real time    0.0069
    CHARGE:  cpu time    0.0193: real time    0.0193
    MIXING:  cpu time    0.0002: real time    0.0002
    --------------------------------------------
      LOOP:  cpu time    0.9463: real time    0.9463

 eigenvalue-minimisations  : 11112
 total energy-change (2. order) : 0.2885491E+01  (-0.2146103E+00)
 number of electron      15.9999946 magnetization 
 augmentation part        8.5974316 magnetization 

 Broyden mixing:
  rms(total) = 0.35419E+00    rms(broyden)= 0.35408E+00
  rms(prec ) = 0.61402E+00
  weight for this iteration     100.00

 eigenvalues of (default mixing * dielectric matrix)
  average eigenvalue GAMMA=   0.8661
  0.8661

 Free energy of the ion-electron system (eV)
  ---------------------------------------------------
  alpha Z        PSCENC =       126.23415878
  Ewald energy   TEWEN  =     -1197.34942578
  -Hartree energ DENC   =      -182.08330498
  -exchange      EXHF   =         0.00000000
  -V(xc)+E(xc)   XCENC  =         6.27621279
  PAW double counting   =      1216.83358541    -1227.20600291
  entropy T*S    EENTRO =         0.00368156
  eigenvalues    EBANDS =        52.39352326
  atomic energy  EATOM  =      1188.57490811
  Solvation  Ediel_sol  =         0.00000000
  ---------------------------------------------------
  free energy    TOTEN  =       -16.32266377 eV

  energy without entropy =      -16.32634533  energy(sigma->0) =      -16.32389095


--------------------------------------------------------------------------------------------------------




--------------------------------------- Iteration      1(   7)  ---------------------------------------


    POTLOK:  cpu time    0.0034: real time    0.0034
    SETDIJ:  cpu time    0.0021: real time    0.0021
     EDDAV:  cpu time    0.8346: real time    0.8346
       DOS:  cpu time    0.0066: real time    0.0066
    CHARGE:  cpu time    0.0194: real time    0.0194
    MIXING:  cpu time    0.0002: real time    0.0002
    --------------------------------------------
      LOOP:  cpu time    0.8663: real time    0.8663

 eigenvalue-minimisations  : 10144
 total energy-change (2. order) : 0.2888131E+00  (-0.1835132E-01)
 number of electron      15.9999948 magnetization 
 augmentation part        8.1903848 magnetization 

 Broyden mixing:
  rms(total) = 0.99313E-01    rms(broyden)= 0.99309E-01
  rms(prec ) = 0.20456E+00
  weight for this iteration     100.00

 eigenvalues of (default mixing * dielectric matrix)
  average eigenvalue GAMMA=   0.9247
  1.1394  0.7100

 Free energy of the ion-electron system (eV)
  ---------------------------------------------------
  alpha Z        PSCENC =       126.23415878
  Ewald energy   TEWEN  =     -1197.34942578
  -Hartree energ DENC   =      -188.28801852
  -exchange      EXHF   =         0.00000000
  -V(xc)+E(xc)   XCENC  =         6.61094456
  PAW double counting   =      1284.79193921    -1298.88573807
  entropy T*S    EENTRO =         0.00378997
  eigenvalues    EBANDS =        62.27359105
  atomic energy  EATOM  =      1188.57490811
  Solvation  Ediel_sol  =         0.00000000
  ---------------------------------------------------
  free energy    TOTEN  =       -16.03385068 eV

  energy without entropy =      -16.03764065  energy(sigma->0) =      -16.03511400


--------------------------------------------------------------------------------------------------------




--------------------------------------- Iteration      1(   8)  ---------------------------------------


    POTLOK:  cpu time    0.0034: real time    0.0034
    SETDIJ:  cpu time    0.0021: real time    0.0021
     EDDAV:  cpu time    0.8403: real time    0.8404
       DOS:  cpu time    0.0068: real time    0.0068
    CHARGE:  cpu time    0.0194: real time    0.0194
    MIXING:  cpu time    0.0002: real time    0.0002
    --------------------------------------------
      LOOP:  cpu time    0.8722: real time    0.8723

 eigenvalue-minimisations  : 10192
 total energy-change (2. order) : 0.2443089E-01  (-0.4876182E-03)
 number of electron      15.9999948 magnetization 
 augmentation part        8.2252974 magnetization 

 Broyden mixing:
  rms(total) = 0.46029E-01    rms(broyden)= 0.46028E-01
  rms(prec ) = 0.93779E-01
  weight for this iteration     100.00

 eigenvalues of (default mixing * dielectric matrix)
  average eigenvalue GAMMA=   1.4206
  0.7491  1.0430  2.4696

 Free energy of the ion-electron system (eV)
  ---------------------------------------------------
  alpha Z        PSCENC =       126.23415878
  Ewald energy   TEWEN  =     -1197.34942578
  -Hartree energ DENC   =      -186.22978367
  -exchange      EXHF   =         0.00000000
  -V(xc)+E(xc)   XCENC  =         6.52978991
  PAW double counting   =      1332.80000569    -1348.06235356
  entropy T*S    EENTRO =         0.00388565
  eigenvalues    EBANDS =        61.48939508
  atomic energy  EATOM  =      1188.57490811
  Solvation  Ediel_sol  =         0.00000000
  ---------------------------------------------------
  free energy    TOTEN  =       -16.00941979 eV

  energy without entropy =      -16.01330544  energy(sigma->0) =      -16.01071501


--------------------------------------------------------------------------------------------------------




--------------------------------------- Iteration      1(   9)  ---------------------------------------


    POTLOK:  cpu time    0.0034: real time    0.0034
    SETDIJ:  cpu time    0.0021: real time    0.0021
     EDDAV:  cpu time    0.9247: real time    0.9247
       DOS:  cpu time    0.0067: real time    0.0067
    CHARGE:  cpu time    0.0195: real time    0.0195
    MIXING:  cpu time    0.0002: real time    0.0002
    --------------------------------------------
      LOOP:  cpu time    0.9566: real time    0.9566

 eigenvalue-minimisations  : 11344
 total energy-change (2. order) : 0.1064690E-01  (-0.9180074E-04)
 number of electron      15.9999948 magnetization 
 augmentation part        8.2433223 magnetization 

 Broyden mixing:
  rms(total) = 0.64645E-02    rms(broyden)= 0.64610E-02
  rms(prec ) = 0.67444E-02
  weight for this iteration     100.00

 eigenvalues of (default mixing * dielectric matrix)
  average eigenvalue GAMMA=   1.4627
  2.5355  0.7477  0.9978  1.5699

 Free energy of the ion-electron system (eV)
  ---------------------------------------------------
  alpha Z        PSCENC =       126.23415878
  Ewald energy   TEWEN  =     -1197.34942578
  -Hartree energ DENC   =      -184.10230914
  -exchange      EXHF   =         0.00000000
  -V(xc)+E(xc)   XCENC  =         6.45427349
  PAW double counting   =      1400.22720775    -1417.16863278
  entropy T*S    EENTRO =         0.00388821
  eigenvalues    EBANDS =        61.12715846
  atomic energy  EATOM  =      1188.57490811
  Solvation  Ediel_sol  =         0.00000000
  ---------------------------------------------------
  free energy    TOTEN  =       -15.99877289 eV

  energy without entropy =      -16.00266110  energy(sigma->0) =      -16.00006896


--------------------------------------------------------------------------------------------------------




--------------------------------------- Iteration      1(  10)  ---------------------------------------


    POTLOK:  cpu time    0.0034: real time    0.0034
    SETDIJ:  cpu time    0.0021: real time    0.0021
     EDDAV:  cpu time    0.7706: real time    0.7706
       DOS:  cpu time    0.0069: real time    0.0069
    CHARGE:  cpu time    0.0195: real time    0.0195
    MIXING:  cpu time    0.0002: real time    0.0002
    --------------------------------------------
      LOOP:  cpu time    0.8027: real time    0.8028

 eigenvalue-minimisations  :  9208
 total energy-change (2. order) :-0.2675082E-04  (-0.4134778E-05)
 number of electron      15.9999948 magnetization 
 augmentation part        8.2439854 magnetization 

 Broyden mixing:
  rms(total) = 0.29158E-02    rms(broyden)= 0.29141E-02
  rms(prec ) = 0.33525E-02
  weight for this iteration     100.00

 eigenvalues of (default mixing * dielectric matrix)
  average eigenvalue GAMMA=   1.6081
  2.5503  2.5503  0.7479  1.0122  1.1799

 Free energy of the ion-electron system (eV)
  ---------------------------------------------------
  alpha Z        PSCENC =       126.23415878
  Ewald energy   TEWEN  =     -1197.34942578
  -Hartree energ DENC   =      -184.07742245
  -exchange      EXHF   =         0.00000000
  -V(xc)+E(xc)   XCENC  =         6.45447325
  PAW double counting   =      1403.07395081    -1420.02053154
  entropy T*S    EENTRO =         0.00388339
  eigenvalues    EBANDS =        61.10720579
  atomic energy  EATOM  =      1188.57490811
  Solvation  Ediel_sol  =         0.00000000
  ---------------------------------------------------
  free energy    TOTEN  =       -15.99879964 eV

  energy without entropy =      -16.00268303  energy(sigma->0) =      -16.00009410


--------------------------------------------------------------------------------------------------------




--------------------------------------- Iteration      1(  11)  ---------------------------------------


    POTLOK:  cpu time    0.0034: real time    0.0034
    SETDIJ:  cpu time    0.0021: real time    0.0021
     EDDAV:  cpu time    0.7813: real time    0.7813
       DOS:  cpu time    0.0068: real time    0.0068
    CHARGE:  cpu time    0.0194: real time    0.0194
    MIXING:  cpu time    0.0002: real time    0.0002
    --------------------------------------------
      LOOP:  cpu time    0.8133: real time    0.8133

 eigenvalue-minimisations  :  9288
 total energy-change (2. order) : 0.4450538E-05  (-0.5609913E-07)
 number of electron      15.9999948 magnetization 
 augmentation part        8.2437587 magnetization 

 Broyden mixing:
  rms(total) = 0.17765E-03    rms(broyden)= 0.17701E-03
  rms(prec ) = 0.20421E-03
  weight for this iteration     100.00

 eigenvalues of (default mixing * dielectric matrix)
  average eigenvalue GAMMA=   1.5277
  2.5691  2.5691  0.7478  1.0000  1.0000  1.2803

 Free energy of the ion-electron system (eV)
  ---------------------------------------------------
  alpha Z        PSCENC =       126.23415878
  Ewald energy   TEWEN  =     -1197.34942578
  -Hartree energ DENC   =      -184.13094798
  -exchange      EXHF   =         0.00000000
  -V(xc)+E(xc)   XCENC  =         6.45715937
  PAW double counting   =      1403.07792355    -1419.97405447
  entropy T*S    EENTRO =         0.00388346
  eigenvalues    EBANDS =        61.10759976
  atomic energy  EATOM  =      1188.57490811
  Solvation  Ediel_sol  =         0.00000000
  ---------------------------------------------------
  free energy    TOTEN  =       -15.99879519 eV

  energy without entropy =      -16.00267865  energy(sigma->0) =      -16.00008967


--------------------------------------------------------------------------------------------------------




--------------------------------------- Iteration      1(  12)  ---------------------------------------


    POTLOK:  cpu time    0.0033: real time    0.0033
    SETDIJ:  cpu time    0.0021: real time    0.0021
     EDDAV:  cpu time    0.5769: real time    0.5769
       DOS:  cpu time    0.0067: real time    0.0067
    --------------------------------------------
      LOOP:  cpu time    0.5890: real time    0.5890

 eigenvalue-minimisations  :  5928
 total energy-change (2. order) : 0.2970246E-06  (-0.3878465E-08)
 number of electron      15.9999948 magnetization 
 augmentation part        8.2437587 magnetization 

 Free energy of the ion-electron system (eV)
  ---------------------------------------------------
  alpha Z        PSCENC =       126.23415878
  Ewald energy   TEWEN  =     -1197.34942578
  -Hartree energ DENC   =      -184.13280816
  -exchange      EXHF   =         0.00000000
  -V(xc)+E(xc)   XCENC  =         6.45728790
  PAW double counting   =      1403.21516692    -1420.10882405
  entropy T*S    EENTRO =         0.00388365
  eigenvalues    EBANDS =        61.10685774
  atomic energy  EATOM  =      1188.57490811
  Solvation  Ediel_sol  =         0.00000000
  ---------------------------------------------------
  free energy    TOTEN  =       -15.99879489 eV

  energy without entropy =      -16.00267854  energy(sigma->0) =      -16.00008944


--------------------------------------------------------------------------------------------------------




 average (electrostatic) potential at core
  the test charge radii are     1.0103
  (the norm of the test charge is              1.0000)
       1 -43.3467       2 -43.3466
 
 
 
 E-fermi :   6.1090     XC(G=0): -13.3719     alpha+bet :-14.1556

 Fermi energy:         6.1090196001

 k-point     1 :       0.0000    0.0000    0.0000
  band No.  band energies     occupation 
      1      -2.3736      2.00000
      2       1.4620      2.00000
      3       4.0771      2.00000
      4       4.6980      2.00000
      5       4.6982      2.00000
      6       4.9609      2.00000
      7       4.9611      2.00000
      8       5.3950      2.00001
      9       5.8569      2.07054
     10       5.8570      2.07054
     11       6.7720     -0.00003
     12       6.7720     -0.00003
     13      12.6112      0.00000
     14      28.5118      0.00000
     15      29.0190      0.00000
     16      31.7577      0.00000
     17      33.4846      0.00000
     18      33.4847      0.00000
     19      34.3376      0.00000
     20      34.3379      0.00000
     21      34.5520      0.00000
     22      37.3794      0.00000
     23      37.3794      0.00000
     24      38.3552      0.00000
     25      40.5319      0.00000
     26      40.5319      0.00000
     27      40.7424      0.00000
     28      43.7776      0.00000
     29      43.7780      0.00000
     30      45.3996      0.00000
     31      45.3997      0.00000
     32      47.6720      0.00000
     33      55.3266      0.00000
     34      59.4849      0.00000
     35      59.4861      0.00000
     36      60.1311      0.00000
     37      60.5674      0.00000
     38      60.8920      0.00000
     39      60.8921      0.00000
     40      61.0014      0.00000

 k-point     2 :       0.0909   -0.0000    0.0000
  band No.  band energies     occupation 
      1      -2.0597      2.00000
      2       1.6971      2.00000
      3       4.1033      2.00000
      4       4.6311      2.00000
      5       4.6527      2.00000
      6       4.8581      2.00000
      7       4.8735      2.00000
      8       5.1242      2.00000
      9       5.7198      2.01895
     10       5.7595      2.03303
     11       6.7989     -0.00001
     12       7.7806     -0.00000
     13      12.6413      0.00000
     14      27.5314      0.00000
     15      28.8732      0.00000
     16      29.9620      0.00000
     17      30.8500      0.00000
     18      33.3733      0.00000
     19      33.4483      0.00000
     20      34.4156      0.00000
     21      36.6920      0.00000
     22      37.0741      0.00000
     23      37.2015      0.00000
     24      37.8359      0.00000
     25      41.1860      0.00000
     26      41.4259      0.00000
     27      41.7891      0.00000
     28      42.2604      0.00000
     29      45.3201      0.00000
     30      46.7106      0.00000
     31      47.9266      0.00000
     32      49.7848      0.00000
     33      55.0696      0.00000
     34      57.2280      0.00000
     35      57.9156      0.00000
     36      58.3149      0.00000
     37      59.3541      0.00000
     38      60.7539      0.00000
     39      62.4674      0.00000
     40      62.7424      0.00000

 k-point     3 :       0.1818    0.0000    0.0000
  band No.  band energies     occupation 
      1      -1.1659      2.00000
      2       2.2603      2.00000
      3       3.7192      2.00000
      4       3.9717      2.00000
      5       4.4532      2.00000
      6       4.9478      2.00000
      7       5.3596      2.00000
      8       5.3905      2.00000
      9       5.5277      2.00031
     10       5.5755      2.00106
     11       6.8414     -0.00000
     12       9.4668     -0.00000
     13      12.7594      0.00000
     14      23.6531      0.00000
     15      28.1500      0.00000
     16      28.7229      0.00000
     17      29.0743      0.00000
     18      29.9732      0.00000
     19      33.3006      0.00000
     20      34.4570      0.00000
     21      34.6979      0.00000
     22      35.7079      0.00000
     23      37.8948      0.00000
     24      38.5453      0.00000
     25      41.3976      0.00000
     26      42.8581      0.00000
     27      44.4332      0.00000
     28      46.4649      0.00000
     29      47.6255      0.00000
     30      50.6061      0.00000
     31      50.8135      0.00000
     32      53.2185      0.00000
     33      53.9488      0.00000
     34      54.0841      0.00000
     35      56.1575      0.00000
     36      57.6916      0.00000
     37      58.7624      0.00000
     38      60.4579      0.00000
     39      63.3292      0.00000
     40      64.0064      0.00000

 k-point     4 :       0.2727   -0.0000    0.0000
  band No.  band energies     occupation 
      1       0.1264      2.00000
      2       2.5740      2.00000
      3       3.0084      2.00000
      4       3.9312      2.00000
      5       4.2756      2.00000
      6       4.9717      2.00000
      7       5.2618      2.00000
      8       5.6099      2.00236
      9       6.0499      1.47711
     10       6.2056      0.27905
     11       6.8636     -0.00000
     12      11.3990     -0.00000
     13      13.0298      0.00000
     14      19.7174      0.00000
     15      25.4912      0.00000
     16      25.8595      0.00000
     17      26.9101      0.00000
     18      30.1041      0.00000
     19      31.4226      0.00000
     20      34.3105      0.00000
     21      34.9679      0.00000
     22      35.1871      0.00000
     23      35.4906      0.00000
     24      39.0633      0.00000
     25      45.0350      0.00000
     26      46.5034      0.00000
     27      47.8252      0.00000
     28      48.6767      0.00000
     29      49.3333      0.00000
     30      50.8989      0.00000
     31      52.1891      0.00000
     32      53.1396      0.00000
     33      55.7574      0.00000
     34      56.1257      0.00000
     35      56.8724      0.00000
     36      58.2237      0.00000
     37      60.2671      0.00000
     38      60.6024      0.00000
     39      63.2023      0.00000
     40      63.9991      0.00000

 k-point     5 :       0.3636   -0.0000    0.0000
  band No.  band energies     occupation 
      1       1.3486      2.00000
      2       2.3549      2.00000
      3       2.5484      2.00000
      4       4.0485      2.00000
      5       4.5977      2.00000
      6       4.6510      2.00000
      7       5.0405      2.00000
      8       6.7124     -0.00017
      9       6.7419     -0.00007
     10       6.8354     -0.00000
     11       6.8624     -0.00000
     12      13.1081      0.00000
     13      13.5023      0.00000
     14      16.7852      0.00000
     15      22.2388      0.00000
     16      23.9532      0.00000
     17      24.1194      0.00000
     18      29.3390      0.00000
     19      30.4787      0.00000
     20      33.5604      0.00000
     21      34.5008      0.00000
     22      35.9131      0.00000
     23      36.2014      0.00000
     24      39.3046      0.00000
     25      45.9513      0.00000
     26      47.4065      0.00000
     27      48.5088      0.00000
     28      51.4444      0.00000
     29      51.7627      0.00000
     30      52.1758      0.00000
     31      54.2271      0.00000
     32      55.2762      0.00000
     33      55.5592      0.00000
     34      57.8505      0.00000
     35      59.7196      0.00000
     36      60.0253      0.00000
     37      61.3232      0.00000
     38      62.2489      0.00000
     39      64.2190      0.00000
     40      64.6575      0.00000

 k-point     6 :       0.4545    0.0000    0.0000
  band No.  band energies     occupation 
      1       1.9103      2.00000
      2       2.1111      2.00000
      3       2.3267      2.00000
      4       4.3798      2.00000
      5       4.5364      2.00000
      6       4.8664      2.00000
      7       4.9165      2.00000
      8       6.8559     -0.00000
      9       7.1659     -0.00000
     10       7.2597     -0.00000
     11       8.2588     -0.00000
     12      11.4609     -0.00000
     13      15.5278      0.00000
     14      16.6959      0.00000
     15      19.6627      0.00000
     16      21.2432      0.00000
     17      23.1549      0.00000
     18      28.7616      0.00000
     19      30.1741      0.00000
     20      32.4993      0.00000
     21      34.2842      0.00000
     22      36.7669      0.00000
     23      38.6217      0.00000
     24      38.9533      0.00000
     25      42.6238      0.00000
     26      47.4879      0.00000
     27      49.7186      0.00000
     28      53.6550      0.00000
     29      54.2183      0.00000
     30      54.7882      0.00000
     31      55.5900      0.00000
     32      57.4504      0.00000
     33      58.3020      0.00000
     34      59.1422      0.00000
     35      59.7667      0.00000
     36      59.8374      0.00000
     37      63.0686      0.00000
     38      63.1751      0.00000
     39      63.5852      0.00000
     40      64.1337      0.00000

 k-point     7 :       0.0909    0.0909    0.0000
  band No.  band energies     occupation 
      1      -1.4537      2.00000
      2       2.1123      2.00000
      3       3.9620      2.00000
      4       4.0029      2.00000
      5       4.6595      2.00000
      6       4.6676      2.00000
      7       5.2293      2.00000
      8       5.3773      2.00000
      9       5.4728      2.00007
     10       5.7201      2.01906
     11       6.8060     -0.00001
     12       8.9953     -0.00000
     13      12.7198      0.00000
     14      25.4561      0.00000
     15      26.4977      0.00000
     16      29.4374      0.00000
     17      30.8007      0.00000
     18      32.0454      0.00000
     19      32.3052      0.00000
     20      33.2940      0.00000
     21      34.1274      0.00000
     22      38.4259      0.00000
     23      39.1209      0.00000
     24      39.2652      0.00000
     25      40.7185      0.00000
     26      40.7786      0.00000
     27      41.0699      0.00000
     28      47.1629      0.00000
     29      48.5986      0.00000
     30      48.7858      0.00000
     31      48.8079      0.00000
     32      52.8811      0.00000
     33      54.4725      0.00000
     34      54.8934      0.00000
     35      55.9733      0.00000
     36      57.5608      0.00000
     37      58.7343      0.00000
     38      61.4264      0.00000
     39      63.1459      0.00000
     40      63.6508      0.00000

 k-point     8 :       0.1818    0.0909    0.0000
  band No.  band energies     occupation 
      1      -0.3403      2.00000
      2       2.6605      2.00000
      3       3.2637      2.00000
      4       3.7387      2.00000
      5       4.3754      2.00000
      6       4.9813      2.00000
      7       5.0513      2.00000
      8       5.4925      2.00012
      9       5.8641      2.07092
     10       6.1190      0.91555
     11       6.7974     -0.00001
     12      10.7162     -0.00000
     13      12.9509      0.00000
     14      21.7422      0.00000
     15      24.2427      0.00000
     16      27.3376      0.00000
     17      29.4341      0.00000
     18      29.5768      0.00000
     19      32.4592      0.00000
     20      32.4873      0.00000
     21      33.5813      0.00000
     22      37.5728      0.00000
     23      38.4325      0.00000
     24      39.1637      0.00000
     25      42.3183      0.00000
     26      43.4344      0.00000
     27      45.3051      0.00000
     28      48.7411      0.00000
     29      51.0422      0.00000
     30      51.4065      0.00000
     31      51.6359      0.00000
     32      53.5773      0.00000
     33      54.7381      0.00000
     34      55.0328      0.00000
     35      55.9529      0.00000
     36      56.4540      0.00000
     37      59.7673      0.00000
     38      61.6645      0.00000
     39      63.7980      0.00000
     40      63.8996      0.00000

 k-point     9 :       0.2727    0.0909    0.0000
  band No.  band energies     occupation 
      1       0.9948      2.00000
      2       2.6531      2.00000
      3       2.7550      2.00000
      4       3.7921      2.00000
      5       4.4245      2.00000
      6       4.6448      2.00000
      7       5.1697      2.00000
      8       5.7470      2.02810
      9       6.5556     -0.00703
     10       6.7840     -0.00002
     11       6.9591     -0.00000
     12      12.7125      0.00000
     13      13.3695      0.00000
     14      18.0898      0.00000
     15      22.6172      0.00000
     16      23.9568      0.00000
     17      26.1799      0.00000
     18      28.3347      0.00000
     19      31.5806      0.00000
     20      32.8389      0.00000
     21      34.0124      0.00000
     22      37.2214      0.00000
     23      37.7807      0.00000
     24      40.4708      0.00000
     25      44.1361      0.00000
     26      46.9827      0.00000
     27      48.0362      0.00000
     28      48.1294      0.00000
     29      50.1070      0.00000
     30      52.1998      0.00000
     31      53.4981      0.00000
     32      54.9579      0.00000
     33      56.0600      0.00000
     34      57.0173      0.00000
     35      58.8414      0.00000
     36      61.0940      0.00000
     37      61.4755      0.00000
     38      61.5799      0.00000
     39      62.4952      0.00000
     40      64.3997      0.00000

 k-point    10 :       0.3636    0.0909    0.0000
  band No.  band energies     occupation 
      1       1.9141      2.00000
      2       2.3674      2.00000
      3       2.4604      2.00000
      4       4.1289      2.00000
      5       4.4257      2.00000
      6       4.7721      2.00000
      7       4.8956      2.00000
      8       6.5858     -0.00383
      9       6.7651     -0.00004
     10       7.0275     -0.00000
     11       8.0461     -0.00000
     12      12.7906      0.00000
     13      14.8477      0.00000
     14      16.5016      0.00000
     15      20.9885      0.00000
     16      21.3351      0.00000
     17      23.0079      0.00000
     18      27.5058      0.00000
     19      30.6562      0.00000
     20      32.3544      0.00000
     21      35.4271      0.00000
     22      37.6812      0.00000
     23      38.4226      0.00000
     24      39.9647      0.00000
     25      44.5732      0.00000
     26      46.7768      0.00000
     27      48.2573      0.00000
     28      50.3749      0.00000
     29      51.4716      0.00000
     30      53.9318      0.00000
     31      55.0934      0.00000
     32      56.9641      0.00000
     33      58.1719      0.00000
     34      59.5809      0.00000
     35      60.3223      0.00000
     36      61.1126      0.00000
     37      61.8289      0.00000
     38      62.8069      0.00000
     39      63.7579      0.00000
     40      64.3645      0.00000

 k-point    11 :       0.4545    0.0909    0.0000
  band No.  band energies     occupation 
      1       2.1558      2.00000
      2       2.2188      2.00000
      3       2.3661      2.00000
      4       4.3511      2.00000
      5       4.4879      2.00000
      6       4.7888      2.00000
      7       4.8648      2.00000
      8       6.7570     -0.00005
      9       7.0678     -0.00000
     10       7.0903     -0.00000
     11       9.2066     -0.00000
     12      11.1727     -0.00000
     13      16.3188      0.00000
     14      17.1494      0.00000
     15      19.2520      0.00000
     16      20.3596      0.00000
     17      21.7293      0.00000
     18      27.2150      0.00000
     19      30.2822      0.00000
[...]
     18      25.0011      0.00000
     19      30.1770      0.00000
     20      31.0411      0.00000
     21      33.8551      0.00000
     22      34.3464      0.00000
     23      39.2663      0.00000
     24      40.4290      0.00000
     25      45.8833      0.00000
     26      47.6052      0.00000
     27      49.6694      0.00000
     28      50.5825      0.00000
     29      52.6371      0.00000
     30      54.5622      0.00000
     31      56.8108      0.00000
     32      56.9932      0.00000
     33      58.6725      0.00000
     34      59.0752      0.00000
     35      60.7336      0.00000
     36      60.8527      0.00000
     37      61.7460      0.00000
     38      62.2634      0.00000
     39      63.6445      0.00000
     40      64.1835      0.00000

 k-point    91 :       0.4545    0.0909    0.4545
  band No.  band energies     occupation 
      1       1.8454      2.00000
      2       1.9694      2.00000
      3       3.0909      2.00000
      4       3.1592      2.00000
      5       5.1854      2.00000
      6       5.5364      2.00039
      7       6.1061      1.02441
      8       6.3798     -0.06662
      9       6.9167     -0.00000
     10       6.9506     -0.00000
     11       9.1629     -0.00000
     12       9.6049     -0.00000
     13      15.0210      0.00000
     14      15.0489      0.00000
     15      23.1472      0.00000
     16      23.8829      0.00000
     17      24.5747      0.00000
     18      25.0189      0.00000
     19      29.7456      0.00000
     20      30.0634      0.00000
     21      33.3258      0.00000
     22      33.4014      0.00000
     23      39.3113      0.00000
     24      40.4752      0.00000
     25      45.9581      0.00000
     26      47.6649      0.00000
     27      52.2800      0.00000
     28      53.7951      0.00000
     29      54.4646      0.00000
     30      54.8192      0.00000
     31      55.1617      0.00000
     32      55.4883      0.00000
     33      59.1919      0.00000
     34      59.3749      0.00000
     35      61.5538      0.00000
     36      61.6990      0.00000
     37      62.2769      0.00000
     38      62.6452      0.00000
     39      64.3269      0.00000
     40      65.0787      0.00000

 k-point    92 :       0.1818    0.1818    0.4545
  band No.  band energies     occupation 
      1       1.7263      2.00000
      2       2.0115      2.00000
      3       3.5745      2.00000
      4       3.6400      2.00000
      5       4.0382      2.00000
      6       4.0872      2.00000
      7       5.5086      2.00018
      8       5.7146      2.01748
      9       6.7252     -0.00012
     10       6.8607     -0.00000
     11       7.2911     -0.00000
     12       7.7498     -0.00000
     13      20.9103      0.00000
     14      21.2345      0.00000
     15      21.7751      0.00000
     16      22.5385      0.00000
     17      22.9994      0.00000
     18      23.9288      0.00000
     19      34.2083      0.00000
     20      35.2384      0.00000
     21      35.9635      0.00000
     22      36.9896      0.00000
     23      38.1449      0.00000
     24      38.3039      0.00000
     25      43.9259      0.00000
     26      44.2855      0.00000
     27      48.2559      0.00000
     28      49.4636      0.00000
     29      50.9321      0.00000
     30      51.6811      0.00000
     31      53.5710      0.00000
     32      54.1736      0.00000
     33      56.5465      0.00000
     34      56.6823      0.00000
     35      58.4485      0.00000
     36      58.8717      0.00000
     37      61.8347      0.00000
     38      62.5576      0.00000
     39      63.7166      0.00000
     40      63.9587      0.00000

 k-point    93 :       0.2727    0.1818    0.4545
  band No.  band energies     occupation 
      1       2.1889      2.00000
      2       2.2953      2.00000
      3       3.4092      2.00000
      4       3.5740      2.00000
      5       4.3281      2.00000
      6       4.4491      2.00000
      7       5.4101      2.00001
      8       5.6170      2.00276
      9       6.8136     -0.00001
     10       7.0459     -0.00000
     11       8.6774     -0.00000
     12       9.1521     -0.00000
     13      18.0620      0.00000
     14      18.6058      0.00000
     15      20.6883      0.00000
     16      21.3674      0.00000
     17      23.2867      0.00000
     18      24.9011      0.00000
     19      31.8881      0.00000
     20      33.4670      0.00000
     21      34.3713      0.00000
     22      35.8431      0.00000
     23      39.0860      0.00000
     24      39.5116      0.00000
     25      45.4472      0.00000
     26      45.9720      0.00000
     27      49.3314      0.00000
     28      51.2058      0.00000
     29      52.7201      0.00000
     30      54.4827      0.00000
     31      55.5974      0.00000
     32      56.5231      0.00000
     33      58.1477      0.00000
     34      58.3991      0.00000
     35      59.7775      0.00000
     36      59.9604      0.00000
     37      60.6835      0.00000
     38      61.6422      0.00000
     39      63.6655      0.00000
     40      64.1072      0.00000

 k-point    94 :       0.3636    0.1818    0.4545
  band No.  band energies     occupation 
      1       2.2684      2.00000
      2       2.3967      2.00000
      3       3.3259      2.00000
      4       3.4812      2.00000
      5       4.4591      2.00000
      6       4.7329      2.00000
      7       5.6850      2.01064
      8       5.7873      2.04535
      9       6.7913     -0.00002
     10       6.9426     -0.00000
     11      10.3136     -0.00000
     12      10.7215     -0.00000
     13      15.4911      0.00000
     14      15.8553      0.00000
     15      20.1060      0.00000
     16      20.8057      0.00000
     17      24.8642      0.00000
     18      25.9055      0.00000
     19      30.1746      0.00000
     20      31.1933      0.00000
     21      33.5527      0.00000
     22      34.9956      0.00000
     23      39.6028      0.00000
     24      39.9431      0.00000
     25      48.8910      0.00000
     26      49.6259      0.00000
     27      49.8223      0.00000
     28      51.4205      0.00000
     29      53.4567      0.00000
     30      54.1823      0.00000
     31      54.6022      0.00000
     32      55.9151      0.00000
     33      58.1201      0.00000
     34      59.0001      0.00000
     35      60.1134      0.00000
     36      61.3947      0.00000
     37      62.5705      0.00000
     38      62.8093      0.00000
     39      63.5680      0.00000
     40      63.8861      0.00000

 k-point    95 :       0.2727    0.2727    0.4545
  band No.  band energies     occupation 
      1       2.6418      2.00000
      2       2.6789      2.00000
      3       3.5071      2.00000
      4       3.7016      2.00000
      5       4.0507      2.00000
      6       4.2276      2.00000
      7       5.3031      2.00000
      8       5.4821      2.00009
      9       6.8044     -0.00001
     10       6.9686     -0.00000
     11      10.6896     -0.00000
     12      11.1828     -0.00000
     13      16.6599      0.00000
     14      17.0412      0.00000
     15      18.2395      0.00000
     16      18.5970      0.00000
     17      24.9882      0.00000
     18      26.5038      0.00000
     19      30.3383      0.00000
     20      31.6161      0.00000
     21      33.2629      0.00000
     22      34.2608      0.00000
     23      42.0492      0.00000
     24      42.4337      0.00000
     25      45.7418      0.00000
     26      45.8627      0.00000
     27      51.9432      0.00000
     28      53.0586      0.00000
     29      53.6510      0.00000
     30      54.2103      0.00000
     31      55.8242      0.00000
     32      56.0530      0.00000
     33      57.2709      0.00000
     34      57.3798      0.00000
     35      58.8216      0.00000
     36      59.6848      0.00000
     37      62.5953      0.00000
     38      62.9234      0.00000
     39      63.8118      0.00000
     40      63.8286      0.00000

 k-point    96 :       0.3636    0.2727    0.4545
  band No.  band energies     occupation 
      1       2.8329      2.00000
      2       2.9432      2.00000
      3       3.4645      2.00000
      4       3.5541      2.00000
      5       4.0377      2.00000
      6       4.1547      2.00000
      7       5.3470      2.00000
      8       5.4838      2.00009
      9       6.7858     -0.00002
     10       6.8450     -0.00000
     11      12.4587      0.00000
     12      12.5787      0.00000
     13      15.0085      0.00000
     14      15.2988      0.00000
     15      17.5954      0.00000
     16      18.0373      0.00000
     17      26.6930      0.00000
     18      27.2561      0.00000
     19      29.3499      0.00000
     20      29.7806      0.00000
     21      32.9462      0.00000
     22      33.7341      0.00000
     23      43.0832      0.00000
     24      43.6909      0.00000
     25      47.7211      0.00000
     26      48.1313      0.00000
     27      49.8817      0.00000
     28      50.2671      0.00000
     29      53.4758      0.00000
     30      54.4230      0.00000
     31      55.8920      0.00000
     32      56.8147      0.00000
     33      57.2024      0.00000
     34      57.7167      0.00000
     35      59.2936      0.00000
     36      60.1420      0.00000
     37      61.2870      0.00000
     38      61.6728      0.00000
     39      65.3187      0.00000
     40      65.3318      0.00000


--------------------------------------------------------------------------------------------------------


 soft charge-density along one line, spin component           1
         0         1         2         3         4         5         6         7         8         9
x     7.7562    0.0000    0.1200   -0.2079   -0.0622   -0.1077    0.0137   -0.0000    0.0020   -0.0034
x     0.0000    0.0000
y     7.7562    0.0000    0.1200    0.2079   -0.0622    0.1077    0.0137    0.0000    0.0020    0.0034
y     0.0000    0.0000
z     7.7562    0.0000    0.0000    0.0000    0.6357    0.0000    0.0000    0.0000   -0.1825   -0.0000
z     0.0000    0.0000    0.0099   -0.0000    0.0000    0.0000    0.0099   -0.0000    0.0000    0.0000
 total charge-density along one line
x    16.0000    0.0000    1.5361   -2.6606    0.3382    0.5858    0.0542   -0.0000   -0.0001    0.0002
x     0.0007    0.0012   -0.0012    0.0000    0.0002   -0.0003   -0.0001   -0.0001    0.0002   -0.0000
x    -0.0001    0.0000
y    16.0000    0.0000    1.5361    2.6606    0.3382   -0.5858    0.0542    0.0000   -0.0001   -0.0002
y     0.0007   -0.0012   -0.0012   -0.0000    0.0002    0.0003   -0.0001    0.0001    0.0002    0.0000
y    -0.0001   -0.0000
z    16.0000    0.0000   -0.0000    0.0000    6.4103   -0.0000   -0.0000    0.0000    1.5702   -0.0000
z    -0.0000   -0.0000    0.0875   -0.0000   -0.0000   -0.0000   -0.0034   -0.0000   -0.0000   -0.0000
z     0.0049   -0.0000    0.0000   -0.0000   -0.0021    0.0000    0.0000   -0.0000    0.0010    0.0000
z     0.0000   -0.0000   -0.0006    0.0000   -0.0000   -0.0000    0.0005   -0.0000
 
 pseudopotential strength for first ion, spin component:           1
 -4.897  -0.000  -0.000  -0.000  -0.000  -5.448  -0.000  -0.000
 -0.000  -4.892  -0.000  -0.000   0.000  -0.000  -5.443  -0.000
 -0.000  -0.000  -4.900  -0.000  -0.000  -0.000  -0.000  -5.451
 -0.000  -0.000  -0.000  -4.892  -0.000  -0.000  -0.000  -0.000
 -0.000   0.000  -0.000  -0.000  -4.897  -0.000   0.000  -0.000
 -5.448  -0.000  -0.000  -0.000  -0.000  -5.957  -0.000  -0.000
 -0.000  -5.443  -0.000  -0.000   0.000  -0.000  -5.951  -0.000
 -0.000  -0.000  -5.451  -0.000  -0.000  -0.000  -0.000  -5.959
 -0.000  -0.000  -0.000  -5.443  -0.000  -0.000  -0.000  -0.000
 -0.000   0.000  -0.000  -0.000  -5.448  -0.000   0.000  -0.000
  0.000   0.000   0.001   0.000  -0.000   0.000   0.000   0.001
  0.000   0.000   0.002   0.000  -0.000   0.000   0.000   0.002
 -0.000  -0.000   0.000  -0.000  -0.001  -0.000  -0.000   0.000
 -0.000  -0.000  -0.000  -0.000   0.000  -0.000  -0.000  -0.000
 -0.001  -0.000   0.000  -0.000  -0.000  -0.001  -0.000   0.000
 -0.000  -0.000   0.000  -0.000  -0.001  -0.000  -0.000   0.000
 -0.000  -0.000  -0.000  -0.000   0.000  -0.000  -0.000  -0.000
 -0.001  -0.000   0.000  -0.000  -0.000  -0.001  -0.000   0.000
 total augmentation occupancy for first ion, spin component:           1
  1.529  -0.000   0.000   0.000  -0.000  -0.739   0.000  -0.000   0.000   0.000   0.000  -0.000   0.000  -0.000   0.028  -0.000
  0.000   2.040   0.000  -0.000   0.000   0.000  -1.006   0.000   0.000   0.000  -0.000   0.000   0.000   0.000   0.000   0.000
  0.000  -0.000   1.276   0.000  -0.000  -0.000  -0.000  -0.520   0.000   0.000   0.047  -0.011   0.000   0.000   0.000   0.000
  0.000  -0.000   0.000   2.040  -0.000   0.000   0.000   0.000  -1.006   0.000   0.000   0.000   0.000   0.000  -0.000   0.000
 -0.000   0.000  -0.000   0.000   1.529   0.000  -0.000   0.000   0.000  -0.739   0.000  -0.000   0.028  -0.000  -0.000  -0.001
 -0.739   0.000  -0.000   0.000   0.000   1.310   0.000   0.000  -0.000  -0.000  -0.000   0.000  -0.000   0.000  -0.041   0.000
  0.000  -1.006   0.000   0.000   0.000   0.000   1.305   0.000  -0.000   0.000  -0.000   0.000  -0.000   0.000   0.000   0.000
 -0.000   0.000  -0.520  -0.000   0.000   0.000   0.000   1.106  -0.000  -0.000  -0.132   0.013   0.000   0.000  -0.000  -0.000
  0.000   0.000  -0.000  -1.006   0.000   0.000  -0.000  -0.000   1.305   0.000   0.000  -0.000   0.000  -0.000   0.000   0.000
  0.000   0.000   0.000  -0.000  -0.739  -0.000   0.000  -0.000  -0.000   1.310  -0.000   0.000  -0.041  -0.000   0.000   0.003
  0.000  -0.000   0.047   0.000   0.000  -0.000   0.000  -0.132  -0.000  -0.000   2.450  -0.271  -0.000   0.000   0.000   0.000
 -0.000   0.000  -0.011  -0.000  -0.000   0.000   0.000   0.013   0.000   0.000  -0.271   0.034  -0.000   0.000  -0.000   0.000
  0.000   0.000   0.000  -0.000   0.028  -0.000   0.000   0.000   0.000  -0.041  -0.000  -0.000   0.315  -0.000  -0.000  -0.026
  0.000   0.000   0.000  -0.000   0.000   0.000   0.000   0.000  -0.000  -0.000   0.000   0.000   0.000   0.288  -0.000  -0.000
  0.028  -0.000   0.000   0.000  -0.000  -0.041   0.000  -0.000  -0.000   0.000   0.000  -0.000  -0.000  -0.000   0.315   0.000
 -0.000   0.000   0.000   0.000  -0.001   0.000  -0.000  -0.000   0.000   0.003  -0.000   0.000  -0.026   0.000   0.000   0.002
  0.000   0.000   0.000   0.000  -0.000  -0.000  -0.000   0.000   0.000  -0.000   0.000   0.000  -0.000  -0.026   0.000   0.000
 -0.001  -0.000   0.000   0.000   0.000   0.003   0.000   0.000   0.000  -0.000   0.000   0.000   0.000   0.000  -0.026  -0.000


------------------------ aborting loop because EDIFF is reached ----------------------------------------


    CHARGE:  cpu time    0.0196: real time    0.0196
    FORLOC:  cpu time    0.0002: real time    0.0002
    FORNL :  cpu time    0.1030: real time    0.1030
    STRESS:  cpu time    0.1570: real time    0.1571
    FORCOR:  cpu time    0.0035: real time    0.0035
    FORHAR:  cpu time    0.0007: real time    0.0007
    MIXING:  cpu time    0.0002: real time    0.0002

  FORCE on cell =-STRESS in cart. coord.  units (eV):
  Direction    XX          YY          ZZ          XY          YZ          ZX
  --------------------------------------------------------------------------------------
  Alpha Z   126.23416   126.23416   126.23416
  Ewald    -382.94766  -382.94766  -431.45482     0.00000     0.00000    -0.00000
  Hartree    67.83580    67.83581    48.46069    -0.00000    -0.00000    -0.00000
  E(xc)     -77.91480   -77.91495   -77.66351     0.00039    -0.00000    -0.00000
  Local      96.22639    96.22664   162.14242    -0.00093     0.00000     0.00000
  n-local   -54.27071   -53.29716   -55.91265    -3.50763     1.38096     0.87841
  augment    76.02947    76.02850    76.23501     0.00143     0.00000     0.00000
  Kinetic   151.05673   144.74066   145.96210     1.48686    -0.90737     0.24431
  Fock        0.00000     0.00000     0.00000     0.00000     0.00000     0.00000
  -------------------------------------------------------------------------------------
  Total      -0.42231    -0.42231    -5.99660     0.00000     0.00000     0.00000
  in kB     -30.89564   -30.89564  -438.70026     0.00000     0.00000     0.00000
  external pressure =     -166.83 kB  Pullay stress =        0.00 kB


 VOLUME and BASIS-vectors are now :
 -----------------------------------------------------------------------------
  energy-cutoff  :      280.00
  volume of cell :       21.90
      direct lattice vectors                 reciprocal lattice vectors
     2.423200000  0.000000000  0.000000000     0.412677451  0.238259438  0.000000000
    -1.211600000  2.098552758  0.000000000     0.000000000  0.476518875  0.000000000
     0.000000000  0.000000000  4.306640000     0.000000000  0.000000000  0.232199580

  length of vectors
     2.423200000  2.423200000  4.306640000     0.476518875  0.476518875  0.232199580


 FORCES acting on ions
    electron-ion (+dipol)            ewald-force                    non-local-force                 convergence-correction
 -----------------------------------------------------------------------------------------------
   0.157E-05 -.172E-05 0.102E-13   0.513E-12 -.296E-12 -.245E-13   -.193E-16 -.125E-18 0.548E-19   -.220E-08 0.110E-08 -.188E-13
   0.107E-04 0.576E-05 0.266E-12   -.513E-12 0.297E-12 0.245E-13   0.103E-16 0.179E-17 0.980E-19   0.219E-08 -.109E-08 0.332E-13
 -----------------------------------------------------------------------------------------------
   0.122E-04 0.404E-05 0.276E-12   0.418E-15 0.142E-14 -.750E-17   -.894E-17 0.167E-17 0.153E-18   -.197E-10 0.132E-10 0.144E-13
 
 
 POSITION                                       TOTAL-FORCE (eV/Angst)
 -----------------------------------------------------------------------------------
      0.00000      0.00000      0.00000        -0.000000      0.000000     -0.000000
      0.00000      1.39904      2.15332         0.000000     -0.000000      0.000000
 -----------------------------------------------------------------------------------
    total drift:                                0.000012      0.000004      0.000000


--------------------------------------------------------------------------------------------------------



  FREE ENERGIE OF THE ION-ELECTRON SYSTEM (eV)
  ---------------------------------------------------
  free  energy   TOTEN  =       -15.99879489 eV

  energy  without entropy=      -16.00267854  energy(sigma->0) =      -16.00008944
 


--------------------------------------------------------------------------------------------------------


    POTLOK:  cpu time    0.0056: real time    0.0056


--------------------------------------------------------------------------------------------------------


 writing wavefunctions
     LOOP+:  cpu time   10.0405: real time   10.0623
    4ORBIT:  cpu time    0.0000: real time    0.0000

 total amount of memory used by VASP MPI-rank0    51577. kBytes
=======================================================================

   base      :      30000. kBytes
   nonl-proj :       3408. kBytes
   grid      :        812. kBytes
   one-center:         31. kBytes
   wavefun   :      17326. kBytes
 
  
  
 General timing and accounting informations for this job:
 ========================================================
  
                  Total CPU time used (sec):       10.224
                            User time (sec):       10.176
                          System time (sec):        0.048
                         Elapsed time (sec):       10.235
  
                   Maximum memory used (kb):       56756.
                   Average memory used (kb):          N/A
  
                          Minor page faults:         7735
                          Major page faults:            0
                 Voluntary context switches:           26
