 vasp.6.2.0 18Jan21 (build Mar 17 2021 09:06:54) complex                        
  
 POSCAR found type information on POSCAR Fe
 POSCAR found :  1 types and       2 ions
 LDA part: xc-table for Pade appr. of Perdew
 POSCAR, INCAR and KPOINTS ok, starting setup
 FFT: planning ...
 WAVECAR not read
 WARNING: chargedensity file is incomplete
 entering main loop
       N       E                     dE             d eps       ncg     rms          rms(c)
DAV:   1     0.608974164969E+02    0.60897E+02   -0.27785E+03  9136   0.315E+02
DAV:   2    -0.145979308952E+02   -0.75495E+02   -0.64000E+02  7984   0.939E+01
DAV:   3    -0.191830609223E+02   -0.45851E+01   -0.43102E+01  9368   0.242E+01
DAV:   4    -0.192081104517E+02   -0.25050E-01   -0.25027E-01  9200   0.187E+00
DAV:   5    -0.192081549272E+02   -0.44475E-04   -0.44473E-04  9224   0.742E-02    0.160E+01
DAV:   6    -0.163226637672E+02    0.28855E+01   -0.21461E+00 11112   0.265E+01    0.354E+00
DAV:   7    -0.160338506796E+02    0.28881E+00   -0.18351E-01 10144   0.679E+00    0.993E-01
DAV:   8    -0.160094197893E+02    0.24431E-01   -0.48762E-03 10192   0.463E-01    0.460E-01
DAV:   9    -0.159987728851E+02    0.10647E-01   -0.91801E-04 11344   0.174E-01    0.646E-02
DAV:  10    -0.159987996360E+02   -0.26751E-04   -0.41348E-05  9208   0.249E-02    0.292E-02
DAV:  11    -0.159987951854E+02    0.44505E-05   -0.56099E-07  9288   0.585E-03    0.178E-03
DAV:  12    -0.159987948884E+02    0.29702E-06   -0.38785E-08  5928   0.103E-03
   1 F= -.15998795E+02 E0= -.16000089E+02  d E =0.388365E-02
 writing wavefunctions
