<?xml version="1.0" encoding="ISO-8859-1"?>
<modeling>
 <generator>
  <i name="program" type="string">vasp </i>
  <i name="version" type="string">6.2.0  </i>
  <i name="subversion" type="string">18Jan21 (build Mar 17 2021 09:06:54) complex                          serial </i>
  <i name="platform" type="string">LinuxIFC </i>
  <i name="date" type="string">2021 09 09 </i>
  <i name="time" type="string">12:10:43 </i>
 </generator>
 <incar>
  <i type="string" name="PREC">normal</i>
  <i type="int" name="ICHARG">     1</i>
  <i type="int" name="IBRION">     1</i>
  <i name="EDIFF">      0.00000100</i>
  <i type="int" name="NSW">     0</i>
  <i type="int" name="ISIF">     2</i>
  <i name="ENCUT">    280.00000000</i>
  <i type="int" name="NBANDS">    40</i>
  <i type="int" name="ISMEAR">     1</i>
  <i name="SIGMA">      0.20000000</i>
  <i type="logical" name="LCHARG"> T  </i>
  <i type="int" name="KPAR">     1</i>
  <i type="int" name="NCORE">     1</i>
  <i type="string" name="GGA">PE</i>
 </incar>
 <primitive_cell>
  <structure name="primitive_cell" >
   <crystal>
    <varray name="basis" >
     <v>       2.42320000       0.00000000       0.00000000 </v>
     <v>      -1.21160000       2.09855276       0.00000000 </v>
     <v>       0.00000000       0.00000000       4.30664000 </v>
    </varray>
    <i name="volume">     21.90018191 </i>
    <varray name="rec_basis" >
     <v>       0.41267745       0.23825944       0.00000000 </v>
     <v>       0.00000000       0.47651888       0.00000000 </v>
     <v>       0.00000000       0.00000000       0.23219958 </v>
    </varray>
   </crystal>
   <varray name="positions" >
    <v>       0.00000000       0.00000000       0.00000000 </v>
    <v>       0.33333333       0.66666667       0.50000000 </v>
   </varray>
  </structure>
  <varray name="primitive_index" >
   <v type="int" >        1 </v>
   <v type="int" >        2 </v>
  </varray>
 </primitive_cell>
 <kpoints>
  <generation param="Monkhorst-Pack">
   <v type="int" name="divisions">      11       11       11 </v>
   <v name="usershift">      0.00000000       0.00000000       0.00000000 </v>
   <v name="genvec1">      0.09090909       0.00000000       0.00000000 </v>
   <v name="genvec2">      0.00000000       0.09090909       0.00000000 </v>
   <v name="genvec3">      0.00000000       0.00000000       0.09090909 </v>
   <v name="shift">      0.00000000       0.00000000       0.00000000 </v>
  </generation>
  <varray name="kpointlist" >
   <v>       0.00000000       0.00000000       0.00000000 </v>
   <v>       0.09090909      -0.00000000       0.00000000 </v>
   <v>       0.18181818       0.00000000       0.00000000 </v>
   <v>       0.27272727      -0.00000000       0.00000000 </v>
   <v>       0.36363636      -0.00000000       0.00000000 </v>
   <v>       0.45454545       0.00000000       0.00000000 </v>
   <v>       0.09090909       0.09090909       0.00000000 </v>
   <v>       0.18181818       0.09090909       0.00000000 </v>
   <v>       0.27272727       0.09090909       0.00000000 </v>
   <v>       0.36363636       0.09090909       0.00000000 </v>
   <v>       0.45454545       0.09090909       0.00000000 </v>
   <v>       0.18181818       0.18181818       0.00000000 </v>
   <v>       0.27272727       0.18181818       0.00000000 </v>
   <v>       0.36363636       0.18181818       0.00000000 </v>
   <v>       0.27272727       0.27272727       0.00000000 </v>
   <v>       0.36363636       0.27272727       0.00000000 </v>
   <v>       0.00000000       0.00000000       0.09090909 </v>
   <v>       0.09090909      -0.00000000       0.09090909 </v>
   <v>       0.18181818       0.00000000       0.09090909 </v>
   <v>       0.27272727      -0.00000000       0.09090909 </v>
   <v>       0.36363636      -0.00000000       0.09090909 </v>
   <v>       0.45454545       0.00000000       0.09090909 </v>
   <v>       0.09090909       0.09090909       0.09090909 </v>
   <v>       0.18181818       0.09090909       0.09090909 </v>
   <v>       0.27272727       0.09090909       0.09090909 </v>
   <v>       0.36363636       0.09090909       0.09090909 </v>
   <v>       0.45454545       0.09090909       0.09090909 </v>
   <v>       0.18181818       0.18181818       0.09090909 </v>
   <v>       0.27272727       0.18181818       0.09090909 </v>
   <v>       0.36363636       0.18181818       0.09090909 </v>
   <v>       0.27272727       0.27272727       0.09090909 </v>
   <v>       0.36363636       0.27272727       0.09090909 </v>
   <v>       0.00000000       0.00000000       0.18181818 </v>
   <v>       0.09090909      -0.00000000       0.18181818 </v>
   <v>       0.18181818       0.00000000       0.18181818 </v>
   <v>       0.27272727      -0.00000000       0.18181818 </v>
   <v>       0.36363636      -0.00000000       0.18181818 </v>
   <v>       0.45454545       0.00000000       0.18181818 </v>
   <v>       0.09090909       0.09090909       0.18181818 </v>
   <v>       0.18181818       0.09090909       0.18181818 </v>
   <v>       0.27272727       0.09090909       0.18181818 </v>
   <v>       0.36363636       0.09090909       0.18181818 </v>
   <v>       0.45454545       0.09090909       0.18181818 </v>
   <v>       0.18181818       0.18181818       0.18181818 </v>
   <v>       0.27272727       0.18181818       0.18181818 </v>
   <v>       0.36363636       0.18181818       0.18181818 </v>
   <v>       0.27272727       0.27272727       0.18181818 </v>
   <v>       0.36363636       0.27272727       0.18181818 </v>
   <v>       0.00000000       0.00000000       0.27272727 </v>
   <v>       0.09090909      -0.00000000       0.27272727 </v>
   <v>       0.18181818       0.00000000       0.27272727 </v>
   <v>       0.27272727      -0.00000000       0.27272727 </v>
   <v>       0.36363636      -0.00000000       0.27272727 </v>
   <v>       0.45454545       0.00000000       0.27272727 </v>
   <v>       0.09090909       0.09090909       0.27272727 </v>
   <v>       0.18181818       0.09090909       0.27272727 </v>
   <v>       0.27272727       0.09090909       0.27272727 </v>
   <v>       0.36363636       0.09090909       0.27272727 </v>
   <v>       0.45454545       0.09090909       0.27272727 </v>
   <v>       0.18181818       0.18181818       0.27272727 </v>
   <v>       0.27272727       0.18181818       0.27272727 </v>
   <v>       0.36363636       0.18181818       0.27272727 </v>
   <v>       0.27272727       0.27272727       0.27272727 </v>
   <v>       0.36363636       0.27272727       0.27272727 </v>
   <v>       0.00000000       0.00000000       0.36363636 </v>
   <v>       0.09090909      -0.00000000       0.36363636 </v>
   <v>       0.18181818       0.00000000       0.36363636 </v>
   <v>       0.27272727      -0.00000000       0.36363636 </v>
   <v>       0.36363636      -0.00000000       0.36363636 </v>
   <v>       0.45454545       0.00000000       0.36363636 </v>
   <v>       0.09090909       0.09090909       0.36363636 </v>
   <v>       0.18181818       0.09090909       0.36363636 </v>
   <v>       0.27272727       0.09090909       0.36363636 </v>
   <v>       0.36363636       0.09090909       0.36363636 </v>
   <v>       0.45454545       0.09090909       0.36363636 </v>
   <v>       0.18181818       0.18181818       0.36363636 </v>
   <v>       0.27272727       0.18181818       0.36363636 </v>
   <v>       0.36363636       0.18181818       0.36363636 </v>
   <v>       0.27272727       0.27272727       0.36363636 </v>
   <v>       0.36363636       0.27272727       0.36363636 </v>
   <v>       0.00000000       0.00000000       0.45454545 </v>
   <v>       0.09090909      -0.00000000       0.45454545 </v>
   <v>       0.18181818       0.00000000       0.45454545 </v>
   <v>       0.27272727      -0.00000000       0.45454545 </v>
   <v>       0.36363636      -0.00000000       0.45454545 </v>
   <v>       0.45454545       0.00000000       0.45454545 </v>
   <v>       0.09090909       0.09090909       0.45454545 </v>
   <v>       0.18181818       0.09090909       0.45454545 </v>
   <v>       0.27272727       0.09090909       0.45454545 </v>
   <v>       0.36363636       0.09090909       0.45454545 </v>
   <v>       0.45454545       0.09090909       0.45454545 </v>
   <v>       0.18181818       0.18181818       0.45454545 </v>
   <v>       0.27272727       0.18181818       0.45454545 </v>
   <v>       0.36363636       0.18181818       0.45454545 </v>
   <v>       0.27272727       0.27272727       0.45454545 </v>
   <v>       0.36363636       0.27272727       0.45454545 </v>
  </varray>
  <varray name="weights" >
   <v>       0.00075131 </v>
   <v>       0.00450789 </v>
   <v>       0.00450789 </v>
   <v>       0.00450789 </v>
   <v>       0.00450789 </v>
   <v>       0.00450789 </v>
   <v>       0.00450789 </v>
   <v>       0.00901578 </v>
   <v>       0.00901578 </v>
   <v>       0.00901578 </v>
   <v>       0.00450789 </v>
   <v>       0.00450789 </v>
   <v>       0.00901578 </v>
   <v>       0.00901578 </v>
   <v>       0.00450789 </v>
   <v>       0.00450789 </v>
   <v>       0.00150263 </v>
   <v>       0.00901578 </v>
   <v>       0.00901578 </v>
   <v>       0.00901578 </v>
   <v>       0.00901578 </v>
   <v>       0.00901578 </v>
   <v>       0.00901578 </v>
   <v>       0.01803156 </v>
   <v>       0.01803156 </v>
   <v>       0.01803156 </v>
   <v>       0.00901578 </v>
   <v>       0.00901578 </v>
   <v>       0.01803156 </v>
   <v>       0.01803156 </v>
   <v>       0.00901578 </v>
   <v>       0.00901578 </v>
   <v>       0.00150263 </v>
   <v>       0.00901578 </v>
   <v>       0.00901578 </v>
   <v>       0.00901578 </v>
   <v>       0.00901578 </v>
   <v>       0.00901578 </v>
   <v>       0.00901578 </v>
   <v>       0.01803156 </v>
   <v>       0.01803156 </v>
   <v>       0.01803156 </v>
   <v>       0.00901578 </v>
   <v>       0.00901578 </v>
   <v>       0.01803156 </v>
   <v>       0.01803156 </v>
   <v>       0.00901578 </v>
   <v>       0.00901578 </v>
   <v>       0.00150263 </v>
   <v>       0.00901578 </v>
   <v>       0.00901578 </v>
   <v>       0.00901578 </v>
   <v>       0.00901578 </v>
   <v>       0.00901578 </v>
   <v>       0.00901578 </v>
   <v>       0.01803156 </v>
   <v>       0.01803156 </v>
   <v>       0.01803156 </v>
   <v>       0.00901578 </v>
   <v>       0.00901578 </v>
   <v>       0.01803156 </v>
   <v>       0.01803156 </v>
   <v>       0.00901578 </v>
   <v>       0.00901578 </v>
   <v>       0.00150263 </v>
   <v>       0.00901578 </v>
   <v>       0.00901578 </v>
   <v>       0.00901578 </v>
   <v>       0.00901578 </v>
   <v>       0.00901578 </v>
   <v>       0.00901578 </v>
   <v>       0.01803156 </v>
   <v>       0.01803156 </v>
   <v>       0.01803156 </v>
   <v>       0.00901578 </v>
   <v>       0.00901578 </v>
   <v>       0.01803156 </v>
   <v>       0.01803156 </v>
   <v>       0.00901578 </v>
   <v>       0.00901578 </v>
   <v>       0.00150263 </v>
   <v>       0.00901578 </v>
   <v>       0.00901578 </v>
   <v>       0.00901578 </v>
   <v>       0.00901578 </v>
   <v>       0.00901578 </v>
   <v>       0.00901578 </v>
   <v>       0.01803156 </v>
   <v>       0.01803156 </v>
   <v>       0.01803156 </v>
   <v>       0.00901578 </v>
   <v>       0.00901578 </v>
   <v>       0.01803156 </v>
   <v>       0.01803156 </v>
   <v>       0.00901578 </v>
   <v>       0.00901578 </v>
  </varray>
 </kpoints>
 <parameters>
  <separator name="general" >
   <i type="string" name="SYSTEM">unknown system</i>
   <i type="logical" name="LCOMPAT"> F  </i>
  </separator>
  <separator name="electronic" >
   <i type="string" name="PREC">normal</i>
   <i name="ENMAX">    280.00000000</i>
   <i name="ENAUG">    511.36800000</i>
   <i name="EDIFF">      0.00000100</i>
   <i type="int" name="IALGO">    38</i>
   <i type="int" name="IWAVPR">     0</i>
   <i type="int" name="NBANDS">    40</i>
   <i type="int" name="NBANDSLOW">    -1</i>
   <i type="int" name="NBANDSHIGH">    -1</i>
   <i name="NELECT">     16.00000000</i>
   <i type="int" name="TURBO">     0</i>
   <i type="int" name="IRESTART">     0</i>
   <i type="int" name="NREBOOT">     0</i>
   <i type="int" name="NMIN">     0</i>
   <i name="EREF">      0.00000000</i>
   <separator name="electronic smearing" >
    <i type="int" name="ISMEAR">     1</i>
    <i name="SIGMA">      0.20000000</i>
    <i name="KSPACING">      0.50000000</i>
    <i type="logical" name="KGAMMA"> T  </i>
    <i type="logical" name="KBLOWUP"> T  </i>
   </separator>
   <separator name="electronic projectors" >
    <i type="logical" name="LREAL"> F  </i>
    <v name="ROPT">      0.00000000</v>
    <i type="int" name="LMAXPAW">  -100</i>
    <i type="int" name="LMAXMIX">     2</i>
    <i type="logical" name="NLSPLINE"> F  </i>
   </separator>
   <separator name="electronic startup" >
    <i type="int" name="ISTART">     0</i>
    <i type="int" name="ICHARG">     1</i>
    <i type="int" name="INIWAV">     1</i>
   </separator>
   <separator name="electronic spin" >
    <i type="int" name="ISPIN">     1</i>
    <i type="logical" name="LNONCOLLINEAR"> F  </i>
    <v name="MAGMOM">      1.00000000      1.00000000</v>
    <i name="NUPDOWN">     -1.00000000</i>
    <i type="logical" name="LSORBIT"> F  </i>
    <v name="SAXIS">      0.00000000      0.00000000      1.00000000</v>
    <i type="logical" name="LSPIRAL"> F  </i>
    <v name="QSPIRAL">      0.00000000      0.00000000      0.00000000</v>
    <i type="logical" name="LZEROZ"> F  </i>
   </separator>
   <separator name="electronic exchange-correlation" >
    <i type="logical" name="LASPH"> F  </i>
    <i type="logical" name="LMETAGGA"> F  </i>
   </separator>
   <separator name="electronic convergence" >
    <i type="int" name="NELM">    60</i>
    <i type="int" name="NELMDL">    -5</i>
    <i type="int" name="NELMIN">     2</i>
    <i name="ENINI">    280.00000000</i>
    <separator name="electronic convergence detail" >
     <i type="logical" name="LDIAG"> T  </i>
     <i type="logical" name="LSUBROT"> F  </i>
     <i name="WEIMIN">      0.00000000</i>
     <i name="EBREAK">      0.00000001</i>
     <i name="DEPER">      0.30000000</i>
     <i type="int" name="NRMM">     4</i>
     <i name="TIME">      0.40000000</i>
    </separator>
   </separator>
   <separator name="electronic mixer" >
    <i name="AMIX">      0.40000000</i>
    <i name="BMIX">      1.00000000</i>
    <i name="AMIN">      0.10000000</i>
    <i name="AMIX_MAG">      1.60000000</i>
    <i name="BMIX_MAG">      1.00000000</i>
    <separator name="electronic mixer details" >
     <i type="int" name="IMIX">     4</i>
     <i type="logical" name="MIXFIRST"> F  </i>
     <i type="int" name="MAXMIX">   -45</i>
     <i name="WC">    100.00000000</i>
     <i type="int" name="INIMIX">     1</i>
     <i type="int" name="MIXPRE">     1</i>
     <i type="int" name="MREMOVE">     5</i>
    </separator>
   </separator>
   <separator name="electronic dipolcorrection" >
    <i type="logical" name="LDIPOL"> F  </i>
    <i type="logical" name="LMONO"> F  </i>
    <i type="int" name="IDIPOL">     0</i>
    <i name="EPSILON">      1.00000000</i>
    <v name="DIPOL">   -100.00000000   -100.00000000   -100.00000000</v>
    <i name="EFIELD">      0.00000000</i>
   </separator>
  </separator>
  <separator name="grids" >
   <i type="int" name="NGX">    10</i>
   <i type="int" name="NGY">    10</i>
   <i type="int" name="NGZ">    18</i>
   <i type="int" name="NGXF">    20</i>
   <i type="int" name="NGYF">    20</i>
   <i type="int" name="NGZF">    36</i>
   <i type="logical" name="ADDGRID"> F  </i>
  </separator>
  <separator name="ionic" >
   <i type="int" name="NSW">     0</i>
   <i type="int" name="IBRION">    -1</i>
   <i type="int" name="MDALGO">     0</i>
   <i type="int" name="ISIF">     2</i>
   <i name="PSTRESS">      0.00000000</i>
   <i name="EDIFFG">      0.00001000</i>
   <i type="int" name="NFREE">     0</i>
   <i name="POTIM">      0.50000000</i>
   <i name="SMASS">     -3.00000000</i>
   <i name="SCALEE">      1.00000000</i>
  </separator>
  <separator name="ionic md" >
   <i name="TEBEG">      0.00010000</i>
   <i name="TEEND">      0.00010000</i>
   <i type="int" name="NBLOCK">     1</i>
   <i type="int" name="KBLOCK">     1</i>
   <i type="int" name="NPACO">   256</i>
   <i name="APACO">     16.00000000</i>
  </separator>
  <separator name="symmetry" >
   <i type="int" name="ISYM">     2</i>
   <i name="SYMPREC">      0.00001000</i>
  </separator>
  <separator name="dos" >
   <i type="int" name="LORBIT">     0</i>
   <v name="RWIGS">     -1.00000000</v>
   <i type="int" name="NEDOS">   301</i>
   <i name="EMIN">     10.00000000</i>
   <i name="EMAX">    -10.00000000</i>
   <i name="EFERMI">      0.00000000</i>
  </separator>
  <separator name="writing" >
   <i type="int" name="NWRITE">     2</i>
   <i type="logical" name="LWAVE"> T  </i>
   <i type="logical" name="LDOWNSAMPLE"> F  </i>
   <i type="logical" name="LCHARG"> T  </i>
   <i type="logical" name="LPARD"> F  </i>
   <i type="logical" name="LVTOT"> F  </i>
   <i type="logical" name="LVHAR"> F  </i>
   <i type="logical" name="LELF"> F  </i>
   <i type="logical" name="LOPTICS"> F  </i>
   <v name="STM">      0.00000000      0.00000000      0.00000000      0.00000000      0.00000000      0.00000000      0.00000000</v>
  </separator>
  <separator name="performance" >
   <i type="int" name="NPAR">     1</i>
   <i type="int" name="NSIM">     4</i>
   <i type="int" name="NBLK">    -1</i>
   <i type="logical" name="LPLANE"> T  </i>
   <i type="logical" name="LSCALAPACK"> F  </i>
   <i type="logical" name="LSCAAWARE"> F  </i>
   <i type="logical" name="LSCALU"> F  </i>
   <i type="logical" name="LASYNC"> F  </i>
   <i type="logical" name="LORBITALREAL"> F  </i>
  </separator>
  <separator name="miscellaneous" >
   <i type="int" name="IDIOT">     3</i>
   <i type="int" name="PHON_NSTRUCT">    -1</i>
   <i type="logical" name="LMUSIC"> F  </i>
   <v name="POMASS">     55.84700000</v>
   <v name="DARWINR">      0.00000000</v>
   <v name="DARWINV">      1.00000000</v>
   <i type="logical" name="LCORR"> T  </i>
  </separator>
  <i type="logical" name="GGA_COMPAT"> T  </i>
  <i type="logical" name="LBERRY"> F  </i>
  <i type="int" name="ICORELEVEL">     0</i>
  <i type="logical" name="LDAU"> F  </i>
  <i type="int" name="I_CONSTRAINED_M">     0</i>
  <separator name="electronic exchange-correlation" >
   <i type="string" name="GGA">PE</i>
   <i type="int" name="VOSKOWN">     0</i>
   <i type="logical" name="LHFCALC"> F  </i>
   <i type="string" name="PRECFOCK"></i>
   <i type="logical" name="LSYMGRAD"> F  </i>
   <i type="logical" name="LHFONE"> F  </i>
   <i type="logical" name="LRHFCALC"> F  </i>
   <i type="logical" name="LTHOMAS"> F  </i>
   <i type="logical" name="LMODELHF"> F  </i>
   <i type="logical" name="LFOCKACE"> F  </i>
   <i name="ENCUT4O">     -1.00000000</i>
   <i type="int" name="EXXOEP">     0</i>
   <i type="int" name="FOURORBIT">     0</i>
   <i name="AEXX">      0.00000000</i>
   <i name="HFALPHA">      0.00000000</i>
   <i name="MCALPHA">      0.00000000</i>
   <i name="ALDAX">      1.00000000</i>
   <i name="AGGAX">      1.00000000</i>
   <i name="ALDAC">      1.00000000</i>
   <i name="AGGAC">      1.00000000</i>
   <i type="int" name="NKREDX">     1</i>
   <i type="int" name="NKREDY">     1</i>
   <i type="int" name="NKREDZ">     1</i>
   <i type="logical" name="SHIFTRED"> F  </i>
   <i type="logical" name="ODDONLY"> F  </i>
   <i type="logical" name="EVENONLY"> F  </i>
   <i type="int" name="LMAXFOCK">     0</i>
   <i type="int" name="NMAXFOCKAE">     0</i>
   <i type="logical" name="LFOCKAEDFT"> F  </i>
   <i name="HFSCREEN">      0.00000000</i>
   <i name="HFSCREENC">      0.00000000</i>
   <i type="int" name="NBANDSGWLOW">     0</i>
  </separator>
  <separator name="vdW DFT" >
   <i type="logical" name="LUSE_VDW"> F  </i>
   <i name="Zab_VDW">     -0.84910000</i>
   <i name="PARAM1">      0.12340000</i>
   <i name="PARAM2">      1.00000000</i>
   <i name="PARAM3">      0.00000000</i>
  </separator>
  <separator name="model GW" >
   <i type="int" name="MODEL_GW">     0</i>
   <i name="MODEL_EPS0">      6.57005457</i>
   <i name="MODEL_ALPHA">      1.00000000</i>
  </separator>
  <separator name="linear response parameters" >
   <i type="logical" name="LEPSILON"> F  </i>
   <i type="logical" name="LRPA"> F  </i>
   <i type="logical" name="LNABLA"> F  </i>
   <i type="logical" name="LVEL"> F  </i>
   <i type="int" name="KINTER">     0</i>
   <i name="CSHIFT">      0.10000000</i>
   <i name="OMEGAMAX">     -1.00000000</i>
   <i name="DEG_THRESHOLD">      0.00200000</i>
   <i name="RTIME">     -0.10000000</i>
   <i name="WPLASMAI">      0.00000000</i>
   <v name="DFIELD">      0.00000000      0.00000000      0.00000000</v>
   <v name="WPLASMA">      0.00000000      0.00000000      0.00000000      0.00000000      0.00000000      0.00000000      0.00000000      0.00000000      0.00000000</v>
  </separator>
  <separator name="orbital magnetization" >
   <i type="logical" name="NUCIND"> F  </i>
   <v name="MAGPOS">      0.00000000      0.00000000      0.00000000</v>
   <i type="logical" name="LNICSALL"> T  </i>
   <i type="logical" name="ORBITALMAG"> F  </i>
   <i type="logical" name="LMAGBLOCH"> F  </i>
   <i type="logical" name="LCHIMAG"> F  </i>
   <i type="logical" name="LGAUGE"> T  </i>
   <i type="int" name="MAGATOM">     0</i>
   <v name="MAGDIPOL">      0.00000000      0.00000000      0.00000000</v>
   <v name="AVECCONST">      0.00000000      0.00000000      0.00000000</v>
  </separator>
  <separator name="response functions" >
   <i type="logical" name="LFINITE_TEMPERATURE"> F  </i>
   <i type="logical" name="LADDER"> F  </i>
   <i type="logical" name="LRPAFORCE"> F  </i>
   <i type="logical" name="LFXC"> F  </i>
   <i type="logical" name="LHARTREE"> T  </i>
   <i type="int" name="IBSE">     0</i>
   <v type="int" name="KPOINT">    -1     0     0     0</v>
   <i type="logical" name="LTCTC"> F  </i>
   <i type="logical" name="LTCTE"> F  </i>
   <i type="logical" name="LTETE"> F  </i>
   <i type="logical" name="LTRIPLET"> F  </i>
   <i type="logical" name="LFXCEPS"> F  </i>
   <i type="logical" name="LFXHEG"> F  </i>
   <i type="int" name="NATURALO">     2</i>
   <i type="logical" name="LHOLEGF"> F  </i>
   <i type="logical" name="L2ORDER"> F  </i>
   <i type="logical" name="LDMP1"> F  </i>
   <i type="logical" name="LMP2LT"> F  </i>
   <i type="logical" name="LSMP2LT"> F  </i>
   <i type="logical" name="LGWLF"> F  </i>
   <i name="ENCUTGW">     -2.00000000</i>
   <i name="ENCUTGWSOFT">     -2.00000000</i>
   <i name="ENCUTLF">     -1.00000000</i>
   <i type="logical" name="LESF_SPLINES"> F  </i>
   <i type="int" name="LMAXMP2">    -1</i>
   <i name="SCISSOR">      0.00000000</i>
   <i type="int" name="NOMEGA">     0</i>
   <i type="int" name="NOMEGAR">     0</i>
   <i type="int" name="NBANDSGW">    -1</i>
   <i type="int" name="NBANDSO">    -1</i>
   <i type="int" name="NBANDSV">    -1</i>
   <i type="int" name="NELM">     1</i>
   <i type="int" name="NELMHF">     1</i>
   <i type="int" name="DIM">     3</i>
   <i type="int" name="IESPILON">     4</i>
   <i type="int" name="ANTIRES">     0</i>
   <i name="OMEGAMAX">    -30.00000000</i>
   <i name="OMEGAMIN">    -30.00000000</i>
   <i name="OMEGATL">   -200.00000000</i>
   <i type="int" name="OMEGAGRID">     0</i>
   <i name="CSHIFT">     -0.10000000</i>
   <i type="logical" name="LSELFENERGY"> F  </i>
   <i type="logical" name="LSPECTRAL"> F  </i>
   <i type="logical" name="LSPECTRALGW"> F  </i>
   <i type="logical" name="LSINGLES"> F  </i>
   <i type="logical" name="LFERMIGW"> F  </i>
   <i type="logical" name="ODDONLYGW"> F  </i>
   <i type="logical" name="EVENONLYGW"> F  </i>
   <i type="int" name="NKREDLFX">     1</i>
   <i type="int" name="NKREDLFY">     1</i>
   <i type="int" name="NKREDLFZ">     1</i>
   <i type="int" name="MAXMEM">  2800</i>
   <i type="int" name="TELESCOPE">     0</i>
   <i type="int" name="NTAUPAR">    -1</i>
   <i type="int" name="NOMEGAPAR">    -1</i>
   <i name="DAMP_NEWTON">      0.80000001</i>
   <i name="LAMBDA">      1.00000000</i>
  </separator>
  <separator name="External order field" >
   <i name="OFIELD_KAPPA">      0.00000000</i>
   <v name="OFIELD_K">      0.00000000      0.00000000      0.00000000</v>
   <i name="OFIELD_Q6_NEAR">      0.00000000</i>
   <i name="OFIELD_Q6_FAR">      0.00000000</i>
   <i name="OFIELD_A">      0.00000000</i>
  </separator>
 </parameters>
 <atominfo>
  <atoms>       2 </atoms>
  <types>       1 </types>
  <array name="atoms" >
   <dimension dim="1">ion</dimension>
   <field type="string">element</field>
   <field type="int">atomtype</field>
   <set>
    <rc><c>Fe</c><c>   1</c></rc>
    <rc><c>Fe</c><c>   1</c></rc>
   </set>
  </array>
  <array name="atomtypes" >
   <dimension dim="1">type</dimension>
   <field type="int">atomspertype</field>
   <field type="string">element</field>
   <field>mass</field>
   <field>valence</field>
   <field type="string">pseudopotential</field>
   <set>
    <rc><c>   2</c><c>Fe</c><c>     55.84700000</c><c>      8.00000000</c><c>  PAW_PBE Fe 06Sep2000                  </c></rc>
   </set>
  </array>
 </atominfo>
 <structure name="initialpos" >
  <crystal>
   <varray name="basis" >
    <v>       2.42320000       0.00000000       0.00000000 </v>
    <v>      -1.21160000       2.09855276       0.00000000 </v>
    <v>       0.00000000       0.00000000       4.30664000 </v>
   </varray>
   <i name="volume">     21.90018191 </i>
   <varray name="rec_basis" >
    <v>       0.41267745       0.23825944       0.00000000 </v>
    <v>       0.00000000       0.47651888       0.00000000 </v>
    <v>       0.00000000       0.00000000       0.23219958 </v>
   </varray>
  </crystal>
  <varray name="positions" >
   <v>       0.00000000       0.00000000       0.00000000 </v>
   <v>       0.33333333       0.66666667       0.50000000 </v>
  </varray>
 </structure>
 <calculation>
  <scstep>
   <time name="dav">    0.79    0.81</time>
   <time name="total">    0.80    0.82</time>
   <energy>
    <i name="alphaZ">    126.23415878 </i>
    <i name="ewald">  -1197.34942578 </i>
    <i name="hartreedc">   -218.57543225 </i>
    <i name="XCdc">      8.05109024 </i>
    <i name="pawpsdc">   1109.69170683 </i>
    <i name="pawaedc">  -1125.09647265 </i>
    <i name="eentropy">      0.00145729 </i>
    <i name="bandstr">    169.36542593 </i>
    <i name="atom">   1188.57490811 </i>
    <i name="e_fr_energy">     60.89741650 </i>
    <i name="e_wo_entrp">     60.89595921 </i>
    <i name="e_0_energy">     60.89693073 </i>
   </energy>
  </scstep>
  <scstep>
   <time name="dav">    0.70    0.70</time>
   <time name="total">    0.70    0.70</time>
   <energy>
    <i name="e_fr_energy">    -14.59793090 </i>
    <i name="e_wo_entrp">    -14.60177445 </i>
    <i name="e_0_energy">    -14.59921208 </i>
   </energy>
  </scstep>
  <scstep>
   <time name="dav">    0.78    0.78</time>
   <time name="total">    0.79    0.79</time>
   <energy>
    <i name="e_fr_energy">    -19.18306092 </i>
    <i name="e_wo_entrp">    -19.18410862 </i>
    <i name="e_0_energy">    -19.18341016 </i>
   </energy>
  </scstep>
  <scstep>
   <time name="dav">    0.77    0.77</time>
   <time name="total">    0.77    0.77</time>
   <energy>
    <i name="e_fr_energy">    -19.20811045 </i>
    <i name="e_wo_entrp">    -19.20919045 </i>
    <i name="e_0_energy">    -19.20847045 </i>
   </energy>
  </scstep>
  <scstep>
   <time name="dav">    0.77    0.77</time>
   <time name="total">    0.80    0.80</time>
   <energy>
    <i name="e_fr_energy">    -19.20815493 </i>
    <i name="e_wo_entrp">    -19.20923496 </i>
    <i name="e_0_energy">    -19.20851494 </i>
   </energy>
  </scstep>
  <scstep>
   <time name="dav">    0.91    0.91</time>
   <time name="total">    0.95    0.95</time>
   <energy>
    <i name="e_fr_energy">    -16.32266377 </i>
    <i name="e_wo_entrp">    -16.32634533 </i>
    <i name="e_0_energy">    -16.32389095 </i>
   </energy>
  </scstep>
  <scstep>
   <time name="dav">    0.83    0.83</time>
   <time name="total">    0.87    0.87</time>
   <energy>
    <i name="e_fr_energy">    -16.03385068 </i>
    <i name="e_wo_entrp">    -16.03764065 </i>
    <i name="e_0_energy">    -16.03511400 </i>
   </energy>
  </scstep>
  <scstep>
   <time name="dav">    0.84    0.84</time>
   <time name="total">    0.87    0.87</time>
   <energy>
    <i name="e_fr_energy">    -16.00941979 </i>
    <i name="e_wo_entrp">    -16.01330544 </i>
    <i name="e_0_energy">    -16.01071501 </i>
   </energy>
  </scstep>
  <scstep>
   <time name="dav">    0.92    0.92</time>
   <time name="total">    0.96    0.96</time>
   <energy>
    <i name="e_fr_energy">    -15.99877289 </i>
    <i name="e_wo_entrp">    -16.00266110 </i>
    <i name="e_0_energy">    -16.00006896 </i>
   </energy>
  </scstep>
  <scstep>
   <time name="dav">    0.77    0.77</time>
   <time name="total">    0.80    0.80</time>
   <energy>
    <i name="e_fr_energy">    -15.99879964 </i>
    <i name="e_wo_entrp">    -16.00268303 </i>
    <i name="e_0_energy">    -16.00009410 </i>
   </energy>
  </scstep>
  <scstep>
   <time name="dav">    0.78    0.78</time>
   <time name="total">    0.81    0.81</time>
   <energy>
    <i name="e_fr_energy">    -15.99879519 </i>
    <i name="e_wo_entrp">    -16.00267865 </i>
    <i name="e_0_energy">    -16.00008967 </i>
   </energy>
  </scstep>
  <scstep>
   <time name="dav">    0.58    0.58</time>
   <time name="total">    0.59    0.59</time>
   <energy>
    <i name="alphaZ">    126.23415878 </i>
    <i name="ewald">  -1197.34942578 </i>
    <i name="hartreedc">   -184.13280816 </i>
    <i name="XCdc">      6.45728790 </i>
    <i name="pawpsdc">   1403.21516692 </i>
    <i name="pawaedc">  -1420.10882405 </i>
    <i name="eentropy">      0.00388365 </i>
    <i name="bandstr">     61.10685774 </i>
    <i name="atom">   1188.57490811 </i>
    <i name="e_fr_energy">    -15.99879489 </i>
    <i name="e_wo_entrp">    -16.00267854 </i>
    <i name="e_0_energy">    -16.00008944 </i>
   </energy>
  </scstep>
  <structure>
   <crystal>
    <varray name="basis" >
     <v>       2.42320000       0.00000000       0.00000000 </v>
     <v>      -1.21160000       2.09855276       0.00000000 </v>
     <v>       0.00000000       0.00000000       4.30664000 </v>
    </varray>
    <i name="volume">     21.90018191 </i>
    <varray name="rec_basis" >
     <v>       0.41267745       0.23825944       0.00000000 </v>
     <v>       0.00000000       0.47651888       0.00000000 </v>
     <v>       0.00000000       0.00000000       0.23219958 </v>
    </varray>
   </crystal>
   <varray name="positions" >
    <v>       0.00000000       0.00000000       0.00000000 </v>
    <v>       0.33333333       0.66666667       0.50000000 </v>
   </varray>
  </structure>
  <varray name="forces" >
   <v>      -0.00000000       0.00000000      -0.00000000 </v>
   <v>       0.00000000      -0.00000000       0.00000000 </v>
  </varray>
  <varray name="stress" >
   <v>     -30.89564196       0.00000000       0.00000000 </v>
   <v>       0.00000000     -30.89564196      -0.00000000 </v>
   <v>      -0.00000000       0.00000000    -438.70025851 </v>
  </varray>
  <energy>
   <i name="e_fr_energy">    -15.99879489 </i>
   <i name="e_wo_entrp">    -16.00267854 </i>
   <i name="e_0_energy">    -16.00008944 </i>
  </energy>
  <time name="totalsc">   10.04   10.06</time>
  <eigenvalues>
   <array>
    <dimension dim="1">band</dimension>
    <dimension dim="2">kpoint</dimension>
    <dimension dim="3">spin</dimension>
    <field>eigene</field>
    <field>occ</field>
    <set>
     <set comment="spin 1">
      <set comment="kpoint 1">
       <r>   -2.3736    1.0000 </r>
       <r>    1.4620    1.0000 </r>
       <r>    4.0771    1.0000 </r>
       <r>    4.6980    1.0000 </r>
       <r>    4.6982    1.0000 </r>
       <r>    4.9609    1.0000 </r>
       <r>    4.9611    1.0000 </r>
       <r>    5.3950    1.0000 </r>
       <r>    5.8569    1.0353 </r>
       <r>    5.8570    1.0353 </r>
       <r>    6.7720   -0.0000 </r>
       <r>    6.7720   -0.0000 </r>
       <r>   12.6112    0.0000 </r>
       <r>   28.5118    0.0000 </r>
       <r>   29.0190    0.0000 </r>
       <r>   31.7577    0.0000 </r>
       <r>   33.4846    0.0000 </r>
       <r>   33.4847    0.0000 </r>
       <r>   34.3376    0.0000 </r>
       <r>   34.3379    0.0000 </r>
       <r>   34.5520    0.0000 </r>
       <r>   37.3794    0.0000 </r>
       <r>   37.3794    0.0000 </r>
       <r>   38.3552    0.0000 </r>
       <r>   40.5319    0.0000 </r>
       <r>   40.5319    0.0000 </r>
       <r>   40.7424    0.0000 </r>
       <r>   43.7776    0.0000 </r>
       <r>   43.7780    0.0000 </r>
       <r>   45.3996    0.0000 </r>
       <r>   45.3997    0.0000 </r>
       <r>   47.6720    0.0000 </r>
       <r>   55.3266    0.0000 </r>
       <r>   59.4849    0.0000 </r>
       <r>   59.4861    0.0000 </r>
       <r>   60.1311    0.0000 </r>
       <r>   60.5674    0.0000 </r>
       <r>   60.8920    0.0000 </r>
       <r>   60.8921    0.0000 </r>
       <r>   61.0014    0.0000 </r>
      </set>
      <set comment="kpoint 2">
       <r>   -2.0597    1.0000 </r>
       <r>    1.6971    1.0000 </r>
       <r>    4.1033    1.0000 </r>
       <r>    4.6311    1.0000 </r>
       <r>    4.6527    1.0000 </r>
       <r>    4.8581    1.0000 </r>
       <r>    4.8735    1.0000 </r>
       <r>    5.1242    1.0000 </r>
       <r>    5.7198    1.0095 </r>
       <r>    5.7595    1.0165 </r>
       <r>    6.7989   -0.0000 </r>
       <r>    7.7806   -0.0000 </r>
       <r>   12.6413    0.0000 </r>
       <r>   27.5314    0.0000 </r>
       <r>   28.8732    0.0000 </r>
       <r>   29.9620    0.0000 </r>
       <r>   30.8500    0.0000 </r>
       <r>   33.3733    0.0000 </r>
       <r>   33.4483    0.0000 </r>
       <r>   34.4156    0.0000 </r>
       <r>   36.6920    0.0000 </r>
       <r>   37.0741    0.0000 </r>
       <r>   37.2015    0.0000 </r>
       <r>   37.8359    0.0000 </r>
       <r>   41.1860    0.0000 </r>
       <r>   41.4259    0.0000 </r>
       <r>   41.7891    0.0000 </r>
       <r>   42.2604    0.0000 </r>
       <r>   45.3201    0.0000 </r>
       <r>   46.7106    0.0000 </r>
       <r>   47.9266    0.0000 </r>
       <r>   49.7848    0.0000 </r>
       <r>   55.0696    0.0000 </r>
       <r>   57.2280    0.0000 </r>
       <r>   57.9156    0.0000 </r>
       <r>   58.3149    0.0000 </r>
       <r>   59.3541    0.0000 </r>
       <r>   60.7539    0.0000 </r>
       <r>   62.4674    0.0000 </r>
       <r>   62.7424    0.0000 </r>
      </set>
      <set comment="kpoint 3">
       <r>   -1.1659    1.0000 </r>
       <r>    2.2603    1.0000 </r>
       <r>    3.7192    1.0000 </r>
       <r>    3.9717    1.0000 </r>
       <r>    4.4532    1.0000 </r>
       <r>    4.9478    1.0000 </r>
       <r>    5.3596    1.0000 </r>
       <r>    5.3905    1.0000 </r>
       <r>    5.5277    1.0002 </r>
       <r>    5.5755    1.0005 </r>
       <r>    6.8414   -0.0000 </r>
       <r>    9.4668   -0.0000 </r>
       <r>   12.7594    0.0000 </r>
       <r>   23.6531    0.0000 </r>
       <r>   28.1500    0.0000 </r>
       <r>   28.7229    0.0000 </r>
       <r>   29.0743    0.0000 </r>
       <r>   29.9732    0.0000 </r>
       <r>   33.3006    0.0000 </r>
       <r>   34.4570    0.0000 </r>
       <r>   34.6979    0.0000 </r>
       <r>   35.7079    0.0000 </r>
       <r>   37.8948    0.0000 </r>
       <r>   38.5453    0.0000 </r>
       <r>   41.3976    0.0000 </r>
       <r>   42.8581    0.0000 </r>
       <r>   44.4332    0.0000 </r>
       <r>   46.4649    0.0000 </r>
       <r>   47.6255    0.0000 </r>
       <r>   50.6061    0.0000 </r>
       <r>   50.8135    0.0000 </r>
       <r>   53.2185    0.0000 </r>
       <r>   53.9488    0.0000 </r>
       <r>   54.0841    0.0000 </r>
       <r>   56.1575    0.0000 </r>
       <r>   57.6916    0.0000 </r>
       <r>   58.7624    0.0000 </r>
       <r>   60.4579    0.0000 </r>
       <r>   63.3292    0.0000 </r>
       <r>   64.0064    0.0000 </r>
      </set>
      <set comment="kpoint 4">
       <r>    0.1264    1.0000 </r>
       <r>    2.5740    1.0000 </r>
       <r>    3.0084    1.0000 </r>
       <r>    3.9312    1.0000 </r>
       <r>    4.2756    1.0000 </r>
       <r>    4.9717    1.0000 </r>
       <r>    5.2618    1.0000 </r>
       <r>    5.6099    1.0012 </r>
       <r>    6.0499    0.7386 </r>
       <r>    6.2056    0.1395 </r>
       <r>    6.8636   -0.0000 </r>
       <r>   11.3990   -0.0000 </r>
       <r>   13.0298    0.0000 </r>
       <r>   19.7174    0.0000 </r>
       <r>   25.4912    0.0000 </r>
       <r>   25.8595    0.0000 </r>
       <r>   26.9101    0.0000 </r>
       <r>   30.1041    0.0000 </r>
       <r>   31.4226    0.0000 </r>
       <r>   34.3105    0.0000 </r>
       <r>   34.9679    0.0000 </r>
       <r>   35.1871    0.0000 </r>
       <r>   35.4906    0.0000 </r>
       <r>   39.0633    0.0000 </r>
       <r>   45.0350    0.0000 </r>
       <r>   46.5034    0.0000 </r>
       <r>   47.8252    0.0000 </r>
       <r>   48.6767    0.0000 </r>
       <r>   49.3333    0.0000 </r>
       <r>   50.8989    0.0000 </r>
       <r>   52.1891    0.0000 </r>
       <r>   53.1396    0.0000 </r>
       <r>   55.7574    0.0000 </r>
       <r>   56.1257    0.0000 </r>
       <r>   56.8724    0.0000 </r>
       <r>   58.2237    0.0000 </r>
       <r>   60.2671    0.0000 </r>
       <r>   60.6024    0.0000 </r>
       <r>   63.2023    0.0000 </r>
       <r>   63.9991    0.0000 </r>
      </set>
      <set comment="kpoint 5">
       <r>    1.3486    1.0000 </r>
       <r>    2.3549    1.0000 </r>
       <r>    2.5484    1.0000 </r>
       <r>    4.0485    1.0000 </r>
       <r>    4.5977    1.0000 </r>
       <r>    4.6510    1.0000 </r>
       <r>    5.0405    1.0000 </r>
       <r>    6.7124   -0.0001 </r>
       <r>    6.7419   -0.0000 </r>
       <r>    6.8354   -0.0000 </r>
       <r>    6.8624   -0.0000 </r>
       <r>   13.1081    0.0000 </r>
       <r>   13.5023    0.0000 </r>
       <r>   16.7852    0.0000 </r>
       <r>   22.2388    0.0000 </r>
       <r>   23.9532    0.0000 </r>
       <r>   24.1194    0.0000 </r>
       <r>   29.3390    0.0000 </r>
       <r>   30.4787    0.0000 </r>
       <r>   33.5604    0.0000 </r>
       <r>   34.5008    0.0000 </r>
       <r>   35.9131    0.0000 </r>
       <r>   36.2014    0.0000 </r>
       <r>   39.3046    0.0000 </r>
       <r>   45.9513    0.0000 </r>
       <r>   47.4065    0.0000 </r>
       <r>   48.5088    0.0000 </r>
       <r>   51.4444    0.0000 </r>
       <r>   51.7627    0.0000 </r>
       <r>   52.1758    0.0000 </r>
       <r>   54.2271    0.0000 </r>
       <r>   55.2762    0.0000 </r>
       <r>   55.5592    0.0000 </r>
       <r>   57.8505    0.0000 </r>
       <r>   59.7196    0.0000 </r>
       <r>   60.0253    0.0000 </r>
       <r>   61.3232    0.0000 </r>
       <r>   62.2489    0.0000 </r>
       <r>   64.2190    0.0000 </r>
       <r>   64.6575    0.0000 </r>
      </set>
      <set comment="kpoint 6">
       <r>    1.9103    1.0000 </r>
       <r>    2.1111    1.0000 </r>
       <r>    2.3267    1.0000 </r>
       <r>    4.3798    1.0000 </r>
       <r>    4.5364    1.0000 </r>
       <r>    4.8664    1.0000 </r>
       <r>    4.9165    1.0000 </r>
       <r>    6.8559   -0.0000 </r>
       <r>    7.1659   -0.0000 </r>
       <r>    7.2597   -0.0000 </r>
       <r>    8.2588   -0.0000 </r>
       <r>   11.4609   -0.0000 </r>
       <r>   15.5278    0.0000 </r>
       <r>   16.6959    0.0000 </r>
       <r>   19.6627    0.0000 </r>
       <r>   21.2432    0.0000 </r>
       <r>   23.1549    0.0000 </r>
       <r>   28.7616    0.0000 </r>
       <r>   30.1741    0.0000 </r>
       <r>   32.4993    0.0000 </r>
       <r>   34.2842    0.0000 </r>
       <r>   36.7669    0.0000 </r>
       <r>   38.6217    0.0000 </r>
       <r>   38.9533    0.0000 </r>
       <r>   42.6238    0.0000 </r>
       <r>   47.4879    0.0000 </r>
       <r>   49.7186    0.0000 </r>
       <r>   53.6550    0.0000 </r>
       <r>   54.2183    0.0000 </r>
       <r>   54.7882    0.0000 </r>
       <r>   55.5900    0.0000 </r>
       <r>   57.4504    0.0000 </r>
       <r>   58.3020    0.0000 </r>
       <r>   59.1422    0.0000 </r>
       <r>   59.7667    0.0000 </r>
       <r>   59.8374    0.0000 </r>
       <r>   63.0686    0.0000 </r>
       <r>   63.1751    0.0000 </r>
       <r>   63.5852    0.0000 </r>
       <r>   64.1337    0.0000 </r>
      </set>
      <set comment="kpoint 7">
       <r>   -1.4537    1.0000 </r>
       <r>    2.1123    1.0000 </r>
       <r>    3.9620    1.0000 </r>
       <r>    4.0029    1.0000 </r>
       <r>    4.6595    1.0000 </r>
       <r>    4.6676    1.0000 </r>
       <r>    5.2293    1.0000 </r>
       <r>    5.3773    1.0000 </r>
       <r>    5.4728    1.0000 </r>
       <r>    5.7201    1.0095 </r>
       <r>    6.8060   -0.0000 </r>
       <r>    8.9953   -0.0000 </r>
       <r>   12.7198    0.0000 </r>
       <r>   25.4561    0.0000 </r>
       <r>   26.4977    0.0000 </r>
       <r>   29.4374    0.0000 </r>
       <r>   30.8007    0.0000 </r>
       <r>   32.0454    0.0000 </r>
       <r>   32.3052    0.0000 </r>
       <r>   33.2940    0.0000 </r>
       <r>   34.1274    0.0000 </r>
       <r>   38.4259    0.0000 </r>
       <r>   39.1209    0.0000 </r>
       <r>   39.2652    0.0000 </r>
       <r>   40.7185    0.0000 </r>
       <r>   40.7786    0.0000 </r>
       <r>   41.0699    0.0000 </r>
       <r>   47.1629    0.0000 </r>
       <r>   48.5986    0.0000 </r>
       <r>   48.7858    0.0000 </r>
       <r>   48.8079    0.0000 </r>
       <r>   52.8811    0.0000 </r>
       <r>   54.4725    0.0000 </r>
       <r>   54.8934    0.0000 </r>
       <r>   55.9733    0.0000 </r>
       <r>   57.5608    0.0000 </r>
       <r>   58.7343    0.0000 </r>
       <r>   61.4264    0.0000 </r>
       <r>   63.1459    0.0000 </r>
       <r>   63.6508    0.0000 </r>
      </set>
      <set comment="kpoint 8">
       <r>   -0.3403    1.0000 </r>
       <r>    2.6605    1.0000 </r>
       <r>    3.2637    1.0000 </r>
       <r>    3.7387    1.0000 </r>
       <r>    4.3754    1.0000 </r>
       <r>    4.9813    1.0000 </r>
       <r>    5.0513    1.0000 </r>
       <r>    5.4925    1.0001 </r>
       <r>    5.8641    1.0355 </r>
       <r>    6.1190    0.4578 </r>
       <r>    6.7974   -0.0000 </r>
       <r>   10.7162   -0.0000 </r>
       <r>   12.9509    0.0000 </r>
       <r>   21.7422    0.0000 </r>
       <r>   24.2427    0.0000 </r>
       <r>   27.3376    0.0000 </r>
       <r>   29.4341    0.0000 </r>
       <r>   29.5768    0.0000 </r>
       <r>   32.4592    0.0000 </r>
       <r>   32.4873    0.0000 </r>
       <r>   33.5813    0.0000 </r>
       <r>   37.5728    0.0000 </r>
       <r>   38.4325    0.0000 </r>
       <r>   39.1637    0.0000 </r>
       <r>   42.3183    0.0000 </r>
       <r>   43.4344    0.0000 </r>
       <r>   45.3051    0.0000 </r>
       <r>   48.7411    0.0000 </r>
       <r>   51.0422    0.0000 </r>
       <r>   51.4065    0.0000 </r>
       <r>   51.6359    0.0000 </r>
       <r>   53.5773    0.0000 </r>
       <r>   54.7381    0.0000 </r>
       <r>   55.0328    0.0000 </r>
       <r>   55.9529    0.0000 </r>
       <r>   56.4540    0.0000 </r>
       <r>   59.7673    0.0000 </r>
       <r>   61.6645    0.0000 </r>
       <r>   63.7980    0.0000 </r>
       <r>   63.8996    0.0000 </r>
      </set>
      <set comment="kpoint 9">
       <r>    0.9948    1.0000 </r>
       <r>    2.6531    1.0000 </r>
       <r>    2.7550    1.0000 </r>
       <r>    3.7921    1.0000 </r>
       <r>    4.4245    1.0000 </r>
       <r>    4.6448    1.0000 </r>
       <r>    5.1697    1.0000 </r>
       <r>    5.7470    1.0140 </r>
       <r>    6.5556   -0.0035 </r>
       <r>    6.7840   -0.0000 </r>
       <r>    6.9591   -0.0000 </r>
       <r>   12.7125    0.0000 </r>
       <r>   13.3695    0.0000 </r>
       <r>   18.0898    0.0000 </r>
       <r>   22.6172    0.0000 </r>
       <r>   23.9568    0.0000 </r>
       <r>   26.1799    0.0000 </r>
       <r>   28.3347    0.0000 </r>
       <r>   31.5806    0.0000 </r>
       <r>   32.8389    0.0000 </r>
       <r>   34.0124    0.0000 </r>
       <r>   37.2214    0.0000 </r>
       <r>   37.7807    0.0000 </r>
       <r>   40.4708    0.0000 </r>
       <r>   44.1361    0.0000 </r>
       <r>   46.9827    0.0000 </r>
       <r>   48.0362    0.0000 </r>
       <r>   48.1294    0.0000 </r>
       <r>   50.1070    0.0000 </r>
       <r>   52.1998    0.0000 </r>
       <r>   53.4981    0.0000 </r>
       <r>   54.9579    0.0000 </r>
       <r>   56.0600    0.0000 </r>
       <r>   57.0173    0.0000 </r>
       <r>   58.8414    0.0000 </r>
       <r>   61.0940    0.0000 </r>
       <r>   61.4755    0.0000 </r>
       <r>   61.5799    0.0000 </r>
       <r>   62.4952    0.0000 </r>
       <r>   64.3997    0.0000 </r>
      </set>
      <set comment="kpoint 10">
       <r>    1.9141    1.0000 </r>
       <r>    2.3674    1.0000 </r>
       <r>    2.4604    1.0000 </r>
       <r>    4.1289    1.0000 </r>
       <r>    4.4257    1.0000 </r>
       <r>    4.7721    1.0000 </r>
       <r>    4.8956    1.0000 </r>
       <r>    6.5858   -0.0019 </r>
       <r>    6.7651   -0.0000 </r>
       <r>    7.0275   -0.0000 </r>
       <r>    8.0461   -0.0000 </r>
       <r>   12.7906    0.0000 </r>
       <r>   14.8477    0.0000 </r>
       <r>   16.5016    0.0000 </r>
       <r>   20.9885    0.0000 </r>
       <r>   21.3351    0.0000 </r>
       <r>   23.0079    0.0000 </r>
       <r>   27.5058    0.0000 </r>
       <r>   30.6562    0.0000 </r>
       <r>   32.3544    0.0000 </r>
       <r>   35.4271    0.0000 </r>
       <r>   37.6812    0.0000 </r>
       <r>   38.4226    0.0000 </r>
       <r>   39.9647    0.0000 </r>
       <r>   44.5732    0.0000 </r>
       <r>   46.7768    0.0000 </r>
       <r>   48.2573    0.0000 </r>
       <r>   50.3749    0.0000 </r>
       <r>   51.4716    0.0000 </r>
       <r>   53.9318    0.0000 </r>
       <r>   55.0934    0.0000 </r>
       <r>   56.9641    0.0000 </r>
       <r>   58.1719    0.0000 </r>
       <r>   59.5809    0.0000 </r>
       <r>   60.3223    0.0000 </r>
       <r>   61.1126    0.0000 </r>
       <r>   61.8289    0.0000 </r>
       <r>   62.8069    0.0000 </r>
       <r>   63.7579    0.0000 </r>
       <r>   64.3645    0.0000 </r>
      </set>
      <set comment="kpoint 11">
       <r>    2.1558    1.0000 </r>
       <r>    2.2188    1.0000 </r>
       <r>    2.3661    1.0000 </r>
       <r>    4.3511    1.0000 </r>
       <r>    4.4879    1.0000 </r>
       <r>    4.7888    1.0000 </r>
       <r>    4.8648    1.0000 </r>
       <r>    6.7570   -0.0000 </r>
       <r>    7.0678   -0.0000 </r>
       <r>    7.0903   -0.0000 </r>
       <r>    9.2066   -0.0000 </r>
       <r>   11.1727   -0.0000 </r>
       <r>   16.3188    0.0000 </r>
       <r>   17.1494    0.0000 </r>
       <r>   19.2520    0.0000 </r>
       <r>   20.3596    0.0000 </r>
       <r>   21.7293    0.0000 </r>
       <r>   27.2150    0.0000 </r>
       <r>   30.2822    0.0000 </r>
       <r>   32.2018    0.0000 </r>
       <r>   35.7134    0.0000 </r>
       <r>   38.5645    0.0000 </r>
       <r>   38.8636    0.0000 </r>
       <r>   40.0742    0.0000 </r>
       <r>   42.2613    0.0000 </r>
       <r>   47.8472    0.0000 </r>
       <r>   48.3409    0.0000 </r>
       <r>   50.9699    0.0000 </r>
       <r>   53.8363    0.0000 </r>
       <r>   54.2844    0.0000 </r>
       <r>   57.3957    0.0000 </r>
       <r>   57.6293    0.0000 </r>
       <r>   58.5969    0.0000 </r>
       <r>   58.7131    0.0000 </r>
       <r>   59.0177    0.0000 </r>
       <r>   61.1407    0.0000 </r>
       <r>   63.7515    0.0000 </r>
       <r>   63.9475    0.0000 </r>
       <r>   64.2956    0.0000 </r>
       <r>   65.4531    0.0000 </r>
      </set>
      <set comment="kpoint 12">
       <r>    0.8776    1.0000 </r>
       <r>    2.8781    1.0000 </r>
       <r>    3.1013    1.0000 </r>
       <r>    3.3374    1.0000 </r>
       <r>    4.4162    1.0000 </r>
       <r>    4.5852    1.0000 </r>
       <r>    5.2714    1.0000 </r>
       <r>    5.2842    1.0000 </r>
       <r>    6.5310   -0.0055 </r>
       <r>    6.6939   -0.0001 </r>
       <r>    7.0205   -0.0000 </r>
       <r>   12.4600    0.0000 </r>
       <r>   13.4676    0.0000 </r>
       <r>   19.8656    0.0000 </r>
       <r>   20.4808    0.0000 </r>
       <r>   25.6039    0.0000 </r>
       <r>   26.6467    0.0000 </r>
       <r>   28.4272    0.0000 </r>
       <r>   29.0116    0.0000 </r>
       <r>   33.5688    0.0000 </r>
       <r>   35.3973    0.0000 </r>
       <r>   38.6790    0.0000 </r>
       <r>   39.0893    0.0000 </r>
       <r>   41.6784    0.0000 </r>
       <r>   42.4460    0.0000 </r>
       <r>   44.2619    0.0000 </r>
       <r>   45.3035    0.0000 </r>
       <r>   49.5396    0.0000 </r>
       <r>   50.8468    0.0000 </r>
       <r>   51.8224    0.0000 </r>
       <r>   51.9299    0.0000 </r>
       <r>   55.5230    0.0000 </r>
       <r>   55.9848    0.0000 </r>
       <r>   58.4800    0.0000 </r>
       <r>   58.7971    0.0000 </r>
       <r>   59.5475    0.0000 </r>
       <r>   59.9074    0.0000 </r>
       <r>   63.0237    0.0000 </r>
       <r>   63.2650    0.0000 </r>
       <r>   64.5967    0.0000 </r>
      </set>
      <set comment="kpoint 13">
       <r>    2.0822    1.0000 </r>
       <r>    2.6456    1.0000 </r>
       <r>    2.8682    1.0000 </r>
       <r>    3.4997    1.0000 </r>
       <r>    4.3481    1.0000 </r>
       <r>    4.6696    1.0000 </r>
       <r>    4.9264    1.0000 </r>
       <r>    5.7876    1.0227 </r>
       <r>    6.6050   -0.0013 </r>
       <r>    6.9643   -0.0000 </r>
       <r>    8.1818   -0.0000 </r>
       <r>   14.1247    0.0000 </r>
       <r>   14.5162    0.0000 </r>
       <r>   16.9477    0.0000 </r>
       <r>   18.9699    0.0000 </r>
       <r>   22.8741    0.0000 </r>
       <r>   24.9812    0.0000 </r>
       <r>   25.2056    0.0000 </r>
       <r>   27.7241    0.0000 </r>
       <r>   35.6977    0.0000 </r>
       <r>   35.8699    0.0000 </r>
       <r>   38.7054    0.0000 </r>
       <r>   41.1594    0.0000 </r>
       <r>   42.2800    0.0000 </r>
       <r>   43.2424    0.0000 </r>
       <r>   45.3971    0.0000 </r>
       <r>   46.4291    0.0000 </r>
       <r>   47.3878    0.0000 </r>
       <r>   50.6603    0.0000 </r>
       <r>   51.2786    0.0000 </r>
       <r>   53.9196    0.0000 </r>
       <r>   57.2110    0.0000 </r>
       <r>   58.4336    0.0000 </r>
       <r>   59.6080    0.0000 </r>
       <r>   61.7512    0.0000 </r>
       <r>   61.8745    0.0000 </r>
       <r>   62.4569    0.0000 </r>
       <r>   63.2222    0.0000 </r>
       <r>   64.1253    0.0000 </r>
       <r>   65.3284    0.0000 </r>
      </set>
      <set comment="kpoint 14">
       <r>    2.5493    1.0000 </r>
       <r>    2.5695    1.0000 </r>
       <r>    2.6532    1.0000 </r>
       <r>    3.9296    1.0000 </r>
       <r>    4.3150    1.0000 </r>
       <r>    4.5888    1.0000 </r>
       <r>    4.9189    1.0000 </r>
       <r>    6.4272   -0.0235 </r>
       <r>    6.5541   -0.0036 </r>
       <r>    6.9587   -0.0000 </r>
       <r>    9.6908   -0.0000 </r>
       <r>   12.5417    0.0000 </r>
       <r>   16.6478    0.0000 </r>
       <r>   17.1902    0.0000 </r>
       <r>   18.1506    0.0000 </r>
       <r>   20.2235    0.0000 </r>
       <r>   22.0850    0.0000 </r>
       <r>   24.6641    0.0000 </r>
       <r>   27.0976    0.0000 </r>
       <r>   35.8320    0.0000 </r>
       <r>   37.7587    0.0000 </r>
       <r>   39.1237    0.0000 </r>
       <r>   40.6365    0.0000 </r>
       <r>   41.5102    0.0000 </r>
       <r>   44.7031    0.0000 </r>
       <r>   45.6826    0.0000 </r>
       <r>   47.3587    0.0000 </r>
       <r>   47.8787    0.0000 </r>
       <r>   51.1374    0.0000 </r>
       <r>   52.7965    0.0000 </r>
       <r>   53.5046    0.0000 </r>
       <r>   57.1042    0.0000 </r>
       <r>   57.5022    0.0000 </r>
       <r>   59.1024    0.0000 </r>
       <r>   62.2890    0.0000 </r>
       <r>   63.5525    0.0000 </r>
       <r>   63.8583    0.0000 </r>
       <r>   64.4706    0.0000 </r>
       <r>   64.6614    0.0000 </r>
       <r>   65.2062    0.0000 </r>
      </set>
      <set comment="kpoint 15">
       <r>    2.6759    1.0000 </r>
       <r>    2.8938    1.0000 </r>
       <r>    3.1891    1.0000 </r>
       <r>    3.2528    1.0000 </r>
       <r>    4.2056    1.0000 </r>
       <r>    4.5657    1.0000 </r>
       <r>    4.9499    1.0000 </r>
       <r>    6.0266    0.8181 </r>
       <r>    6.4482   -0.0187 </r>
       <r>    6.9262   -0.0000 </r>
       <r>    9.8047   -0.0000 </r>
       <r>   14.5642    0.0000 </r>
       <r>   15.1685    0.0000 </r>
       <r>   16.6698    0.0000 </r>
       <r>   17.7590    0.0000 </r>
       <r>   22.1178    0.0000 </r>
       <r>   22.3145    0.0000 </r>
       <r>   23.7865    0.0000 </r>
       <r>   24.6051    0.0000 </r>
       <r>   37.4287    0.0000 </r>
       <r>   38.1392    0.0000 </r>
       <r>   41.5398    0.0000 </r>
       <r>   42.4087    0.0000 </r>
       <r>   43.1023    0.0000 </r>
       <r>   43.1388    0.0000 </r>
       <r>   43.9386    0.0000 </r>
       <r>   45.9796    0.0000 </r>
       <r>   48.3533    0.0000 </r>
       <r>   48.5860    0.0000 </r>
       <r>   52.7979    0.0000 </r>
       <r>   52.8096    0.0000 </r>
       <r>   55.0738    0.0000 </r>
       <r>   57.3301    0.0000 </r>
       <r>   59.3312    0.0000 </r>
       <r>   62.9157    0.0000 </r>
       <r>   64.0246    0.0000 </r>
       <r>   64.0348    0.0000 </r>
       <r>   65.1668    0.0000 </r>
       <r>   65.4061    0.0000 </r>
       <r>   65.5394    0.0000 </r>
      </set>
      <set comment="kpoint 16">
       <r>    2.7205    1.0000 </r>
       <r>    3.0639    1.0000 </r>
       <r>    3.0813    1.0000 </r>
       <r>    3.5422    1.0000 </r>
       <r>    4.2676    1.0000 </r>
       <r>    4.2873    1.0000 </r>
       <r>    5.0816    1.0000 </r>
       <r>    6.3638   -0.0351 </r>
       <r>    6.3889   -0.0318 </r>
       <r>    6.6381   -0.0006 </r>
       <r>   11.5324   -0.0000 </r>
       <r>   12.6583    0.0000 </r>
       <r>   14.7890    0.0000 </r>
       <r>   18.5501    0.0000 </r>
       <r>   18.7441    0.0000 </r>
       <r>   20.0197    0.0000 </r>
       <r>   22.0540    0.0000 </r>
       <r>   22.1102    0.0000 </r>
       <r>   24.0242    0.0000 </r>
       <r>   37.8573    0.0000 </r>
       <r>   40.5161    0.0000 </r>
       <r>   41.2943    0.0000 </r>
       <r>   41.6990    0.0000 </r>
       <r>   42.4227    0.0000 </r>
       <r>   44.0452    0.0000 </r>
       <r>   44.6698    0.0000 </r>
       <r>   47.6601    0.0000 </r>
       <r>   47.9749    0.0000 </r>
       <r>   48.2751    0.0000 </r>
       <r>   51.7526    0.0000 </r>
       <r>   53.0761    0.0000 </r>
       <r>   53.4604    0.0000 </r>
       <r>   56.9425    0.0000 </r>
       <r>   57.6382    0.0000 </r>
       <r>   63.9123    0.0000 </r>
       <r>   64.5041    0.0000 </r>
       <r>   65.4513    0.0000 </r>
       <r>   65.4576    0.0000 </r>
       <r>   65.5957    0.0000 </r>
       <r>   65.6723    0.0000 </r>
      </set>
      <set comment="kpoint 17">
       <r>   -2.2997    1.0000 </r>
       <r>    1.4211    1.0000 </r>
       <r>    4.0590    1.0000 </r>
       <r>    4.6915    1.0000 </r>
       <r>    4.6917    1.0000 </r>
       <r>    4.9470    1.0000 </r>
       <r>    4.9471    1.0000 </r>
       <r>    5.1917    1.0000 </r>
       <r>    5.8881    1.0328 </r>
       <r>    5.8882    1.0328 </r>
       <r>    6.7634   -0.0000 </r>
       <r>    6.7634   -0.0000 </r>
       <r>   12.9795    0.0000 </r>
       <r>   27.7502    0.0000 </r>
       <r>   29.1348    0.0000 </r>
       <r>   31.6081    0.0000 </r>
       <r>   33.5397    0.0000 </r>
       <r>   33.5398    0.0000 </r>
       <r>   34.3541    0.0000 </r>
       <r>   34.3543    0.0000 </r>
       <r>   35.1469    0.0000 </r>
       <r>   37.2752    0.0000 </r>
       <r>   37.2752    0.0000 </r>
       <r>   38.5775    0.0000 </r>
       <r>   40.1691    0.0000 </r>
       <r>   40.1691    0.0000 </r>
       <r>   40.9387    0.0000 </r>
       <r>   44.0396    0.0000 </r>
       <r>   44.0400    0.0000 </r>
       <r>   45.8526    0.0000 </r>
       <r>   45.8528    0.0000 </r>
       <r>   47.5861    0.0000 </r>
       <r>   54.8427    0.0000 </r>
       <r>   58.8254    0.0000 </r>
       <r>   58.8257    0.0000 </r>
       <r>   59.1078    0.0000 </r>
       <r>   59.1088    0.0000 </r>
       <r>   59.7057    0.0000 </r>
       <r>   61.1013    0.0000 </r>
       <r>   61.2269    0.0000 </r>
      </set>
      <set comment="kpoint 18">
       <r>   -1.9872    1.0000 </r>
       <r>    1.6602    1.0000 </r>
       <r>    4.0929    1.0000 </r>
       <r>    4.5114    1.0000 </r>
       <r>    4.6083    1.0000 </r>
       <r>    4.8644    1.0000 </r>
       <r>    4.8843    1.0000 </r>
       <r>    5.1088    1.0000 </r>
       <r>    5.7582    1.0163 </r>
       <r>    5.7965    1.0248 </r>
       <r>    6.7877   -0.0000 </r>
       <r>    7.6336   -0.0000 </r>
       <r>   13.0459    0.0000 </r>
       <r>   27.5051    0.0000 </r>
       <r>   28.2095    0.0000 </r>
       <r>   29.9664    0.0000 </r>
       <r>   30.9175    0.0000 </r>
       <r>   32.7151    0.0000 </r>
       <r>   33.9646    0.0000 </r>
       <r>   34.9399    0.0000 </r>
       <r>   36.3573    0.0000 </r>
       <r>   37.1525    0.0000 </r>
       <r>   37.2896    0.0000 </r>
       <r>   38.0660    0.0000 </r>
       <r>   41.1647    0.0000 </r>
       <r>   41.3093    0.0000 </r>
       <r>   42.0821    0.0000 </r>
       <r>   42.5739    0.0000 </r>
       <r>   45.1119    0.0000 </r>
       <r>   47.0203    0.0000 </r>
       <r>   48.2518    0.0000 </r>
       <r>   49.7903    0.0000 </r>
       <r>   53.9195    0.0000 </r>
       <r>   57.0296    0.0000 </r>
       <r>   57.5192    0.0000 </r>
       <r>   58.3223    0.0000 </r>
       <r>   59.5308    0.0000 </r>
       <r>   60.5130    0.0000 </r>
       <r>   61.2606    0.0000 </r>
       <r>   62.3286    0.0000 </r>
      </set>
      <set comment="kpoint 19">
       <r>   -1.0993    1.0000 </r>
       <r>    2.2363    1.0000 </r>
       <r>    3.6499    1.0000 </r>
       <r>    3.9859    1.0000 </r>
       <r>    4.4282    1.0000 </r>
       <r>    4.8866    1.0000 </r>
       <r>    5.3208    1.0000 </r>
       <r>    5.4829    1.0000 </r>
       <r>    5.5238    1.0001 </r>
       <r>    5.6343    1.0020 </r>
       <r>    6.8263   -0.0000 </r>
       <r>    9.1198   -0.0000 </r>
       <r>   13.2949    0.0000 </r>
       <r>   23.7182    0.0000 </r>
       <r>   28.1299    0.0000 </r>
       <r>   28.2346    0.0000 </r>
       <r>   29.2615    0.0000 </r>
       <r>   29.4795    0.0000 </r>
       <r>   33.1382    0.0000 </r>
       <r>   34.7038    0.0000 </r>
       <r>   35.1598    0.0000 </r>
       <r>   35.2278    0.0000 </r>
       <r>   38.3825    0.0000 </r>
       <r>   39.0888    0.0000 </r>
       <r>   41.6142    0.0000 </r>
       <r>   42.8194    0.0000 </r>
       <r>   44.2156    0.0000 </r>
       <r>   46.4570    0.0000 </r>
       <r>   47.5532    0.0000 </r>
       <r>   50.5403    0.0000 </r>
       <r>   51.1284    0.0000 </r>
       <r>   52.1070    0.0000 </r>
       <r>   53.2386    0.0000 </r>
       <r>   55.4039    0.0000 </r>
       <r>   55.6646    0.0000 </r>
       <r>   57.4898    0.0000 </r>
       <r>   59.2606    0.0000 </r>
       <r>   60.9636    0.0000 </r>
       <r>   61.9754    0.0000 </r>
       <r>   63.9930    0.0000 </r>
      </set>
      <set comment="kpoint 20">
       <r>    0.1758    1.0000 </r>
       <r>    2.5608    1.0000 </r>
       <r>    2.9908    1.0000 </r>
       <r>    3.9380    1.0000 </r>
       <r>    4.2416    1.0000 </r>
       <r>    4.9780    1.0000 </r>
       <r>    5.2803    1.0000 </r>
       <r>    5.6501    1.0028 </r>
       <r>    6.0583    0.7073 </r>
       <r>    6.1941    0.1735 </r>
       <r>    6.8451   -0.0000 </r>
       <r>   10.6974   -0.0000 </r>
       <r>   13.8683    0.0000 </r>
       <r>   19.7788    0.0000 </r>
       <r>   25.0193    0.0000 </r>
       <r>   25.9592    0.0000 </r>
       <r>   27.2897    0.0000 </r>
       <r>   29.7608    0.0000 </r>
       <r>   31.3995    0.0000 </r>
       <r>   33.5025    0.0000 </r>
       <r>   33.8510    0.0000 </r>
       <r>   36.1600    0.0000 </r>
       <r>   36.6515    0.0000 </r>
       <r>   39.6770    0.0000 </r>
       <r>   45.1320    0.0000 </r>
       <r>   46.1068    0.0000 </r>
       <r>   47.2555    0.0000 </r>
       <r>   47.4705    0.0000 </r>
       <r>   50.5734    0.0000 </r>
       <r>   51.0592    0.0000 </r>
       <r>   52.4490    0.0000 </r>
       <r>   53.5818    0.0000 </r>
       <r>   54.7076    0.0000 </r>
       <r>   55.6489    0.0000 </r>
       <r>   57.2975    0.0000 </r>
       <r>   58.3675    0.0000 </r>
       <r>   60.8914    0.0000 </r>
       <r>   60.9162    0.0000 </r>
       <r>   62.5040    0.0000 </r>
       <r>   64.5514    0.0000 </r>
      </set>
      <set comment="kpoint 21">
       <r>    1.3508    1.0000 </r>
       <r>    2.3214    1.0000 </r>
       <r>    2.6174    1.0000 </r>
       <r>    3.8776    1.0000 </r>
       <r>    4.6512    1.0000 </r>
       <r>    4.8283    1.0000 </r>
       <r>    5.0700    1.0000 </r>
       <r>    6.6811   -0.0002 </r>
       <r>    6.7353   -0.0000 </r>
       <r>    6.7606   -0.0000 </r>
       <r>    6.9049   -0.0000 </r>
       <r>   11.9938    0.0000 </r>
       <r>   14.6379    0.0000 </r>
       <r>   16.8891    0.0000 </r>
       <r>   21.7939    0.0000 </r>
       <r>   24.2294    0.0000 </r>
       <r>   24.4468    0.0000 </r>
       <r>   29.2687    0.0000 </r>
       <r>   30.4620    0.0000 </r>
       <r>   32.5454    0.0000 </r>
       <r>   34.3746    0.0000 </r>
       <r>   35.5618    0.0000 </r>
       <r>   37.2894    0.0000 </r>
       <r>   39.9647    0.0000 </r>
       <r>   44.6554    0.0000 </r>
       <r>   48.3539    0.0000 </r>
       <r>   48.7737    0.0000 </r>
       <r>   50.7256    0.0000 </r>
       <r>   51.1873    0.0000 </r>
       <r>   53.2147    0.0000 </r>
       <r>   53.7113    0.0000 </r>
       <r>   55.2777    0.0000 </r>
       <r>   56.0618    0.0000 </r>
       <r>   57.4775    0.0000 </r>
       <r>   59.9053    0.0000 </r>
       <r>   60.6928    0.0000 </r>
       <r>   61.3191    0.0000 </r>
       <r>   61.9526    0.0000 </r>
       <r>   64.4664    0.0000 </r>
       <r>   64.6295    0.0000 </r>
      </set>
      <set comment="kpoint 22">
       <r>    1.8382    1.0000 </r>
       <r>    2.0600    1.0000 </r>
       <r>    2.4994    1.0000 </r>
       <r>    3.9373    1.0000 </r>
       <r>    4.8134    1.0000 </r>
       <r>    4.9497    1.0000 </r>
       <r>    5.1185    1.0000 </r>
       <r>    6.8058   -0.0000 </r>
       <r>    7.1697   -0.0000 </r>
       <r>    7.2603   -0.0000 </r>
       <r>    8.1812   -0.0000 </r>
       <r>   11.2922   -0.0000 </r>
       <r>   15.3422    0.0000 </r>
       <r>   16.8023    0.0000 </r>
       <r>   19.6909    0.0000 </r>
       <r>   21.6819    0.0000 </r>
       <r>   23.2711    0.0000 </r>
       <r>   28.7424    0.0000 </r>
       <r>   30.1644    0.0000 </r>
       <r>   31.7035    0.0000 </r>
       <r>   35.1295    0.0000 </r>
       <r>   36.0006    0.0000 </r>
       <r>   37.4473    0.0000 </r>
       <r>   40.4896    0.0000 </r>
       <r>   42.6197    0.0000 </r>
       <r>   48.2960    0.0000 </r>
       <r>   49.1793    0.0000 </r>
       <r>   52.4319    0.0000 </r>
       <r>   54.0352    0.0000 </r>
       <r>   55.2085    0.0000 </r>
       <r>   56.3317    0.0000 </r>
       <r>   57.8077    0.0000 </r>
       <r>   57.9259    0.0000 </r>
       <r>   59.1587    0.0000 </r>
       <r>   60.1644    0.0000 </r>
       <r>   60.1988    0.0000 </r>
       <r>   63.0114    0.0000 </r>
       <r>   63.1557    0.0000 </r>
       <r>   63.7916    0.0000 </r>
       <r>   63.9739    0.0000 </r>
      </set>
      <set comment="kpoint 23">
       <r>   -1.3848    1.0000 </r>
       <r>    2.0838    1.0000 </r>
       <r>    3.8755    1.0000 </r>
       <r>    4.0118    1.0000 </r>
       <r>    4.5959    1.0000 </r>
       <r>    4.6786    1.0000 </r>
       <r>    5.2064    1.0000 </r>
       <r>    5.3923    1.0000 </r>
       <r>    5.5228    1.0001 </r>
       <r>    5.7576    1.0161 </r>
       <r>    6.7916   -0.0000 </r>
       <r>    8.7117   -0.0000 </r>
       <r>   13.2063    0.0000 </r>
       <r>   25.4977    0.0000 </r>
       <r>   26.5543    0.0000 </r>
       <r>   28.6825    0.0000 </r>
       <r>   30.3404    0.0000 </r>
       <r>   32.1609    0.0000 </r>
       <r>   32.7754    0.0000 </r>
       <r>   32.7897    0.0000 </r>
       <r>   34.8767    0.0000 </r>
       <r>   38.4334    0.0000 </r>
       <r>   39.0601    0.0000 </r>
       <r>   39.8264    0.0000 </r>
       <r>   39.8709    0.0000 </r>
       <r>   41.1951    0.0000 </r>
       <r>   41.7000    0.0000 </r>
       <r>   46.9571    0.0000 </r>
       <r>   48.1988    0.0000 </r>
       <r>   48.9677    0.0000 </r>
       <r>   49.3174    0.0000 </r>
       <r>   52.6060    0.0000 </r>
       <r>   52.7470    0.0000 </r>
       <r>   55.0965    0.0000 </r>
       <r>   56.6861    0.0000 </r>
       <r>   58.3772    0.0000 </r>
       <r>   58.4803    0.0000 </r>
       <r>   60.5335    0.0000 </r>
       <r>   62.1821    0.0000 </r>
       <r>   64.0375    0.0000 </r>
      </set>
      <set comment="kpoint 24">
       <r>   -0.2819    1.0000 </r>
       <r>    2.6490    1.0000 </r>
       <r>    3.2170    1.0000 </r>
       <r>    3.7570    1.0000 </r>
       <r>    4.3563    1.0000 </r>
       <r>    4.8216    1.0000 </r>
       <r>    5.2398    1.0000 </r>
       <r>    5.4663    1.0000 </r>
       <r>    5.9097    1.0248 </r>
       <r>    6.1034    0.5240 </r>
       <r>    6.7858   -0.0000 </r>
       <r>   10.1737   -0.0000 </r>
       <r>   13.6490    0.0000 </r>
       <r>   21.8032    0.0000 </r>
       <r>   24.3055    0.0000 </r>
       <r>   26.9582    0.0000 </r>
       <r>   28.8920    0.0000 </r>
       <r>   30.0130    0.0000 </r>
       <r>   31.4458    0.0000 </r>
       <r>   32.9900    0.0000 </r>
       <r>   34.0500    0.0000 </r>
       <r>   37.7627    0.0000 </r>
       <r>   38.3405    0.0000 </r>
       <r>   39.8229    0.0000 </r>
       <r>   42.3078    0.0000 </r>
       <r>   43.3066    0.0000 </r>
       <r>   45.5316    0.0000 </r>
       <r>   48.1137    0.0000 </r>
       <r>   50.4571    0.0000 </r>
       <r>   51.1488    0.0000 </r>
       <r>   52.2582    0.0000 </r>
       <r>   53.6884    0.0000 </r>
       <r>   54.0113    0.0000 </r>
       <r>   55.4185    0.0000 </r>
       <r>   55.9428    0.0000 </r>
       <r>   57.3725    0.0000 </r>
       <r>   59.7518    0.0000 </r>
       <r>   61.2901    0.0000 </r>
       <r>   62.7736    0.0000 </r>
       <r>   63.9046    0.0000 </r>
      </set>
      <set comment="kpoint 25">
       <r>    1.0242    1.0000 </r>
       <r>    2.6240    1.0000 </r>
       <r>    2.7803    1.0000 </r>
       <r>    3.7785    1.0000 </r>
       <r>    4.3730    1.0000 </r>
       <r>    4.7350    1.0000 </r>
       <r>    5.1742    1.0000 </r>
       <r>    5.7626    1.0172 </r>
       <r>    6.5711   -0.0026 </r>
       <r>    6.7047   -0.0001 </r>
       <r>    6.9964   -0.0000 </r>
       <r>   11.6785    0.0000 </r>
       <r>   14.5063    0.0000 </r>
       <r>   18.1556    0.0000 </r>
       <r>   22.6551    0.0000 </r>
       <r>   23.5914    0.0000 </r>
       <r>   26.5951    0.0000 </r>
       <r>   28.0573    0.0000 </r>
       <r>   31.8115    0.0000 </r>
       <r>   32.4347    0.0000 </r>
       <r>   33.5528    0.0000 </r>
       <r>   37.2729    0.0000 </r>
       <r>   38.4289    0.0000 </r>
       <r>   41.0097    0.0000 </r>
       <r>   43.8624    0.0000 </r>
       <r>   45.7746    0.0000 </r>
       <r>   47.4990    0.0000 </r>
       <r>   49.4378    0.0000 </r>
       <r>   50.4833    0.0000 </r>
       <r>   51.7043    0.0000 </r>
       <r>   53.8295    0.0000 </r>
       <r>   54.9986    0.0000 </r>
       <r>   55.9312    0.0000 </r>
       <r>   57.2618    0.0000 </r>
       <r>   58.9931    0.0000 </r>
       <r>   60.4735    0.0000 </r>
       <r>   61.0877    0.0000 </r>
       <r>   62.0764    0.0000 </r>
       <r>   62.7421    0.0000 </r>
       <r>   64.1568    0.0000 </r>
      </set>
      <set comment="kpoint 26">
       <r>    1.8682    1.0000 </r>
       <r>    2.3198    1.0000 </r>
       <r>    2.5998    1.0000 </r>
       <r>    3.8539    1.0000 </r>
       <r>    4.7116    1.0000 </r>
       <r>    4.7444    1.0000 </r>
       <r>    4.9881    1.0000 </r>
       <r>    6.5735   -0.0025 </r>
       <r>    6.7130   -0.0001 </r>
       <r>    7.0398   -0.0000 </r>
       <r>    8.0320   -0.0000 </r>
       <r>   12.3413    0.0000 </r>
       <r>   15.0276    0.0000 </r>
       <r>   16.8174    0.0000 </r>
       <r>   20.5526    0.0000 </r>
       <r>   21.5975    0.0000 </r>
       <r>   23.4449    0.0000 </r>
       <r>   27.2297    0.0000 </r>
       <r>   30.9353    0.0000 </r>
       <r>   32.3066    0.0000 </r>
       <r>   34.5991    0.0000 </r>
       <r>   36.9367    0.0000 </r>
       <r>   39.3607    0.0000 </r>
       <r>   40.5299    0.0000 </r>
       <r>   44.0117    0.0000 </r>
       <r>   46.8190    0.0000 </r>
       <r>   48.3788    0.0000 </r>
       <r>   50.3919    0.0000 </r>
       <r>   52.2438    0.0000 </r>
       <r>   53.6355    0.0000 </r>
       <r>   54.9883    0.0000 </r>
       <r>   56.7433    0.0000 </r>
       <r>   58.2141    0.0000 </r>
       <r>   59.5744    0.0000 </r>
       <r>   60.7010    0.0000 </r>
       <r>   60.9353    0.0000 </r>
       <r>   62.0933    0.0000 </r>
       <r>   62.6464    0.0000 </r>
       <r>   63.9833    0.0000 </r>
       <r>   64.4505    0.0000 </r>
      </set>
      <set comment="kpoint 27">
       <r>    2.0426    1.0000 </r>
       <r>    2.1670    1.0000 </r>
       <r>    2.5893    1.0000 </r>
       <r>    3.9194    1.0000 </r>
       <r>    4.7042    1.0000 </r>
       <r>    4.9563    1.0000 </r>
       <r>    4.9925    1.0000 </r>
       <r>    6.7038   -0.0001 </r>
       <r>    7.0637   -0.0000 </r>
       <r>    7.0912   -0.0000 </r>
       <r>    9.1543   -0.0000 </r>
       <r>   11.1039   -0.0000 </r>
       <r>   16.1473    0.0000 </r>
       <r>   16.7762    0.0000 </r>
       <r>   19.7718    0.0000 </r>
       <r>   20.6146    0.0000 </r>
       <r>   21.9187    0.0000 </r>
       <r>   26.9401    0.0000 </r>
       <r>   30.5545    0.0000 </r>
       <r>   32.1893    0.0000 </r>
       <r>   35.3184    0.0000 </r>
       <r>   36.9360    0.0000 </r>
       <r>   39.1081    0.0000 </r>
       <r>   41.8795    0.0000 </r>
       <r>   41.9879    0.0000 </r>
       <r>   47.3712    0.0000 </r>
       <r>   48.5281    0.0000 </r>
       <r>   51.6112    0.0000 </r>
       <r>   53.9006    0.0000 </r>
       <r>   54.3437    0.0000 </r>
       <r>   56.9978    0.0000 </r>
       <r>   57.0046    0.0000 </r>
       <r>   58.3880    0.0000 </r>
       <r>   58.9957    0.0000 </r>
       <r>   59.3441    0.0000 </r>
       <r>   61.9832    0.0000 </r>
       <r>   63.7831    0.0000 </r>
       <r>   63.7938    0.0000 </r>
       <r>   64.4402    0.0000 </r>
       <r>   64.9530    0.0000 </r>
      </set>
      <set comment="kpoint 28">
       <r>    0.9171    1.0000 </r>
       <r>    2.8352    1.0000 </r>
       <r>    3.1275    1.0000 </r>
       <r>    3.3542    1.0000 </r>
       <r>    4.4152    1.0000 </r>
       <r>    4.5392    1.0000 </r>
       <r>    5.2634    1.0000 </r>
       <r>    5.3489    1.0000 </r>
       <r>    6.5623   -0.0031 </r>
       <r>    6.6198   -0.0009 </r>
       <r>    7.0559   -0.0000 </r>
       <r>   11.5625   -0.0000 </r>
       <r>   14.4852    0.0000 </r>
       <r>   19.9306    0.0000 </r>
       <r>   20.5553    0.0000 </r>
       <r>   25.2336    0.0000 </r>
       <r>   26.2120    0.0000 </r>
       <r>   28.9122    0.0000 </r>
       <r>   29.3275    0.0000 </r>
       <r>   32.5965    0.0000 </r>
       <r>   35.9389    0.0000 </r>
       <r>   39.0534    0.0000 </r>
       <r>   39.3824    0.0000 </r>
       <r>   41.4603    0.0000 </r>
       <r>   41.8201    0.0000 </r>
       <r>   44.9269    0.0000 </r>
       <r>   45.1696    0.0000 </r>
       <r>   49.2203    0.0000 </r>
       <r>   49.9309    0.0000 </r>
       <r>   51.5156    0.0000 </r>
       <r>   53.8552    0.0000 </r>
       <r>   55.7133    0.0000 </r>
       <r>   56.0042    0.0000 </r>
       <r>   57.8633    0.0000 </r>
       <r>   58.4261    0.0000 </r>
       <r>   60.1023    0.0000 </r>
       <r>   60.3321    0.0000 </r>
       <r>   62.1499    0.0000 </r>
       <r>   62.9534    0.0000 </r>
       <r>   63.4921    0.0000 </r>
      </set>
      <set comment="kpoint 29">
       <r>    2.0741    1.0000 </r>
       <r>    2.6444    1.0000 </r>
       <r>    2.8913    1.0000 </r>
       <r>    3.5068    1.0000 </r>
       <r>    4.3588    1.0000 </r>
       <r>    4.6615    1.0000 </r>
       <r>    4.9448    1.0000 </r>
       <r>    5.8136    1.0287 </r>
       <r>    6.5461   -0.0042 </r>
       <r>    6.9888   -0.0000 </r>
       <r>    8.1970   -0.0000 </r>
       <r>   13.0392    0.0000 </r>
       <r>   15.6020    0.0000 </r>
       <r>   17.0921    0.0000 </r>
       <r>   19.0392    0.0000 </r>
       <r>   22.4413    0.0000 </r>
       <r>   24.7768    0.0000 </r>
       <r>   25.5195    0.0000 </r>
       <r>   28.2195    0.0000 </r>
       <r>   34.1562    0.0000 </r>
       <r>   36.5631    0.0000 </r>
       <r>   39.2314    0.0000 </r>
       <r>   40.8088    0.0000 </r>
       <r>   42.3912    0.0000 </r>
       <r>   43.2772    0.0000 </r>
       <r>   44.4489    0.0000 </r>
       <r>   47.3180    0.0000 </r>
       <r>   47.5559    0.0000 </r>
       <r>   50.1574    0.0000 </r>
       <r>   52.2542    0.0000 </r>
       <r>   54.2008    0.0000 </r>
       <r>   57.2527    0.0000 </r>
       <r>   58.3638    0.0000 </r>
       <r>   59.5484    0.0000 </r>
       <r>   61.4109    0.0000 </r>
       <r>   61.9280    0.0000 </r>
       <r>   62.0734    0.0000 </r>
       <r>   63.1843    0.0000 </r>
       <r>   63.9080    0.0000 </r>
       <r>   64.5219    0.0000 </r>
      </set>
      <set comment="kpoint 30">
       <r>    2.3844    1.0000 </r>
       <r>    2.6214    1.0000 </r>
       <r>    2.8281    1.0000 </r>
       <r>    3.7475    1.0000 </r>
       <r>    4.4339    1.0000 </r>
       <r>    4.5652    1.0000 </r>
       <r>    5.0123    1.0000 </r>
       <r>    6.4326   -0.0222 </r>
       <r>    6.4945   -0.0100 </r>
       <r>    6.9749   -0.0000 </r>
       <r>    9.7069   -0.0000 </r>
       <r>   12.4568    0.0000 </r>
       <r>   16.0972    0.0000 </r>
       <r>   17.6705    0.0000 </r>
       <r>   18.1099    0.0000 </r>
       <r>   20.2824    0.0000 </r>
       <r>   22.5581    0.0000 </r>
       <r>   24.2245    0.0000 </r>
       <r>   27.6447    0.0000 </r>
       <r>   35.3829    0.0000 </r>
       <r>   36.9586    0.0000 </r>
       <r>   38.4209    0.0000 </r>
       <r>   41.4512    0.0000 </r>
       <r>   42.2542    0.0000 </r>
       <r>   44.5114    0.0000 </r>
       <r>   44.8313    0.0000 </r>
       <r>   47.5604    0.0000 </r>
       <r>   49.0774    0.0000 </r>
       <r>   51.5430    0.0000 </r>
       <r>   52.6067    0.0000 </r>
       <r>   53.6183    0.0000 </r>
       <r>   57.1002    0.0000 </r>
       <r>   57.3087    0.0000 </r>
       <r>   59.4194    0.0000 </r>
       <r>   61.3399    0.0000 </r>
       <r>   63.3640    0.0000 </r>
       <r>   64.0387    0.0000 </r>
       <r>   64.4716    0.0000 </r>
       <r>   64.8696    0.0000 </r>
       <r>   65.3033    0.0000 </r>
      </set>
      <set comment="kpoint 31">
       <r>    2.6652    1.0000 </r>
       <r>    2.8966    1.0000 </r>
       <r>    3.1658    1.0000 </r>
       <r>    3.3010    1.0000 </r>
       <r>    4.2455    1.0000 </r>
       <r>    4.4997    1.0000 </r>
       <r>    4.9757    1.0000 </r>
       <r>    6.0596    0.7021 </r>
       <r>    6.3853   -0.0324 </r>
       <r>    6.9475   -0.0000 </r>
       <r>    9.8392   -0.0000 </r>
       <r>   14.2240    0.0000 </r>
       <r>   15.2377    0.0000 </r>
       <r>   16.5797    0.0000 </r>
       <r>   18.2298    0.0000 </r>
       <r>   21.6679    0.0000 </r>
       <r>   21.8735    0.0000 </r>
       <r>   24.4609    0.0000 </r>
       <r>   25.1408    0.0000 </r>
       <r>   35.8769    0.0000 </r>
       <r>   38.9429    0.0000 </r>
       <r>   41.0153    0.0000 </r>
       <r>   41.3388    0.0000 </r>
       <r>   43.1830    0.0000 </r>
       <r>   43.3980    0.0000 </r>
       <r>   44.9613    0.0000 </r>
       <r>   46.8166    0.0000 </r>
       <r>   48.2744    0.0000 </r>
       <r>   48.5017    0.0000 </r>
       <r>   52.9129    0.0000 </r>
       <r>   53.2463    0.0000 </r>
       <r>   55.3031    0.0000 </r>
       <r>   56.9994    0.0000 </r>
       <r>   59.6362    0.0000 </r>
       <r>   62.8958    0.0000 </r>
       <r>   63.7608    0.0000 </r>
       <r>   63.8975    0.0000 </r>
       <r>   64.9831    0.0000 </r>
       <r>   65.2458    0.0000 </r>
       <r>   65.3120    0.0000 </r>
      </set>
      <set comment="kpoint 32">
       <r>    2.7118    1.0000 </r>
       <r>    3.0827    1.0000 </r>
       <r>    3.1263    1.0000 </r>
       <r>    3.4998    1.0000 </r>
       <r>    4.2397    1.0000 </r>
       <r>    4.2944    1.0000 </r>
       <r>    5.0980    1.0000 </r>
       <r>    6.3246   -0.0314 </r>
       <r>    6.3878   -0.0320 </r>
       <r>    6.6637   -0.0003 </r>
       <r>   11.5958    0.0000 </r>
       <r>   12.6573    0.0000 </r>
       <r>   14.8031    0.0000 </r>
       <r>   18.1668    0.0000 </r>
       <r>   18.2950    0.0000 </r>
       <r>   20.3920    0.0000 </r>
       <r>   21.8893    0.0000 </r>
       <r>   22.5488    0.0000 </r>
       <r>   24.6172    0.0000 </r>
       <r>   36.8772    0.0000 </r>
       <r>   39.1951    0.0000 </r>
       <r>   40.8979    0.0000 </r>
       <r>   41.6315    0.0000 </r>
       <r>   43.6382    0.0000 </r>
       <r>   44.1441    0.0000 </r>
       <r>   45.9084    0.0000 </r>
       <r>   47.3459    0.0000 </r>
       <r>   48.2245    0.0000 </r>
       <r>   48.6664    0.0000 </r>
       <r>   51.5310    0.0000 </r>
       <r>   52.8323    0.0000 </r>
       <r>   53.7827    0.0000 </r>
       <r>   57.1863    0.0000 </r>
       <r>   57.8401    0.0000 </r>
       <r>   63.7437    0.0000 </r>
       <r>   64.4312    0.0000 </r>
       <r>   64.9569    0.0000 </r>
       <r>   65.4172    0.0000 </r>
       <r>   65.5155    0.0000 </r>
       <r>   65.7958    0.0000 </r>
      </set>
      <set comment="kpoint 33">
       <r>   -2.0804    1.0000 </r>
       <r>    1.2783    1.0000 </r>
       <r>    4.0069    1.0000 </r>
       <r>    4.6775    1.0000 </r>
       <r>    4.6777    1.0000 </r>
       <r>    4.7245    1.0000 </r>
       <r>    4.9084    1.0000 </r>
       <r>    4.9085    1.0000 </r>
       <r>    5.9742    0.9505 </r>
       <r>    5.9743    0.9504 </r>
       <r>    6.7359   -0.0000 </r>
       <r>    6.7360   -0.0000 </r>
       <r>   13.9599    0.0000 </r>
       <r>   26.2159    0.0000 </r>
       <r>   29.1882    0.0000 </r>
       <r>   31.2274    0.0000 </r>
       <r>   33.7008    0.0000 </r>
       <r>   33.7008    0.0000 </r>
       <r>   34.4017    0.0000 </r>
       <r>   34.4019    0.0000 </r>
       <r>   36.4618    0.0000 </r>
[...]
       <r>   20.1060    0.0000 </r>
       <r>   20.8057    0.0000 </r>
       <r>   24.8642    0.0000 </r>
       <r>   25.9055    0.0000 </r>
       <r>   30.1746    0.0000 </r>
       <r>   31.1933    0.0000 </r>
       <r>   33.5527    0.0000 </r>
       <r>   34.9956    0.0000 </r>
       <r>   39.6028    0.0000 </r>
       <r>   39.9431    0.0000 </r>
       <r>   48.8910    0.0000 </r>
       <r>   49.6259    0.0000 </r>
       <r>   49.8223    0.0000 </r>
       <r>   51.4205    0.0000 </r>
       <r>   53.4567    0.0000 </r>
       <r>   54.1823    0.0000 </r>
       <r>   54.6022    0.0000 </r>
       <r>   55.9151    0.0000 </r>
       <r>   58.1201    0.0000 </r>
       <r>   59.0001    0.0000 </r>
       <r>   60.1134    0.0000 </r>
       <r>   61.3947    0.0000 </r>
       <r>   62.5705    0.0000 </r>
       <r>   62.8093    0.0000 </r>
       <r>   63.5680    0.0000 </r>
       <r>   63.8861    0.0000 </r>
      </set>
      <set comment="kpoint 95">
       <r>    2.6418    1.0000 </r>
       <r>    2.6789    1.0000 </r>
       <r>    3.5071    1.0000 </r>
       <r>    3.7016    1.0000 </r>
       <r>    4.0507    1.0000 </r>
       <r>    4.2276    1.0000 </r>
       <r>    5.3031    1.0000 </r>
       <r>    5.4821    1.0000 </r>
       <r>    6.8044   -0.0000 </r>
       <r>    6.9686   -0.0000 </r>
       <r>   10.6896   -0.0000 </r>
       <r>   11.1828   -0.0000 </r>
       <r>   16.6599    0.0000 </r>
       <r>   17.0412    0.0000 </r>
       <r>   18.2395    0.0000 </r>
       <r>   18.5970    0.0000 </r>
       <r>   24.9882    0.0000 </r>
       <r>   26.5038    0.0000 </r>
       <r>   30.3383    0.0000 </r>
       <r>   31.6161    0.0000 </r>
       <r>   33.2629    0.0000 </r>
       <r>   34.2608    0.0000 </r>
       <r>   42.0492    0.0000 </r>
       <r>   42.4337    0.0000 </r>
       <r>   45.7418    0.0000 </r>
       <r>   45.8627    0.0000 </r>
       <r>   51.9432    0.0000 </r>
       <r>   53.0586    0.0000 </r>
       <r>   53.6510    0.0000 </r>
       <r>   54.2103    0.0000 </r>
       <r>   55.8242    0.0000 </r>
       <r>   56.0530    0.0000 </r>
       <r>   57.2709    0.0000 </r>
       <r>   57.3798    0.0000 </r>
       <r>   58.8216    0.0000 </r>
       <r>   59.6848    0.0000 </r>
       <r>   62.5953    0.0000 </r>
       <r>   62.9234    0.0000 </r>
       <r>   63.8118    0.0000 </r>
       <r>   63.8286    0.0000 </r>
      </set>
      <set comment="kpoint 96">
       <r>    2.8329    1.0000 </r>
       <r>    2.9432    1.0000 </r>
       <r>    3.4645    1.0000 </r>
       <r>    3.5541    1.0000 </r>
       <r>    4.0377    1.0000 </r>
       <r>    4.1547    1.0000 </r>
       <r>    5.3470    1.0000 </r>
       <r>    5.4838    1.0000 </r>
       <r>    6.7858   -0.0000 </r>
       <r>    6.8450   -0.0000 </r>
       <r>   12.4587    0.0000 </r>
       <r>   12.5787    0.0000 </r>
       <r>   15.0085    0.0000 </r>
       <r>   15.2988    0.0000 </r>
       <r>   17.5954    0.0000 </r>
       <r>   18.0373    0.0000 </r>
       <r>   26.6930    0.0000 </r>
       <r>   27.2561    0.0000 </r>
       <r>   29.3499    0.0000 </r>
       <r>   29.7806    0.0000 </r>
       <r>   32.9462    0.0000 </r>
       <r>   33.7341    0.0000 </r>
       <r>   43.0832    0.0000 </r>
       <r>   43.6909    0.0000 </r>
       <r>   47.7211    0.0000 </r>
       <r>   48.1313    0.0000 </r>
       <r>   49.8817    0.0000 </r>
       <r>   50.2671    0.0000 </r>
       <r>   53.4758    0.0000 </r>
       <r>   54.4230    0.0000 </r>
       <r>   55.8920    0.0000 </r>
       <r>   56.8147    0.0000 </r>
       <r>   57.2024    0.0000 </r>
       <r>   57.7167    0.0000 </r>
       <r>   59.2936    0.0000 </r>
       <r>   60.1420    0.0000 </r>
       <r>   61.2870    0.0000 </r>
       <r>   61.6728    0.0000 </r>
       <r>   65.3187    0.0000 </r>
       <r>   65.3318    0.0000 </r>
      </set>
     </set>
    </set>
   </array>
  </eigenvalues>
  <separator name="orbital magnetization" >
   <v name="MAGDIPOLOUT">      0.00000000      0.00000000      0.00000000</v>
  </separator>
  <dos>
   <i name="efermi">      6.10901960 </i>
   <total>
    <array>
     <dimension dim="1">gridpoints</dimension>
     <dimension dim="2">spin</dimension>
     <field>energy</field>
     <field>total</field>
     <field>integrated</field>
     <set>
      <set comment="spin 1">
       <r>    -5.7959     0.0000     0.0000 </r>
       <r>    -5.5450     0.0000     0.0000 </r>
       <r>    -5.2940     0.0000     0.0000 </r>
       <r>    -5.0430     0.0000     0.0000 </r>
       <r>    -4.7921     0.0000     0.0000 </r>
       <r>    -4.5411     0.0000     0.0000 </r>
       <r>    -4.2901     0.0000     0.0000 </r>
       <r>    -4.0392    -0.0000    -0.0000 </r>
       <r>    -3.7882    -0.0000    -0.0000 </r>
       <r>    -3.5372    -0.0000    -0.0000 </r>
       <r>    -3.2862    -0.0000    -0.0000 </r>
       <r>    -3.0353    -0.0000    -0.0000 </r>
       <r>    -2.7843    -0.0001    -0.0000 </r>
       <r>    -2.5333    -0.0004    -0.0001 </r>
       <r>    -2.2824     0.0088     0.0021 </r>
       <r>    -2.0314     0.0608     0.0173 </r>
       <r>    -1.7804     0.1064     0.0440 </r>
       <r>    -1.5295     0.0645     0.0602 </r>
       <r>    -1.2785     0.1654     0.1017 </r>
       <r>    -1.0275     0.1907     0.1496 </r>
       <r>    -0.7765     0.1934     0.1981 </r>
       <r>    -0.5256     0.0885     0.2203 </r>
       <r>    -0.2746     0.2863     0.2922 </r>
       <r>    -0.0236     0.2843     0.3635 </r>
       <r>     0.2273     0.3384     0.4484 </r>
       <r>     0.4783     0.2855     0.5201 </r>
       <r>     0.7293     0.2311     0.5781 </r>
       <r>     0.9802     0.4704     0.6961 </r>
       <r>     1.2312     0.6565     0.8609 </r>
       <r>     1.4822     0.8054     1.0630 </r>
       <r>     1.7332     1.1510     1.3519 </r>
       <r>     1.9841     2.0006     1.8540 </r>
       <r>     2.2351     2.6774     2.5259 </r>
       <r>     2.4861     2.3285     3.1103 </r>
       <r>     2.7370     3.0753     3.8821 </r>
       <r>     2.9880     2.5237     4.5155 </r>
       <r>     3.2390     3.4171     5.3731 </r>
       <r>     3.4900     3.4738     6.2449 </r>
       <r>     3.7409     3.4566     7.1125 </r>
       <r>     3.9919     2.6177     7.7694 </r>
       <r>     4.2429     3.0498     8.5348 </r>
       <r>     4.4938     4.5562     9.6783 </r>
       <r>     4.7448     4.2186    10.7371 </r>
       <r>     4.9958     4.1911    11.7889 </r>
       <r>     5.2467     3.9011    12.7680 </r>
       <r>     5.4977     4.0648    13.7881 </r>
       <r>     5.7487     3.5549    14.6803 </r>
       <r>     5.9997     3.8090    15.6363 </r>
       <r>     6.2506     3.1603    16.4294 </r>
       <r>     6.5016     4.0269    17.4400 </r>
       <r>     6.7526     5.6014    18.8458 </r>
       <r>     7.0035     5.1575    20.1402 </r>
       <r>     7.2545     3.8780    21.1135 </r>
       <r>     7.5055     0.5722    21.2571 </r>
       <r>     7.7564     0.4149    21.3612 </r>
       <r>     8.0074     0.7619    21.5524 </r>
       <r>     8.2584     0.8695    21.7707 </r>
       <r>     8.5094     0.7654    21.9627 </r>
       <r>     8.7603     0.5223    22.0938 </r>
       <r>     9.0113     0.3981    22.1938 </r>
       <r>     9.2623     0.4729    22.3124 </r>
       <r>     9.5132     0.4212    22.4182 </r>
       <r>     9.7642     0.6579    22.5833 </r>
       <r>    10.0152     0.6226    22.7395 </r>
       <r>    10.2661     0.4470    22.8517 </r>
       <r>    10.5171     0.4513    22.9650 </r>
       <r>    10.7681     0.5585    23.1051 </r>
       <r>    11.0191     0.3515    23.1933 </r>
       <r>    11.2700     0.2684    23.2607 </r>
       <r>    11.5210     0.3370    23.3453 </r>
       <r>    11.7720     0.4556    23.4596 </r>
       <r>    12.0229     0.3737    23.5534 </r>
       <r>    12.2739     0.2399    23.6136 </r>
       <r>    12.5249     0.4587    23.7287 </r>
       <r>    12.7759     0.6567    23.8935 </r>
       <r>    13.0268     0.2975    23.9682 </r>
       <r>    13.2778     0.2848    24.0397 </r>
       <r>    13.5288     0.2291    24.0972 </r>
       <r>    13.7797     0.1739    24.1408 </r>
       <r>    14.0307     0.1040    24.1669 </r>
       <r>    14.2817     0.1714    24.2100 </r>
       <r>    14.5326     0.3254    24.2916 </r>
       <r>    14.7836     0.3243    24.3730 </r>
       <r>    15.0346     0.6567    24.5378 </r>
       <r>    15.2856     0.9258    24.7702 </r>
       <r>    15.5365     0.9406    25.0062 </r>
       <r>    15.7875     0.6838    25.1779 </r>
       <r>    16.0385     0.7211    25.3588 </r>
       <r>    16.2894     0.5464    25.4959 </r>
       <r>    16.5404     0.5278    25.6284 </r>
       <r>    16.7914     0.9452    25.8656 </r>
       <r>    17.0423     0.8096    26.0688 </r>
       <r>    17.2933     0.6863    26.2411 </r>
       <r>    17.5443     0.7768    26.4360 </r>
       <r>    17.7953     0.8353    26.6457 </r>
       <r>    18.0462     0.3740    26.7395 </r>
       <r>    18.2972     0.8422    26.9509 </r>
       <r>    18.5482     0.6366    27.1107 </r>
       <r>    18.7991     0.7100    27.2889 </r>
       <r>    19.0501     0.6061    27.4410 </r>
       <r>    19.3011     0.5426    27.5772 </r>
       <r>    19.5520     0.6644    27.7439 </r>
       <r>    19.8030     0.4165    27.8484 </r>
       <r>    20.0540     0.5574    27.9883 </r>
       <r>    20.3050     0.8677    28.2061 </r>
       <r>    20.5559     0.5378    28.3411 </r>
       <r>    20.8069     0.8081    28.5439 </r>
       <r>    21.0579     0.6503    28.7071 </r>
       <r>    21.3088     0.6206    28.8628 </r>
       <r>    21.5598     0.6509    29.0262 </r>
       <r>    21.8108     1.2093    29.3297 </r>
       <r>    22.0617     1.1803    29.6259 </r>
       <r>    22.3127     0.5418    29.7619 </r>
       <r>    22.5637     1.1289    30.0452 </r>
       <r>    22.8147     0.8593    30.2609 </r>
       <r>    23.0656     0.4718    30.3793 </r>
       <r>    23.3166     0.9202    30.6102 </r>
       <r>    23.5676     1.2396    30.9213 </r>
       <r>    23.8185     0.9371    31.1565 </r>
       <r>    24.0695     1.0565    31.4216 </r>
       <r>    24.3205     0.7482    31.6094 </r>
       <r>    24.5715     1.1267    31.8922 </r>
       <r>    24.8224     1.0871    32.1650 </r>
       <r>    25.0734     1.1201    32.4461 </r>
       <r>    25.3244     0.7721    32.6399 </r>
       <r>    25.5753     0.7744    32.8342 </r>
       <r>    25.8263     0.9629    33.0759 </r>
       <r>    26.0773     0.6716    33.2444 </r>
       <r>    26.3282     0.9792    33.4902 </r>
       <r>    26.5792     0.9420    33.7266 </r>
       <r>    26.8302     0.7565    33.9165 </r>
       <r>    27.0812     0.7958    34.1162 </r>
       <r>    27.3321     0.8099    34.3195 </r>
       <r>    27.5831     0.7525    34.5083 </r>
       <r>    27.8341     0.7381    34.6936 </r>
       <r>    28.0850     0.3830    34.7897 </r>
       <r>    28.3360     0.6300    34.9478 </r>
       <r>    28.5870     0.6690    35.1157 </r>
       <r>    28.8379     0.9627    35.3573 </r>
       <r>    29.0889     0.8002    35.5582 </r>
       <r>    29.3399     0.8328    35.7672 </r>
       <r>    29.5909     0.6211    35.9231 </r>
       <r>    29.8418     0.8487    36.1361 </r>
       <r>    30.0928     1.1575    36.4266 </r>
       <r>    30.3438     1.1170    36.7069 </r>
       <r>    30.5947     0.7177    36.8870 </r>
       <r>    30.8457     0.6340    37.0461 </r>
       <r>    31.0967     0.7914    37.2447 </r>
       <r>    31.3476     0.7321    37.4285 </r>
       <r>    31.5986     0.8157    37.6332 </r>
       <r>    31.8496     0.9246    37.8652 </r>
       <r>    32.1006     1.1828    38.1621 </r>
       <r>    32.3515     0.8171    38.3672 </r>
       <r>    32.6025     1.1070    38.6450 </r>
       <r>    32.8535     0.9026    38.8715 </r>
       <r>    33.1044     1.1056    39.1490 </r>
       <r>    33.3554     1.0301    39.4075 </r>
       <r>    33.6064     1.3138    39.7373 </r>
       <r>    33.8574     0.9929    39.9864 </r>
       <r>    34.1083     1.2324    40.2957 </r>
       <r>    34.3593     0.9400    40.5316 </r>
       <r>    34.6103     1.0754    40.8015 </r>
       <r>    34.8612     0.6649    40.9684 </r>
       <r>    35.1122     0.7824    41.1648 </r>
       <r>    35.3632     0.7570    41.3548 </r>
       <r>    35.6141     0.6242    41.5114 </r>
       <r>    35.8651     0.5852    41.6583 </r>
       <r>    36.1161     0.8614    41.8745 </r>
       <r>    36.3671     0.5859    42.0215 </r>
       <r>    36.6180     0.8291    42.2296 </r>
       <r>    36.8690     1.2035    42.5316 </r>
       <r>    37.1200     1.1798    42.8277 </r>
       <r>    37.3709     1.0475    43.0906 </r>
       <r>    37.6219     0.7411    43.2766 </r>
       <r>    37.8729     0.8514    43.4903 </r>
       <r>    38.1238     0.7368    43.6752 </r>
       <r>    38.3748     0.9207    43.9063 </r>
       <r>    38.6258     1.1622    44.1980 </r>
       <r>    38.8768     0.6942    44.3722 </r>
       <r>    39.1277     1.0637    44.6391 </r>
       <r>    39.3787     1.5923    45.0388 </r>
       <r>    39.6297     0.8832    45.2604 </r>
       <r>    39.8806     0.9324    45.4944 </r>
       <r>    40.1316     1.1043    45.7716 </r>
       <r>    40.3826     0.8116    45.9752 </r>
       <r>    40.6335     1.0071    46.2280 </r>
       <r>    40.8845     1.3664    46.5709 </r>
       <r>    41.1355     1.0232    46.8277 </r>
       <r>    41.3865     1.2287    47.1361 </r>
       <r>    41.6374     1.2307    47.4450 </r>
       <r>    41.8884     0.9379    47.6803 </r>
       <r>    42.1394     1.3812    48.0270 </r>
       <r>    42.3903     1.2184    48.3328 </r>
       <r>    42.6413     0.7909    48.5313 </r>
       <r>    42.8923     0.7077    48.7089 </r>
       <r>    43.1432     1.2391    49.0199 </r>
       <r>    43.3942     0.9058    49.2472 </r>
       <r>    43.6452     0.6318    49.4058 </r>
       <r>    43.8962     0.7158    49.5854 </r>
       <r>    44.1471     1.0371    49.8457 </r>
       <r>    44.3981     1.2743    50.1655 </r>
       <r>    44.6491     1.3000    50.4918 </r>
       <r>    44.9000     1.0674    50.7596 </r>
       <r>    45.1510     0.9133    50.9888 </r>
       <r>    45.4020     0.6808    51.1597 </r>
       <r>    45.6530     1.0190    51.4154 </r>
       <r>    45.9039     1.3057    51.7431 </r>
       <r>    46.1549     1.2950    52.0682 </r>
       <r>    46.4059     0.7787    52.2636 </r>
       <r>    46.6568     1.1060    52.5412 </r>
       <r>    46.9078     0.8259    52.7484 </r>
       <r>    47.1588     0.8868    52.9710 </r>
       <r>    47.4097     1.7074    53.3995 </r>
       <r>    47.6607     1.7905    53.8489 </r>
       <r>    47.9117     1.2678    54.1670 </r>
       <r>    48.1627     1.0433    54.4289 </r>
       <r>    48.4136     1.4137    54.7837 </r>
       <r>    48.6646     0.9174    55.0139 </r>
       <r>    48.9156     0.8133    55.2180 </r>
       <r>    49.1665     1.0259    55.4755 </r>
       <r>    49.4175     1.3132    55.8051 </r>
       <r>    49.6685     0.8998    56.0309 </r>
       <r>    49.9194     1.0199    56.2869 </r>
       <r>    50.1704     1.1595    56.5779 </r>
       <r>    50.4214     1.0712    56.8467 </r>
       <r>    50.6724     1.4467    57.2098 </r>
       <r>    50.9233     1.1031    57.4867 </r>
       <r>    51.1743     1.4297    57.8455 </r>
       <r>    51.4253     1.5078    58.2239 </r>
       <r>    51.6762     1.2718    58.5431 </r>
       <r>    51.9272     1.1168    58.8233 </r>
       <r>    52.1782     1.4436    59.1856 </r>
       <r>    52.4291     1.3155    59.5158 </r>
       <r>    52.6801     1.0215    59.7722 </r>
       <r>    52.9311     1.1089    60.0505 </r>
       <r>    53.1821     0.7969    60.2505 </r>
       <r>    53.4330     1.3370    60.5860 </r>
       <r>    53.6840     1.7500    61.0252 </r>
       <r>    53.9350     1.9345    61.5107 </r>
       <r>    54.1859     1.7943    61.9611 </r>
       <r>    54.4369     1.2190    62.2670 </r>
       <r>    54.6879     1.1661    62.5597 </r>
       <r>    54.9389     1.3140    62.8894 </r>
       <r>    55.1898     1.5743    63.2845 </r>
       <r>    55.4408     1.6213    63.6914 </r>
       <r>    55.6918     1.3836    64.0387 </r>
       <r>    55.9427     1.2980    64.3644 </r>
       <r>    56.1937     1.4744    64.7345 </r>
       <r>    56.4447     1.4102    65.0884 </r>
       <r>    56.6956     1.6732    65.5083 </r>
       <r>    56.9466     1.6250    65.9161 </r>
       <r>    57.1976     1.6066    66.3193 </r>
       <r>    57.4486     1.9484    66.8083 </r>
       <r>    57.6995     1.3220    67.1401 </r>
       <r>    57.9505     1.3209    67.4716 </r>
       <r>    58.2015     1.1917    67.7707 </r>
       <r>    58.4524     1.7213    68.2027 </r>
       <r>    58.7034     1.3069    68.5307 </r>
       <r>    58.9544     1.0500    68.7942 </r>
       <r>    59.2053     1.1997    69.0953 </r>
       <r>    59.4563     1.7995    69.5469 </r>
       <r>    59.7073     2.1018    70.0744 </r>
       <r>    59.9583     1.5935    70.4743 </r>
       <r>    60.2092     1.5758    70.8698 </r>
       <r>    60.4602     1.2571    71.1853 </r>
       <r>    60.7112     1.8045    71.6382 </r>
       <r>    60.9621     1.8405    72.1001 </r>
       <r>    61.2131     1.4843    72.4726 </r>
       <r>    61.4641     2.1772    73.0190 </r>
       <r>    61.7150     1.8462    73.4824 </r>
       <r>    61.9660     1.3556    73.8226 </r>
       <r>    62.2170     1.4186    74.1786 </r>
       <r>    62.4680     1.7508    74.6180 </r>
       <r>    62.7189     2.1766    75.1643 </r>
       <r>    62.9699     2.2655    75.7328 </r>
       <r>    63.2209     2.1065    76.2615 </r>
       <r>    63.4718     1.9991    76.7632 </r>
       <r>    63.7228     1.6412    77.1751 </r>
       <r>    63.9738     2.6295    77.8350 </r>
       <r>    64.2248     1.8590    78.3016 </r>
       <r>    64.4757     1.5291    78.6853 </r>
       <r>    64.7267     1.9193    79.1670 </r>
       <r>    64.9777     1.0298    79.4255 </r>
       <r>    65.2286     0.5335    79.5594 </r>
       <r>    65.4796     1.2352    79.8694 </r>
       <r>    65.7306     0.4067    79.9714 </r>
       <r>    65.9815     0.0564    79.9856 </r>
       <r>    66.2325     0.0570    79.9999 </r>
       <r>    66.4835     0.0009    80.0001 </r>
       <r>    66.7345    -0.0005    80.0000 </r>
       <r>    66.9854    -0.0000    80.0000 </r>
       <r>    67.2364    -0.0000    80.0000 </r>
       <r>    67.4874    -0.0000    80.0000 </r>
       <r>    67.7383     0.0000    80.0000 </r>
       <r>    67.9893     0.0000    80.0000 </r>
       <r>    68.2403     0.0000    80.0000 </r>
       <r>    68.4912     0.0000    80.0000 </r>
       <r>    68.7422     0.0000    80.0000 </r>
       <r>    68.9932     0.0000    80.0000 </r>
       <r>    69.2442     0.0000    80.0000 </r>
       <r>    69.4951     0.0000    80.0000 </r>
      </set>
     </set>
    </array>
   </total>
  </dos>
 </calculation>
 <structure name="finalpos" >
  <crystal>
   <varray name="basis" >
    <v>       2.42320000       0.00000000       0.00000000 </v>
    <v>      -1.21160000       2.09855276       0.00000000 </v>
    <v>       0.00000000       0.00000000       4.30664000 </v>
   </varray>
   <i name="volume">     21.90018191 </i>
   <varray name="rec_basis" >
    <v>       0.41267745       0.23825944       0.00000000 </v>
    <v>       0.00000000       0.47651888       0.00000000 </v>
    <v>       0.00000000       0.00000000       0.23219958 </v>
   </varray>
  </crystal>
  <varray name="positions" >
   <v>       0.00000000       0.00000000       0.00000000 </v>
   <v>       0.33333333       0.66666667       0.50000000 </v>
  </varray>
 </structure>
</modeling>
