unknown system                          
   1.00000000000000     
     3.635000    0.000000    0.000000
     0.000000    3.635000    0.000000
     0.000000    0.000000    3.635000
   Cu
     4
Direct
  0.000000  0.000000  0.000000
  0.500000  0.500000  0.000000
  0.500000  0.000000  0.500000
  0.000000  0.500000  0.500000
 
   28   28   28
  836.94      774.66      612.74      410.68      229.65      106.01      43.874      22.743      14.395      10.073    
  8.5200      7.7835      7.5182      7.8642      8.1611      7.8642      7.5182      7.7835      8.5200      10.073    
  14.395      22.743      43.874      106.01      229.65      410.68      612.74      774.66      774.66      716.68    
  566.03      378.33      210.79      97.264      41.075      22.177      14.138      9.9790      8.4482      7.6764    
  7.3477      7.6100      7.8642      7.6100      7.3477      7.6764      8.4482      9.9790      14.138      22.177    
  41.075      97.264      210.79      378.33      566.03      716.68      612.74      566.03      444.92      294.89    
  162.69      75.477      34.362      20.612      13.387      9.7386      8.3574      7.6079      7.2252      7.3477    
  7.5182      7.3477      7.2252      7.6079      8.3574      9.7386      13.387      20.612      34.362      75.477    
  162.69      294.89      444.92      566.03      410.68      378.33      294.89      192.89      105.50      50.915    
  27.277      18.170      12.247      9.4268      8.4030      7.8764      7.6079      7.6764      7.7835      7.6764    
  7.6079      7.8764      8.4030      9.4268      12.247      18.170      27.277      50.915      105.50      192.89    
  294.89      378.33      229.65      210.79      162.69      105.50      59.103      32.762      21.893      15.242    
  10.977      9.1315      8.5830      8.4030      8.3574      8.4482      8.5200      8.4482      8.3574      8.4030    
  8.5830      9.1315      10.977      15.242      21.893      32.762      59.103      105.50      162.69      210.79    
  106.01      97.264      75.477      50.915      32.762      23.212      17.139      12.523      9.9733      9.1101    
  9.1315      9.4268      9.7386      9.9790      10.073      9.9790      9.7386      9.4268      9.1315      9.1101    
  9.9733      12.523      17.139      23.212      32.762      50.915      75.477      97.264      43.874      41.075    
  34.362      27.277      21.893      17.139      13.158      10.654      9.7063      9.9733      10.977      12.247    
  13.387      14.138      14.395      14.138      13.387      12.247      10.977      9.9733      9.7063      10.654    
  13.158      17.139      21.893      27.277      34.362      41.075      22.743      22.177      20.612      18.170    
  15.242      12.523      10.654      9.9973      10.654      12.523      15.242      18.170      20.612      22.177    
  22.743      22.177      20.612      18.170      15.242      12.523      10.654      9.9973      10.654      12.523    
  15.242      18.170      20.612      22.177      14.395      14.138      13.387      12.247      10.977      9.9733    
  9.7063      10.654      13.158      17.139      21.893      27.277      34.362      41.075      43.874      41.075    
  34.362      27.277      21.893      17.139      13.158      10.654      9.7063      9.9733      10.977      12.247    
  13.387      14.138      10.073      9.9790      9.7386      9.4268      9.1315      9.1101      9.9733      12.523    
  17.139      23.212      32.762      50.915      75.477      97.264      106.01      97.264      75.477      50.915    
  32.762      23.212      17.139      12.523      9.9733      9.1101      9.1315      9.4268      9.7386      9.9790    
  8.5200      8.4482      8.3574      8.4030      8.5830      9.1315      10.977      15.242      21.893      32.762    
  59.103      105.50      162.69      210.79      229.65      210.79      162.69      105.50      59.103      32.762    
  21.893      15.242      10.977      9.1315      8.5830      8.4030      8.3574      8.4482      7.7835      7.6764    
  7.6079      7.8764      8.4030      9.4268      12.247      18.170      27.277      50.915      105.50      192.89    
  294.89      378.33      410.68      378.33      294.89      192.89      105.50      50.915      27.277      18.170    
  12.247      9.4268      8.4030      7.8764      7.6079      7.6764      7.5182      7.3477      7.2252      7.6079    
  8.3574      9.7386      13.387      20.612      34.362      75.477      162.69      294.89      444.92      566.03    
  612.74      566.03      444.92      294.89      162.69      75.477      34.362      20.612      13.387      9.7386    
  8.3574      7.6079      7.2252      7.3477      7.8642      7.6100      7.3477      7.6764      8.4482      9.9790    
  14.138      22.177      41.075      97.264      210.79      378.33      566.03      716.68      774.66      716.68    
  566.03      378.33      210.79      97.264      41.075      22.177      14.138      9.9790      8.4482      7.6764    
  7.3477      7.6100      8.1611      7.8642      7.5182      7.7835      8.5200      10.073      14.395      22.743    
  43.874      106.01      229.65      410.68      612.74      774.66      836.94      774.66      612.74      410.68    
  229.65      106.01      43.874      22.743      14.395      10.073      8.5200      7.7835      7.5182      7.8642    
  7.8642      7.6100      7.3477      7.6764      8.4482      9.9790      14.138      22.177      41.075      97.264    
  210.79      378.33      566.03      716.68      774.66      716.68      566.03      378.33      210.79      97.264    
  41.075      22.177      14.138      9.9790      8.4482      7.6764      7.3477      7.6100      7.5182      7.3477    
  7.2252      7.6079      8.3574      9.7386      13.387      20.612      34.362      75.477      162.69      294.89    
  444.92      566.03      612.74      566.03      444.92      294.89      162.69      75.477      34.362      20.612    
  13.387      9.7386      8.3574      7.6079      7.2252      7.3477      7.7835      7.6764      7.6079      7.8764    
  8.4030      9.4268      12.247      18.170      27.277      50.915      105.50      192.89      294.89      378.33    
  410.68      378.33      294.89      192.89      105.50      50.915      27.277      18.170      12.247      9.4268    
  8.4030      7.8764      7.6079      7.6764      8.5200      8.4482      8.3574      8.4030      8.5830      9.1315    
  10.977      15.242      21.893      32.762      59.103      105.50      162.69      210.79      229.65      210.79    
  162.69      105.50      59.103      32.762      21.893      15.242      10.977      9.1315      8.5830      8.4030    
  8.3574      8.4482      10.073      9.9790      9.7386      9.4268      9.1315      9.1101      9.9733      12.523    
  17.139      23.212      32.762      50.915      75.477      97.264      106.01      97.264      75.477      50.915    
  32.762      23.212      17.139      12.523      9.9733      9.1101      9.1315      9.4268      9.7386      9.9790    
  14.395      14.138      13.387      12.247      10.977      9.9733      9.7063      10.654      13.158      17.139    
  21.893      27.277      34.362      41.075      43.874      41.075      34.362      27.277      21.893      17.139    
  13.158      10.654      9.7063      9.9733      10.977      12.247      13.387      14.138      22.743      22.177    
  20.612      18.170      15.242      12.523      10.654      9.9973      10.654      12.523      15.242      18.170    
  20.612      22.177      22.743      22.177      20.612      18.170      15.242      12.523      10.654      9.9973    
  10.654      12.523      15.242      18.170      20.612      22.177      43.874      41.075      34.362      27.277    
  21.893      17.139      13.158      10.654      9.7063      9.9733      10.977      12.247      13.387      14.138    
  14.395      14.138      13.387      12.247      10.977      9.9733      9.7063      10.654      13.158      17.139    
  21.893      27.277      34.362      41.075      106.01      97.264      75.477      50.915      32.762      23.212    
  17.139      12.523      9.9733      9.1101      9.1315      9.4268      9.7386      9.9790      10.073      9.9790    
  9.7386      9.4268      9.1315      9.1101      9.9733      12.523      17.139      23.212      32.762      50.915    
  75.477      97.264      229.65      210.79      162.69      105.50      59.103      32.762      21.893      15.242    
  10.977      9.1315      8.5830      8.4030      8.3574      8.4482      8.5200      8.4482      8.3574      8.4030    
  8.5830      9.1315      10.977      15.242      21.893      32.762      59.103      105.50      162.69      210.79    
  410.68      378.33      294.89      192.89      105.50      50.915      27.277      18.170      12.247      9.4268    
  8.4030      7.8764      7.6079      7.6764      7.7835      7.6764      7.6079      7.8764      8.4030      9.4268    
  12.247      18.170      27.277      50.915      105.50      192.89      294.89      378.33      612.74      566.03    
  444.92      294.89      162.69      75.477      34.362      20.612      13.387      9.7386      8.3574      7.6079    
  7.2252      7.3477      7.5182      7.3477      7.2252      7.6079      8.3574      9.7386      13.387      20.612    
  34.362      75.477      162.69      294.89      444.92      566.03      774.66      716.68      566.03      378.33    
  210.79      97.264      41.075      22.177      14.138      9.9790      8.4482      7.6764      7.3477      7.6100    
  7.8642      7.6100      7.3477      7.6764      8.4482      9.9790      14.138      22.177      41.075      97.264    
  210.79      378.33      566.03      716.68      774.66      716.68      566.03      378.33      210.79      97.264    
  41.075      22.177      14.138      9.9790      8.4482      7.6764      7.3477      7.6100      7.8642      7.6100    
  7.3477      7.6764      8.4482      9.9790      14.138      22.177      41.075      97.264      210.79      378.33    
  566.03      716.68      716.68      662.73      522.61      348.34      193.40      89.292      38.573      21.643    
  13.892      9.9000      8.3974      7.5978      7.2121      7.3961      7.6100      7.3961      7.2121      7.5978    
  8.3974      9.9000      13.892      21.643      38.573      89.292      193.40      348.34      522.61      662.73    
  566.03      522.61      410.12      271.07      149.13      69.492      32.591      20.124      13.176      9.6940    
  8.3494      7.5845      7.1566      7.2121      7.3477      7.2121      7.1566      7.5845      8.3494      9.6940    
  13.176      20.124      32.591      69.492      149.13      271.07      410.12      522.61      378.33      348.34    
  271.07      176.91      96.759      47.330      26.275      17.740      12.092      9.4182      8.4283      7.8907    
  7.5845      7.5978      7.6764      7.5978      7.5845      7.8907      8.4283      9.4182      12.092      17.740    
  26.275      47.330      96.759      176.91      271.07      348.34      210.79      193.40      149.13      96.759    
  54.669      31.126      21.297      14.915      10.884      9.1483      8.6217      8.4283      8.3494      8.3974    
  8.4482      8.3974      8.3494      8.4283      8.6217      9.1483      10.884      14.915      21.297      31.126    
  54.669      96.759      149.13      193.40      97.264      89.292      69.492      47.330      31.126      22.533    
  16.693      12.312      9.9236      9.1253      9.1483      9.4182      9.6940      9.9000      9.9790      9.9000    
  9.6940      9.4182      9.1483      9.1253      9.9236      12.312      16.693      22.533      31.126      47.330    
  69.492      89.292      41.075      38.573      32.591      26.275      21.297      16.693      12.890      10.529    
  9.6537      9.9236      10.884      12.092      13.176      13.892      14.138      13.892      13.176      12.092    
  10.884      9.9236      9.6537      10.529      12.890      16.693      21.297      26.275      32.591      38.573    
  22.177      21.643      20.124      17.740      14.915      12.312      10.529      9.9039      10.529      12.312    
  14.915      17.740      20.124      21.643      22.177      21.643      20.124      17.740      14.915      12.312    
  10.529      9.9039      10.529      12.312      14.915      17.740      20.124      21.643      14.138      13.892    
  13.176      12.092      10.884      9.9236      9.6537      10.529      12.890      16.693      21.297      26.275    
  32.591      38.573      41.075      38.573      32.591      26.275      21.297      16.693      12.890      10.529    
  9.6537      9.9236      10.884      12.092      13.176      13.892      9.9790      9.9000      9.6940      9.4182    
  9.1483      9.1253      9.9236      12.312      16.693      22.533      31.126      47.330      69.492      89.292    
  97.264      89.292      69.492      47.330      31.126      22.533      16.693      12.312      9.9236      9.1253    
  9.1483      9.4182      9.6940      9.9000      8.4482      8.3974      8.3494      8.4283      8.6217      9.1483    
  10.884      14.915      21.297      31.126      54.669      96.759      149.13      193.40      210.79      193.40    
  149.13      96.759      54.669      31.126      21.297      14.915      10.884      9.1483      8.6217      8.4283    
  8.3494      8.3974      7.6764      7.5978      7.5845      7.8907      8.4283      9.4182      12.092      17.740    
  26.275      47.330      96.759      176.91      271.07      348.34      378.33      348.34      271.07      176.91    
  96.759      47.330      26.275      17.740      12.092      9.4182      8.4283      7.8907      7.5845      7.5978    
  7.3477      7.2121      7.1566      7.5845      8.3494      9.6940      13.176      20.124      32.591      69.492    
  149.13      271.07      410.12      522.61      566.03      522.61      410.12      271.07      149.13      69.492    
  32.591      20.124      13.176      9.6940      8.3494      7.5845      7.1566      7.2121      7.6100      7.3961    
  7.2121      7.5978      8.3974      9.9000      13.892      21.643      38.573      89.292      193.40      348.34    
  522.61      662.73      716.68      662.73      522.61      348.34      193.40      89.292      38.573      21.643    
  13.892      9.9000      8.3974      7.5978      7.2121      7.3961      7.8642      7.6100      7.3477      7.6764    
  8.4482      9.9790      14.138      22.177      41.075      97.264      210.79      378.33      566.03      716.68    
  774.66      716.68      566.03      378.33      210.79      97.264      41.075      22.177      14.138      9.9790    
  8.4482      7.6764      7.3477      7.6100      7.6100      7.3961      7.2121      7.5978      8.3974      9.9000    
  13.892      21.643      38.573      89.292      193.40      348.34      522.61      662.73      716.68      662.73    
  522.61      348.34      193.40      89.292      38.573      21.643      13.892      9.9000      8.3974      7.5978    
  7.2121      7.3961      7.3477      7.2121      7.1566      7.5845      8.3494      9.6940      13.176      20.124    
  32.591      69.492      149.13      271.07      410.12      522.61      566.03      522.61      410.12      271.07    
  149.13      69.492      32.591      20.124      13.176      9.6940      8.3494      7.5845      7.1566      7.2121    
  7.6764      7.5978      7.5845      7.8907      8.4283      9.4182      12.092      17.740      26.275      47.330    
  96.759      176.91      271.07      348.34      378.33      348.34      271.07      176.91      96.759      47.330    
  26.275      17.740      12.092      9.4182      8.4283      7.8907      7.5845      7.5978      8.4482      8.3974    
  8.3494      8.4283      8.6217      9.1483      10.884      14.915      21.297      31.126      54.669      96.759    
  149.13      193.40      210.79      193.40      149.13      96.759      54.669      31.126      21.297      14.915    
  10.884      9.1483      8.6217      8.4283      8.3494      8.3974      9.9790      9.9000      9.6940      9.4182    
  9.1483      9.1253      9.9236      12.312      16.693      22.533      31.126      47.330      69.492      89.292    
  97.264      89.292      69.492      47.330      31.126      22.533      16.693      12.312      9.9236      9.1253    
  9.1483      9.4182      9.6940      9.9000      14.138      13.892      13.176      12.092      10.884      9.9236    
  9.6537      10.529      12.890      16.693      21.297      26.275      32.591      38.573      41.075      38.573    
  32.591      26.275      21.297      16.693      12.890      10.529      9.6537      9.9236      10.884      12.092    
  13.176      13.892      22.177      21.643      20.124      17.740      14.915      12.312      10.529      9.9039    
  10.529      12.312      14.915      17.740      20.124      21.643      22.177      21.643      20.124      17.740    
  14.915      12.312      10.529      9.9039      10.529      12.312      14.915      17.740      20.124      21.643    
  41.075      38.573      32.591      26.275      21.297      16.693      12.890      10.529      9.6537      9.9236    
  10.884      12.092      13.176      13.892      14.138      13.892      13.176      12.092      10.884      9.9236    
  9.6537      10.529      12.890      16.693      21.297      26.275      32.591      38.573      97.264      89.292    
  69.492      47.330      31.126      22.533      16.693      12.312      9.9236      9.1253      9.1483      9.4182    
  9.6940      9.9000      9.9790      9.9000      9.6940      9.4182      9.1483      9.1253      9.9236      12.312    
  16.693      22.533      31.126      47.330      69.492      89.292      210.79      193.40      149.13      96.759    
  54.669      31.126      21.297      14.915      10.884      9.1483      8.6217      8.4283      8.3494      8.3974    
  8.4482      8.3974      8.3494      8.4283      8.6217      9.1483      10.884      14.915      21.297      31.126    
  54.669      96.759      149.13      193.40      378.33      348.34      271.07      176.91      96.759      47.330    
  26.275      17.740      12.092      9.4182      8.4283      7.8907      7.5845      7.5978      7.6764      7.5978    
  7.5845      7.8907      8.4283      9.4182      12.092      17.740      26.275      47.330      96.759      176.91    
  271.07      348.34      566.03      522.61      410.12      271.07      149.13      69.492      32.591      20.124    
  13.176      9.6940      8.3494      7.5845      7.1566      7.2121      7.3477      7.2121      7.1566      7.5845    
  8.3494      9.6940      13.176      20.124      32.591      69.492      149.13      271.07      410.12      522.61    
  716.68      662.73      522.61      348.34      193.40      89.292      38.573      21.643      13.892      9.9000    
  8.3974      7.5978      7.2121      7.3961      7.6100      7.3961      7.2121      7.5978      8.3974      9.9000    
  13.892      21.643      38.573      89.292      193.40      348.34      522.61      662.73      612.74      566.03    
  444.92      294.89      162.69      75.477      34.362      20.612      13.387      9.7386      8.3574      7.6079    
  7.2252      7.3477      7.5182      7.3477      7.2252      7.6079      8.3574      9.7386      13.387      20.612    
  34.362      75.477      162.69      294.89      444.92      566.03      566.03      522.61      410.12      271.07    
  149.13      69.492      32.591      20.124      13.176      9.6940      8.3494      7.5845      7.1566      7.2121    
  7.3477      7.2121      7.1566      7.5845      8.3494      9.6940      13.176      20.124      32.591      69.492    
  149.13      271.07      410.12      522.61      444.92      410.12      320.22      209.96      114.87      54.784    
  28.371      18.697      12.564      9.5677      8.3827      7.6647      7.2092      7.1566      7.2252      7.1566    
  7.2092      7.6647      8.3827      9.5677      12.564      18.697      28.371      54.784      114.87      209.96    
  320.22      410.12      294.89      271.07      209.96      136.30      74.987      38.690      23.822      16.521    
  11.641      9.3757      8.5115      8.0038      7.6647      7.5845      7.6079      7.5845      7.6647      8.0038    
  8.5115      9.3757      11.641      16.521      23.822      38.690      74.987      136.30      209.96      271.07    
  162.69      149.13      114.87      74.987      43.904      27.247      19.628      14.019      10.614      9.1687    
  8.7113      8.5115      8.3827      8.3494      8.3574      8.3494      8.3827      8.5115      8.7113      9.1687    
  10.614      14.019      19.628      27.247      43.904      74.987      114.87      149.13      75.477      69.492    
  54.784      38.690      27.247      20.708      15.495      11.759      9.7898      9.1480      9.1687      9.3757    
  9.5677      9.6940      9.7386      9.6940      9.5677      9.3757      9.1687      9.1480      9.7898      11.759    
  15.495      20.708      27.247      38.690      54.784      69.492      34.362      32.591      28.371      23.822    
  19.628      15.495      12.206      10.229      9.5313      9.7898      10.614      11.641      12.564      13.176    
  13.387      13.176      12.564      11.641      10.614      9.7898      9.5313      10.229      12.206      15.495    
  19.628      23.822      28.371      32.591      20.612      20.124      18.697      16.521      14.019      11.759    
  10.229      9.6941      10.229      11.759      14.019      16.521      18.697      20.124      20.612      20.124    
  18.697      16.521      14.019      11.759      10.229      9.6941      10.229      11.759      14.019      16.521    
  18.697      20.124      13.387      13.176      12.564      11.641      10.614      9.7898      9.5313      10.229    
  12.206      15.495      19.628      23.822      28.371      32.591      34.362      32.591      28.371      23.822    
  19.628      15.495      12.206      10.229      9.5313      9.7898      10.614      11.641      12.564      13.176    
  9.7386      9.6940      9.5677      9.3757      9.1687      9.1480      9.7898      11.759      15.495      20.708    
  27.247      38.690      54.784      69.492      75.477      69.492      54.784      38.690      27.247      20.708    
  15.495      11.759      9.7898      9.1480      9.1687      9.3757      9.5677      9.6940      8.3574      8.3494    
  8.3827      8.5115      8.7113      9.1687      10.614      14.019      19.628      27.247      43.904      74.987    
  114.87      149.13      162.69      149.13      114.87      74.987      43.904      27.247      19.628      14.019    
  10.614      9.1687      8.7113      8.5115      8.3827      8.3494      7.6079      7.5845      7.6647      8.0038    
  8.5115      9.3757      11.641      16.521      23.822      38.690      74.987      136.30      209.96      271.07    
  294.89      271.07      209.96      136.30      74.987      38.690      23.822      16.521      11.641      9.3757    
  8.5115      8.0038      7.6647      7.5845      7.2252      7.1566      7.2092      7.6647      8.3827      9.5677    
  12.564      18.697      28.371      54.784      114.87      209.96      320.22      410.12      444.92      410.12    
  320.22      209.96      114.87      54.784      28.371      18.697      12.564      9.5677      8.3827      7.6647    
  7.2092      7.1566      7.3477      7.2121      7.1566      7.5845      8.3494      9.6940      13.176      20.124    
  32.591      69.492      149.13      271.07      410.12      522.61      566.03      522.61      410.12      271.07    
  149.13      69.492      32.591      20.124      13.176      9.6940      8.3494      7.5845      7.1566      7.2121    
  7.5182      7.3477      7.2252      7.6079      8.3574      9.7386      13.387      20.612      34.362      75.477    
  162.69      294.89      444.92      566.03      612.74      566.03      444.92      294.89      162.69      75.477    
  34.362      20.612      13.387      9.7386      8.3574      7.6079      7.2252      7.3477      7.3477      7.2121    
  7.1566      7.5845      8.3494      9.6940      13.176      20.124      32.591      69.492      149.13      271.07    
  410.12      522.61      566.03      522.61      410.12      271.07      149.13      69.492      32.591      20.124    
  13.176      9.6940      8.3494      7.5845      7.1566      7.2121      7.2252      7.1566      7.2092      7.6647    
  8.3827      9.5677      12.564      18.697      28.371      54.784      114.87      209.96      320.22      410.12    
  444.92      410.12      320.22      209.96      114.87      54.784      28.371      18.697      12.564      9.5677    
  8.3827      7.6647      7.2092      7.1566      7.6079      7.5845      7.6647      8.0038      8.5115      9.3757    
  11.641      16.521      23.822      38.690      74.987      136.30      209.96      271.07      294.89      271.07    
  209.96      136.30      74.987      38.690      23.822      16.521      11.641      9.3757      8.5115      8.0038    
  7.6647      7.5845      8.3574      8.3494      8.3827      8.5115      8.7113      9.1687      10.614      14.019    
  19.628      27.247      43.904      74.987      114.87      149.13      162.69      149.13      114.87      74.987    
  43.904      27.247      19.628      14.019      10.614      9.1687      8.7113      8.5115      8.3827      8.3494    
  9.7386      9.6940      9.5677      9.3757      9.1687      9.1480      9.7898      11.759      15.495      20.708    
  27.247      38.690      54.784      69.492      75.477      69.492      54.784      38.690      27.247      20.708    
  15.495      11.759      9.7898      9.1480      9.1687      9.3757      9.5677      9.6940      13.387      13.176    
  12.564      11.641      10.614      9.7898      9.5313      10.229      12.206      15.495      19.628      23.822    
  28.371      32.591      34.362      32.591      28.371      23.822      19.628      15.495      12.206      10.229    
  9.5313      9.7898      10.614      11.641      12.564      13.176      20.612      20.124      18.697      16.521    
  14.019      11.759      10.229      9.6941      10.229      11.759      14.019      16.521      18.697      20.124    
  20.612      20.124      18.697      16.521      14.019      11.759      10.229      9.6941      10.229      11.759    
  14.019      16.521      18.697      20.124      34.362      32.591      28.371      23.822      19.628      15.495    
  12.206      10.229      9.5313      9.7898      10.614      11.641      12.564      13.176      13.387      13.176    
  12.564      11.641      10.614      9.7898      9.5313      10.229      12.206      15.495      19.628      23.822    
  28.371      32.591      75.477      69.492      54.784      38.690      27.247      20.708      15.495      11.759    
  9.7898      9.1480      9.1687      9.3757      9.5677      9.6940      9.7386      9.6940      9.5677      9.3757    
  9.1687      9.1480      9.7898      11.759      15.495      20.708      27.247      38.690      54.784      69.492    
  162.69      149.13      114.87      74.987      43.904      27.247      19.628      14.019      10.614      9.1687    
  8.7113      8.5115      8.3827      8.3494      8.3574      8.3494      8.3827      8.5115      8.7113      9.1687    
  10.614      14.019      19.628      27.247      43.904      74.987      114.87      149.13      294.89      271.07    
  209.96      136.30      74.987      38.690      23.822      16.521      11.641      9.3757      8.5115      8.0038    
  7.6647      7.5845      7.6079      7.5845      7.6647      8.0038      8.5115      9.3757      11.641      16.521    
  23.822      38.690      74.987      136.30      209.96      271.07      444.92      410.12      320.22      209.96    
  114.87      54.784      28.371      18.697      12.564      9.5677      8.3827      7.6647      7.2092      7.1566    
  7.2252      7.1566      7.2092      7.6647      8.3827      9.5677      12.564      18.697      28.371      54.784    
  114.87      209.96      320.22      410.12      566.03      522.61      410.12      271.07      149.13      69.492    
  32.591      20.124      13.176      9.6940      8.3494      7.5845      7.1566      7.2121      7.3477      7.2121    
  7.1566      7.5845      8.3494      9.6940      13.176      20.124      32.591      69.492      149.13      271.07    
  410.12      522.61      410.68      378.33      294.89      192.89      105.50      50.915      27.277      18.170    
  12.247      9.4268      8.4030      7.8764      7.6079      7.6764      7.7835      7.6764      7.6079      7.8764    
  8.4030      9.4268      12.247      18.170      27.277      50.915      105.50      192.89      294.89      378.33    
  378.33      348.34      271.07      176.91      96.759      47.330      26.275      17.740      12.092      9.4182    
  8.4283      7.8907      7.5845      7.5978      7.6764      7.5978      7.5845      7.8907      8.4283      9.4182    
  12.092      17.740      26.275      47.330      96.759      176.91      271.07      348.34      294.89      271.07    
  209.96      136.30      74.987      38.690      23.822      16.521      11.641      9.3757      8.5115      8.0038    
  7.6647      7.5845      7.6079      7.5845      7.6647      8.0038      8.5115      9.3757      11.641      16.521    
  23.822      38.690      74.987      136.30      209.96      271.07      192.89      176.91      136.30      88.492    
  50.463      29.567      20.746      14.742      10.966      9.2752      8.6416      8.2742      8.0038      7.8907    