unknown system                          
   1.00000000000000     
     3.635000    0.000000    0.000000
     0.000000    3.635000    0.000000
     0.000000    0.000000    3.635000
   Cu
     4
Direct
  0.000000  0.000000  0.000000
  0.500000  0.500000  0.000000
  0.500000  0.000000  0.500000
  0.000000  0.500000  0.500000
 
   28   28   28
 0.83693934231E+03 0.77465968790E+03 0.61273785362E+03 0.41068255721E+03 0.22964663434E+03
 0.10600740130E+03 0.43873989016E+02 0.22743494989E+02 0.14394736847E+02 0.10072759777E+02
 0.85200429757E+01 0.77834913288E+01 0.75182014593E+01 0.78642300142E+01 0.81610913428E+01
 0.78642300142E+01 0.75182014593E+01 0.77834913288E+01 0.85200429757E+01 0.10072759777E+02
 0.14394736847E+02 0.22743494989E+02 0.43873989016E+02 0.10600740130E+03 0.22964663434E+03
 0.41068255721E+03 0.61273785362E+03 0.77465968790E+03 0.77465968790E+03 0.71668324214E+03
 0.56603179638E+03 0.37833481693E+03 0.21078624272E+03 0.97264045960E+02 0.41075022181E+02
 0.22176513048E+02 0.14137798370E+02 0.99789654738E+01 0.84482006086E+01 0.76764307808E+01
 0.73476503846E+01 0.76100161658E+01 0.78642300142E+01 0.76100161658E+01 0.73476503846E+01
 0.76764307808E+01 0.84482006086E+01 0.99789654738E+01 0.14137798370E+02 0.22176513048E+02
 0.41075022181E+02 0.97264045960E+02 0.21078624272E+03 0.37833481693E+03 0.56603179638E+03
 0.71668324214E+03 0.61273785362E+03 0.56603179638E+03 0.44492166665E+03 0.29489250462E+03
 0.16268858328E+03 0.75477457313E+02 0.34362423492E+02 0.20612203542E+02 0.13386742882E+02
 0.97386191063E+01 0.83573943285E+01 0.76078957877E+01 0.72252087092E+01 0.73476503846E+01
 0.75182014593E+01 0.73476503846E+01 0.72252087092E+01 0.76078957877E+01 0.83573943285E+01
 0.97386191063E+01 0.13386742882E+02 0.20612203542E+02 0.34362423492E+02 0.75477457313E+02
 0.16268858328E+03 0.29489250462E+03 0.44492166665E+03 0.56603179638E+03 0.41068255721E+03
 0.37833481693E+03 0.29489250462E+03 0.19289123097E+03 0.10549722767E+03 0.50914967730E+02
 0.27277401062E+02 0.18169985082E+02 0.12247352423E+02 0.94268426676E+01 0.84030002738E+01
 0.78763757719E+01 0.76078957877E+01 0.76764307808E+01 0.77834913288E+01 0.76764307808E+01
 0.76078957877E+01 0.78763757719E+01 0.84030002738E+01 0.94268426676E+01 0.12247352423E+02
 0.18169985082E+02 0.27277401062E+02 0.50914967730E+02 0.10549722767E+03 0.19289123097E+03
 0.29489250462E+03 0.37833481693E+03 0.22964663434E+03 0.21078624272E+03 0.16268858328E+03
 0.10549722767E+03 0.59102647183E+02 0.32761568175E+02 0.21893010174E+02 0.15242203784E+02
 0.10977226134E+02 0.91315278417E+01 0.85829901771E+01 0.84030002738E+01 0.83573943285E+01
 0.84482006086E+01 0.85200429757E+01 0.84482006086E+01 0.83573943285E+01 0.84030002738E+01
 0.85829901771E+01 0.91315278417E+01 0.10977226134E+02 0.15242203784E+02 0.21893010174E+02
 0.32761568175E+02 0.59102647183E+02 0.10549722767E+03 0.16268858328E+03 0.21078624272E+03
 0.10600740130E+03 0.97264045960E+02 0.75477457313E+02 0.50914967730E+02 0.32761568175E+02
 0.23211750163E+02 0.17139287126E+02 0.12523313738E+02 0.99732632941E+01 0.91100607179E+01
 0.91315278417E+01 0.94268426676E+01 0.97386191063E+01 0.99789654738E+01 0.10072759777E+02
 0.99789654738E+01 0.97386191063E+01 0.94268426676E+01 0.91315278417E+01 0.91100607179E+01
 0.99732632941E+01 0.12523313738E+02 0.17139287126E+02 0.23211750163E+02 0.32761568175E+02
 0.50914967730E+02 0.75477457313E+02 0.97264045960E+02 0.43873989016E+02 0.41075022181E+02
 0.34362423492E+02 0.27277401062E+02 0.21893010174E+02 0.17139287126E+02 0.13157546696E+02
 0.10654089505E+02 0.97063382047E+01 0.99732632941E+01 0.10977226134E+02 0.12247352423E+02
 0.13386742882E+02 0.14137798370E+02 0.14394736847E+02 0.14137798370E+02 0.13386742882E+02
 0.12247352423E+02 0.10977226134E+02 0.99732632941E+01 0.97063382047E+01 0.10654089505E+02
 0.13157546696E+02 0.17139287126E+02 0.21893010174E+02 0.27277401062E+02 0.34362423492E+02
 0.41075022181E+02 0.22743494989E+02 0.22176513048E+02 0.20612203542E+02 0.18169985082E+02
 0.15242203784E+02 0.12523313738E+02 0.10654089505E+02 0.99972602137E+01 0.10654089505E+02
 0.12523313738E+02 0.15242203784E+02 0.18169985082E+02 0.20612203542E+02 0.22176513048E+02
 0.22743494989E+02 0.22176513048E+02 0.20612203542E+02 0.18169985082E+02 0.15242203784E+02
 0.12523313738E+02 0.10654089505E+02 0.99972602137E+01 0.10654089505E+02 0.12523313738E+02
 0.15242203784E+02 0.18169985082E+02 0.20612203542E+02 0.22176513048E+02 0.14394736847E+02
 0.14137798370E+02 0.13386742882E+02 0.12247352423E+02 0.10977226134E+02 0.99732632941E+01
 0.97063382047E+01 0.10654089505E+02 0.13157546696E+02 0.17139287126E+02 0.21893010174E+02
 0.27277401062E+02 0.34362423492E+02 0.41075022181E+02 0.43873989016E+02 0.41075022181E+02
 0.34362423492E+02 0.27277401062E+02 0.21893010174E+02 0.17139287126E+02 0.13157546696E+02
 0.10654089505E+02 0.97063382047E+01 0.99732632941E+01 0.10977226134E+02 0.12247352423E+02
 0.13386742882E+02 0.14137798370E+02 0.10072759777E+02 0.99789654738E+01 0.97386191063E+01
 0.94268426676E+01 0.91315278417E+01 0.91100607179E+01 0.99732632941E+01 0.12523313738E+02
 0.17139287126E+02 0.23211750163E+02 0.32761568175E+02 0.50914967730E+02 0.75477457313E+02
 0.97264045960E+02 0.10600740130E+03 0.97264045960E+02 0.75477457313E+02 0.50914967730E+02
 0.32761568175E+02 0.23211750163E+02 0.17139287126E+02 0.12523313738E+02 0.99732632941E+01
 0.91100607179E+01 0.91315278417E+01 0.94268426676E+01 0.97386191063E+01 0.99789654738E+01
 0.85200429757E+01 0.84482006086E+01 0.83573943285E+01 0.84030002738E+01 0.85829901771E+01
 0.91315278417E+01 0.10977226134E+02 0.15242203784E+02 0.21893010174E+02 0.32761568175E+02
 0.59102647183E+02 0.10549722767E+03 0.16268858328E+03 0.21078624272E+03 0.22964663434E+03
 0.21078624272E+03 0.16268858328E+03 0.10549722767E+03 0.59102647183E+02 0.32761568175E+02
 0.21893010174E+02 0.15242203784E+02 0.10977226134E+02 0.91315278417E+01 0.85829901771E+01
 0.84030002738E+01 0.83573943285E+01 0.84482006086E+01 0.77834913288E+01 0.76764307808E+01
 0.76078957877E+01 0.78763757719E+01 0.84030002738E+01 0.94268426676E+01 0.12247352423E+02
 0.18169985082E+02 0.27277401062E+02 0.50914967730E+02 0.10549722767E+03 0.19289123097E+03
 0.29489250462E+03 0.37833481693E+03 0.41068255721E+03 0.37833481693E+03 0.29489250462E+03
 0.19289123097E+03 0.10549722767E+03 0.50914967730E+02 0.27277401062E+02 0.18169985082E+02
 0.12247352423E+02 0.94268426676E+01 0.84030002738E+01 0.78763757719E+01 0.76078957877E+01
 0.76764307808E+01 0.75182014593E+01 0.73476503846E+01 0.72252087092E+01 0.76078957877E+01
 0.83573943285E+01 0.97386191063E+01 0.13386742882E+02 0.20612203542E+02 0.34362423492E+02
 0.75477457313E+02 0.16268858328E+03 0.29489250462E+03 0.44492166665E+03 0.56603179638E+03
 0.61273785362E+03 0.56603179638E+03 0.44492166665E+03 0.29489250462E+03 0.16268858328E+03
 0.75477457313E+02 0.34362423492E+02 0.20612203542E+02 0.13386742882E+02 0.97386191063E+01
 0.83573943285E+01 0.76078957877E+01 0.72252087092E+01 0.73476503846E+01 0.78642300142E+01
 0.76100161658E+01 0.73476503846E+01 0.76764307808E+01 0.84482006086E+01 0.99789654738E+01
 0.14137798370E+02 0.22176513048E+02 0.41075022181E+02 0.97264045960E+02 0.21078624272E+03
 0.37833481693E+03 0.56603179638E+03 0.71668324214E+03 0.77465968790E+03 0.71668324214E+03
 0.56603179638E+03 0.37833481693E+03 0.21078624272E+03 0.97264045960E+02 0.41075022181E+02
 0.22176513048E+02 0.14137798370E+02 0.99789654738E+01 0.84482006086E+01 0.76764307808E+01
 0.73476503846E+01 0.76100161658E+01 0.81610913428E+01 0.78642300142E+01 0.75182014593E+01
 0.77834913288E+01 0.85200429757E+01 0.10072759777E+02 0.14394736847E+02 0.22743494989E+02
 0.43873989016E+02 0.10600740130E+03 0.22964663434E+03 0.41068255721E+03 0.61273785362E+03
 0.77465968790E+03 0.83693934231E+03 0.77465968790E+03 0.61273785362E+03 0.41068255721E+03
 0.22964663434E+03 0.10600740130E+03 0.43873989016E+02 0.22743494989E+02 0.14394736847E+02
 0.10072759777E+02 0.85200429757E+01 0.77834913288E+01 0.75182014593E+01 0.78642300142E+01
 0.78642300142E+01 0.76100161658E+01 0.73476503846E+01 0.76764307808E+01 0.84482006086E+01
 0.99789654738E+01 0.14137798370E+02 0.22176513048E+02 0.41075022181E+02 0.97264045960E+02
 0.21078624272E+03 0.37833481693E+03 0.56603179638E+03 0.71668324214E+03 0.77465968790E+03
 0.71668324214E+03 0.56603179638E+03 0.37833481693E+03 0.21078624272E+03 0.97264045960E+02
 0.41075022181E+02 0.22176513048E+02 0.14137798370E+02 0.99789654738E+01 0.84482006086E+01
 0.76764307808E+01 0.73476503846E+01 0.76100161658E+01 0.75182014593E+01 0.73476503846E+01
 0.72252087092E+01 0.76078957877E+01 0.83573943285E+01 0.97386191063E+01 0.13386742882E+02
 0.20612203542E+02 0.34362423492E+02 0.75477457313E+02 0.16268858328E+03 0.29489250462E+03
 0.44492166665E+03 0.56603179638E+03 0.61273785362E+03 0.56603179638E+03 0.44492166665E+03
 0.29489250462E+03 0.16268858328E+03 0.75477457313E+02 0.34362423492E+02 0.20612203542E+02
 0.13386742882E+02 0.97386191063E+01 0.83573943285E+01 0.76078957877E+01 0.72252087092E+01
 0.73476503846E+01 0.77834913288E+01 0.76764307808E+01 0.76078957877E+01 0.78763757719E+01
 0.84030002738E+01 0.94268426676E+01 0.12247352423E+02 0.18169985082E+02 0.27277401062E+02
 0.50914967730E+02 0.10549722767E+03 0.19289123097E+03 0.29489250462E+03 0.37833481693E+03
 0.41068255721E+03 0.37833481693E+03 0.29489250462E+03 0.19289123097E+03 0.10549722767E+03
 0.50914967730E+02 0.27277401062E+02 0.18169985082E+02 0.12247352423E+02 0.94268426676E+01
 0.84030002738E+01 0.78763757719E+01 0.76078957877E+01 0.76764307808E+01 0.85200429757E+01
 0.84482006086E+01 0.83573943285E+01 0.84030002738E+01 0.85829901771E+01 0.91315278417E+01
 0.10977226134E+02 0.15242203784E+02 0.21893010174E+02 0.32761568175E+02 0.59102647183E+02
 0.10549722767E+03 0.16268858328E+03 0.21078624272E+03 0.22964663434E+03 0.21078624272E+03
 0.16268858328E+03 0.10549722767E+03 0.59102647183E+02 0.32761568175E+02 0.21893010174E+02
 0.15242203784E+02 0.10977226134E+02 0.91315278417E+01 0.85829901771E+01 0.84030002738E+01
 0.83573943285E+01 0.84482006086E+01 0.10072759777E+02 0.99789654738E+01 0.97386191063E+01
 0.94268426676E+01 0.91315278417E+01 0.91100607179E+01 0.99732632941E+01 0.12523313738E+02
 0.17139287126E+02 0.23211750163E+02 0.32761568175E+02 0.50914967730E+02 0.75477457313E+02
 0.97264045960E+02 0.10600740130E+03 0.97264045960E+02 0.75477457313E+02 0.50914967730E+02
 0.32761568175E+02 0.23211750163E+02 0.17139287126E+02 0.12523313738E+02 0.99732632941E+01
 0.91100607179E+01 0.91315278417E+01 0.94268426676E+01 0.97386191063E+01 0.99789654738E+01
 0.14394736847E+02 0.14137798370E+02 0.13386742882E+02 0.12247352423E+02 0.10977226134E+02
 0.99732632941E+01 0.97063382047E+01 0.10654089505E+02 0.13157546696E+02 0.17139287126E+02
 0.21893010174E+02 0.27277401062E+02 0.34362423492E+02 0.41075022181E+02 0.43873989016E+02
 0.41075022181E+02 0.34362423492E+02 0.27277401062E+02 0.21893010174E+02 0.17139287126E+02
 0.13157546696E+02 0.10654089505E+02 0.97063382047E+01 0.99732632941E+01 0.10977226134E+02
 0.12247352423E+02 0.13386742882E+02 0.14137798370E+02 0.22743494989E+02 0.22176513048E+02
 0.20612203542E+02 0.18169985082E+02 0.15242203784E+02 0.12523313738E+02 0.10654089505E+02
 0.99972602137E+01 0.10654089505E+02 0.12523313738E+02 0.15242203784E+02 0.18169985082E+02
 0.20612203542E+02 0.22176513048E+02 0.22743494989E+02 0.22176513048E+02 0.20612203542E+02
 0.18169985082E+02 0.15242203784E+02 0.12523313738E+02 0.10654089505E+02 0.99972602137E+01
 0.10654089505E+02 0.12523313738E+02 0.15242203784E+02 0.18169985082E+02 0.20612203542E+02
 0.22176513048E+02 0.43873989016E+02 0.41075022181E+02 0.34362423492E+02 0.27277401062E+02
 0.21893010174E+02 0.17139287126E+02 0.13157546696E+02 0.10654089505E+02 0.97063382047E+01
 0.99732632941E+01 0.10977226134E+02 0.12247352423E+02 0.13386742882E+02 0.14137798370E+02
 0.14394736847E+02 0.14137798370E+02 0.13386742882E+02 0.12247352423E+02 0.10977226134E+02
 0.99732632941E+01 0.97063382047E+01 0.10654089505E+02 0.13157546696E+02 0.17139287126E+02
 0.21893010174E+02 0.27277401062E+02 0.34362423492E+02 0.41075022181E+02 0.10600740130E+03
 0.97264045960E+02 0.75477457313E+02 0.50914967730E+02 0.32761568175E+02 0.23211750163E+02
 0.17139287126E+02 0.12523313738E+02 0.99732632941E+01 0.91100607179E+01 0.91315278417E+01
 0.94268426676E+01 0.97386191063E+01 0.99789654738E+01 0.10072759777E+02 0.99789654738E+01
 0.97386191063E+01 0.94268426676E+01 0.91315278417E+01 0.91100607179E+01 0.99732632941E+01
 0.12523313738E+02 0.17139287126E+02 0.23211750163E+02 0.32761568175E+02 0.50914967730E+02
 0.75477457313E+02 0.97264045960E+02 0.22964663434E+03 0.21078624272E+03 0.16268858328E+03
 0.10549722767E+03 0.59102647183E+02 0.32761568175E+02 0.21893010174E+02 0.15242203784E+02
 0.10977226134E+02 0.91315278417E+01 0.85829901771E+01 0.84030002738E+01 0.83573943285E+01
 0.84482006086E+01 0.85200429757E+01 0.84482006086E+01 0.83573943285E+01 0.84030002738E+01
 0.85829901771E+01 0.91315278417E+01 0.10977226134E+02 0.15242203784E+02 0.21893010174E+02
 0.32761568175E+02 0.59102647183E+02 0.10549722767E+03 0.16268858328E+03 0.21078624272E+03
 0.41068255721E+03 0.37833481693E+03 0.29489250462E+03 0.19289123097E+03 0.10549722767E+03
 0.50914967730E+02 0.27277401062E+02 0.18169985082E+02 0.12247352423E+02 0.94268426676E+01
 0.84030002738E+01 0.78763757719E+01 0.76078957877E+01 0.76764307808E+01 0.77834913288E+01
 0.76764307808E+01 0.76078957877E+01 0.78763757719E+01 0.84030002738E+01 0.94268426676E+01
 0.12247352423E+02 0.18169985082E+02 0.27277401062E+02 0.50914967730E+02 0.10549722767E+03
 0.19289123097E+03 0.29489250462E+03 0.37833481693E+03 0.61273785362E+03 0.56603179638E+03
 0.44492166665E+03 0.29489250462E+03 0.16268858328E+03 0.75477457313E+02 0.34362423492E+02
 0.20612203542E+02 0.13386742882E+02 0.97386191063E+01 0.83573943285E+01 0.76078957877E+01
 0.72252087092E+01 0.73476503846E+01 0.75182014593E+01 0.73476503846E+01 0.72252087092E+01
 0.76078957877E+01 0.83573943285E+01 0.97386191063E+01 0.13386742882E+02 0.20612203542E+02
 0.34362423492E+02 0.75477457313E+02 0.16268858328E+03 0.29489250462E+03 0.44492166665E+03
 0.56603179638E+03 0.77465968790E+03 0.71668324214E+03 0.56603179638E+03 0.37833481693E+03
 0.21078624272E+03 0.97264045960E+02 0.41075022181E+02 0.22176513048E+02 0.14137798370E+02
 0.99789654738E+01 0.84482006086E+01 0.76764307808E+01 0.73476503846E+01 0.76100161658E+01
 0.78642300142E+01 0.76100161658E+01 0.73476503846E+01 0.76764307808E+01 0.84482006086E+01
 0.99789654738E+01 0.14137798370E+02 0.22176513048E+02 0.41075022181E+02 0.97264045960E+02
 0.21078624272E+03 0.37833481693E+03 0.56603179638E+03 0.71668324214E+03 0.77465968790E+03
 0.71668324214E+03 0.56603179638E+03 0.37833481693E+03 0.21078624272E+03 0.97264045960E+02
 0.41075022181E+02 0.22176513048E+02 0.14137798370E+02 0.99789654738E+01 0.84482006086E+01
 0.76764307808E+01 0.73476503846E+01 0.76100161658E+01 0.78642300142E+01 0.76100161658E+01
 0.73476503846E+01 0.76764307808E+01 0.84482006086E+01 0.99789654738E+01 0.14137798370E+02
 0.22176513048E+02 0.41075022181E+02 0.97264045960E+02 0.21078624272E+03 0.37833481693E+03
 0.56603179638E+03 0.71668324214E+03 0.71668324214E+03 0.66272819536E+03 0.52261218368E+03
 0.34834085348E+03 0.19339528393E+03 0.89292230978E+02 0.38573234097E+02 0.21642999231E+02
 0.13892357401E+02 0.98999533892E+01 0.83973618229E+01 0.75978167636E+01 0.72120574452E+01
 0.73961256531E+01 0.76100161658E+01 0.73961256531E+01 0.72120574452E+01 0.75978167636E+01
 0.83973618229E+01 0.98999533892E+01 0.13892357401E+02 0.21642999231E+02 0.38573234097E+02
 0.89292230978E+02 0.19339528393E+03 0.34834085348E+03 0.52261218368E+03 0.66272819536E+03
 0.56603179638E+03 0.52261218368E+03 0.41011716013E+03 0.27106742006E+03 0.14913431940E+03
 0.69492497789E+02 0.32590563722E+02 0.20123885863E+02 0.13176157721E+02 0.96939908773E+01
 0.83494188536E+01 0.75845071678E+01 0.71565847547E+01 0.72120574452E+01 0.73476503846E+01
 0.72120574452E+01 0.71565847547E+01 0.75845071678E+01 0.83494188536E+01 0.96939908773E+01
 0.13176157721E+02 0.20123885863E+02 0.32590563722E+02 0.69492497789E+02 0.14913431940E+03
 0.27106742006E+03 0.41011716013E+03 0.52261218368E+03 0.37833481693E+03 0.34834085348E+03
 0.27106742006E+03 0.17690570968E+03 0.96758954538E+02 0.47330204808E+02 0.26275378655E+02
 0.17739895714E+02 0.12091875070E+02 0.94181735341E+01 0.84282546613E+01 0.78906539893E+01
 0.75845071678E+01 0.75978167636E+01 0.76764307808E+01 0.75978167636E+01 0.75845071678E+01
 0.78906539893E+01 0.84282546613E+01 0.94181735341E+01 0.12091875070E+02 0.17739895714E+02
 0.26275378655E+02 0.47330204808E+02 0.96758954538E+02 0.17690570968E+03 0.27106742006E+03
 0.34834085348E+03 0.21078624272E+03 0.19339528393E+03 0.14913431940E+03 0.96758954538E+02
 0.54668607750E+02 0.31126338119E+02 0.21296595477E+02 0.14915060059E+02 0.10883599968E+02
 0.91483459002E+01 0.86216946597E+01 0.84282546613E+01 0.83494188536E+01 0.83973618229E+01
 0.84482006086E+01 0.83973618229E+01 0.83494188536E+01 0.84282546613E+01 0.86216946597E+01
 0.91483459002E+01 0.10883599968E+02 0.14915060059E+02 0.21296595477E+02 0.31126338119E+02
 0.54668607750E+02 0.96758954538E+02 0.14913431940E+03 0.19339528393E+03 0.97264045960E+02
 0.89292230978E+02 0.69492497789E+02 0.47330204808E+02 0.31126338119E+02 0.22533137592E+02
 0.16693066276E+02 0.12311723340E+02 0.99235772155E+01 0.91253321197E+01 0.91483459002E+01
 0.94181735341E+01 0.96939908773E+01 0.98999533892E+01 0.99789654738E+01 0.98999533892E+01
 0.96939908773E+01 0.94181735341E+01 0.91483459002E+01 0.91253321197E+01 0.99235772155E+01
 0.12311723340E+02 0.16693066276E+02 0.22533137592E+02 0.31126338119E+02 0.47330204808E+02
 0.69492497789E+02 0.89292230978E+02 0.41075022181E+02 0.38573234097E+02 0.32590563722E+02
 0.26275378655E+02 0.21296595477E+02 0.16693066276E+02 0.12890214516E+02 0.10529258928E+02
 0.96536855353E+01 0.99235772155E+01 0.10883599968E+02 0.12091875070E+02 0.13176157721E+02
 0.13892357401E+02 0.14137798370E+02 0.13892357401E+02 0.13176157721E+02 0.12091875070E+02
 0.10883599968E+02 0.99235772155E+01 0.96536855353E+01 0.10529258928E+02 0.12890214516E+02
 0.16693066276E+02 0.21296595477E+02 0.26275378655E+02 0.32590563722E+02 0.38573234097E+02
 0.22176513048E+02 0.21642999231E+02 0.20123885863E+02 0.17739895714E+02 0.14915060059E+02
 0.12311723340E+02 0.10529258928E+02 0.99039363892E+01 0.10529258928E+02 0.12311723340E+02
 0.14915060059E+02 0.17739895714E+02 0.20123885863E+02 0.21642999231E+02 0.22176513048E+02
 0.21642999231E+02 0.20123885863E+02 0.17739895714E+02 0.14915060059E+02 0.12311723340E+02
 0.10529258928E+02 0.99039363892E+01 0.10529258928E+02 0.12311723340E+02 0.14915060059E+02
 0.17739895714E+02 0.20123885863E+02 0.21642999231E+02 0.14137798370E+02 0.13892357401E+02
 0.13176157721E+02 0.12091875070E+02 0.10883599968E+02 0.99235772155E+01 0.96536855353E+01
 0.10529258928E+02 0.12890214516E+02 0.16693066276E+02 0.21296595477E+02 0.26275378655E+02
 0.32590563722E+02 0.38573234097E+02 0.41075022181E+02 0.38573234097E+02 0.32590563722E+02
 0.26275378655E+02 0.21296595477E+02 0.16693066276E+02 0.12890214516E+02 0.10529258928E+02
 0.96536855353E+01 0.99235772155E+01 0.10883599968E+02 0.12091875070E+02 0.13176157721E+02
 0.13892357401E+02 0.99789654738E+01 0.98999533892E+01 0.96939908773E+01 0.94181735341E+01
 0.91483459002E+01 0.91253321197E+01 0.99235772155E+01 0.12311723340E+02 0.16693066276E+02
 0.22533137592E+02 0.31126338119E+02 0.47330204808E+02 0.69492497789E+02 0.89292230978E+02
 0.97264045960E+02 0.89292230978E+02 0.69492497789E+02 0.47330204808E+02 0.31126338119E+02
 0.22533137592E+02 0.16693066276E+02 0.12311723340E+02 0.99235772155E+01 0.91253321197E+01
 0.91483459002E+01 0.94181735341E+01 0.96939908773E+01 0.98999533892E+01 0.84482006086E+01
 0.83973618229E+01 0.83494188536E+01 0.84282546613E+01 0.86216946597E+01 0.91483459002E+01
 0.10883599968E+02 0.14915060059E+02 0.21296595477E+02 0.31126338119E+02 0.54668607750E+02
 0.96758954538E+02 0.14913431940E+03 0.19339528393E+03 0.21078624272E+03 0.19339528393E+03
 0.14913431940E+03 0.96758954538E+02 0.54668607750E+02 0.31126338119E+02 0.21296595477E+02
 0.14915060059E+02 0.10883599968E+02 0.91483459002E+01 0.86216946597E+01 0.84282546613E+01
 0.83494188536E+01 0.83973618229E+01 0.76764307808E+01 0.75978167636E+01 0.75845071678E+01
 0.78906539893E+01 0.84282546613E+01 0.94181735341E+01 0.12091875070E+02 0.17739895714E+02
 0.26275378655E+02 0.47330204808E+02 0.96758954538E+02 0.17690570968E+03 0.27106742006E+03
 0.34834085348E+03 0.37833481693E+03 0.34834085348E+03 0.27106742006E+03 0.17690570968E+03
 0.96758954538E+02 0.47330204808E+02 0.26275378655E+02 0.17739895714E+02 0.12091875070E+02
 0.94181735341E+01 0.84282546613E+01 0.78906539893E+01 0.75845071678E+01 0.75978167636E+01
 0.73476503846E+01 0.72120574452E+01 0.71565847547E+01 0.75845071678E+01 0.83494188536E+01
 0.96939908773E+01 0.13176157721E+02 0.20123885863E+02 0.32590563722E+02 0.69492497789E+02
 0.14913431940E+03 0.27106742006E+03 0.41011716013E+03 0.52261218368E+03 0.56603179638E+03
 0.52261218368E+03 0.41011716013E+03 0.27106742006E+03 0.14913431940E+03 0.69492497789E+02
 0.32590563722E+02 0.20123885863E+02 0.13176157721E+02 0.96939908773E+01 0.83494188536E+01
 0.75845071678E+01 0.71565847547E+01 0.72120574452E+01 0.76100161658E+01 0.73961256531E+01
 0.72120574452E+01 0.75978167636E+01 0.83973618229E+01 0.98999533892E+01 0.13892357401E+02
 0.21642999231E+02 0.38573234097E+02 0.89292230978E+02 0.19339528393E+03 0.34834085348E+03
 0.52261218368E+03 0.66272819536E+03 0.71668324214E+03 0.66272819536E+03 0.52261218368E+03
 0.34834085348E+03 0.19339528393E+03 0.89292230978E+02 0.38573234097E+02 0.21642999231E+02
 0.13892357401E+02 0.98999533892E+01 0.83973618229E+01 0.75978167636E+01 0.72120574452E+01
 0.73961256531E+01 0.78642300142E+01 0.76100161658E+01 0.73476503846E+01 0.76764307808E+01
 0.84482006086E+01 0.99789654738E+01 0.14137798370E+02 0.22176513048E+02 0.41075022181E+02
 0.97264045960E+02 0.21078624272E+03 0.37833481693E+03 0.56603179638E+03 0.71668324214E+03
 0.77465968790E+03 0.71668324214E+03 0.56603179638E+03 0.37833481693E+03 0.21078624272E+03
 0.97264045960E+02 0.41075022181E+02 0.22176513048E+02 0.14137798370E+02 0.99789654738E+01
 0.84482006086E+01 0.76764307808E+01 0.73476503846E+01 0.76100161658E+01 0.76100161658E+01
 0.73961256531E+01 0.72120574452E+01 0.75978167636E+01 0.83973618229E+01 0.98999533892E+01
 0.13892357401E+02 0.21642999231E+02 0.38573234097E+02 0.89292230978E+02 0.19339528393E+03
 0.34834085348E+03 0.52261218368E+03 0.66272819536E+03 0.71668324214E+03 0.66272819536E+03
 0.52261218368E+03 0.34834085348E+03 0.19339528393E+03 0.89292230978E+02 0.38573234097E+02
 0.21642999231E+02 0.13892357401E+02 0.98999533892E+01 0.83973618229E+01 0.75978167636E+01
 0.72120574452E+01 0.73961256531E+01 0.73476503846E+01 0.72120574452E+01 0.71565847547E+01
 0.75845071678E+01 0.83494188536E+01 0.96939908773E+01 0.13176157721E+02 0.20123885863E+02
 0.32590563722E+02 0.69492497789E+02 0.14913431940E+03 0.27106742006E+03 0.41011716013E+03
 0.52261218368E+03 0.56603179638E+03 0.52261218368E+03 0.41011716013E+03 0.27106742006E+03
 0.14913431940E+03 0.69492497789E+02 0.32590563722E+02 0.20123885863E+02 0.13176157721E+02
 0.96939908773E+01 0.83494188536E+01 0.75845071678E+01 0.71565847547E+01 0.72120574452E+01
 0.76764307808E+01 0.75978167636E+01 0.75845071678E+01 0.78906539893E+01 0.84282546613E+01
 0.94181735341E+01 0.12091875070E+02 0.17739895714E+02 0.26275378655E+02 0.47330204808E+02
 0.96758954538E+02 0.17690570968E+03 0.27106742006E+03 0.34834085348E+03 0.37833481693E+03
 0.34834085348E+03 0.27106742006E+03 0.17690570968E+03 0.96758954538E+02 0.47330204808E+02
 0.26275378655E+02 0.17739895714E+02 0.12091875070E+02 0.94181735341E+01 0.84282546613E+01
 0.78906539893E+01 0.75845071678E+01 0.75978167636E+01 0.84482006086E+01 0.83973618229E+01
 0.83494188536E+01 0.84282546613E+01 0.86216946597E+01 0.91483459002E+01 0.10883599968E+02
 0.14915060059E+02 0.21296595477E+02 0.31126338119E+02 0.54668607750E+02 0.96758954538E+02
 0.14913431940E+03 0.19339528393E+03 0.21078624272E+03 0.19339528393E+03 0.14913431940E+03
 0.96758954538E+02 0.54668607750E+02 0.31126338119E+02 0.21296595477E+02 0.14915060059E+02
 0.10883599968E+02 0.91483459002E+01 0.86216946597E+01 0.84282546613E+01 0.83494188536E+01
 0.83973618229E+01 0.99789654738E+01 0.98999533892E+01 0.96939908773E+01 0.94181735341E+01
 0.91483459002E+01 0.91253321197E+01 0.99235772155E+01 0.12311723340E+02 0.16693066276E+02
 0.22533137592E+02 0.31126338119E+02 0.47330204808E+02 0.69492497789E+02 0.89292230978E+02
 0.97264045960E+02 0.89292230978E+02 0.69492497789E+02 0.47330204808E+02 0.31126338119E+02
 0.22533137592E+02 0.16693066276E+02 0.12311723340E+02 0.99235772155E+01 0.91253321197E+01
 0.91483459002E+01 0.94181735341E+01 0.96939908773E+01 0.98999533892E+01 0.14137798370E+02
 0.13892357401E+02 0.13176157721E+02 0.12091875070E+02 0.10883599968E+02 0.99235772155E+01
 0.96536855353E+01 0.10529258928E+02 0.12890214516E+02 0.16693066276E+02 0.21296595477E+02
 0.26275378655E+02 0.32590563722E+02 0.38573234097E+02 0.41075022181E+02 0.38573234097E+02
 0.32590563722E+02 0.26275378655E+02 0.21296595477E+02 0.16693066276E+02 0.12890214516E+02
 0.10529258928E+02 0.96536855353E+01 0.99235772155E+01 0.10883599968E+02 0.12091875070E+02
 0.13176157721E+02 0.13892357401E+02 0.22176513048E+02 0.21642999231E+02 0.20123885863E+02
 0.17739895714E+02 0.14915060059E+02 0.12311723340E+02 0.10529258928E+02 0.99039363892E+01
 0.10529258928E+02 0.12311723340E+02 0.14915060059E+02 0.17739895714E+02 0.20123885863E+02
 0.21642999231E+02 0.22176513048E+02 0.21642999231E+02 0.20123885863E+02 0.17739895714E+02
 0.14915060059E+02 0.12311723340E+02 0.10529258928E+02 0.99039363892E+01 0.10529258928E+02
 0.12311723340E+02 0.14915060059E+02 0.17739895714E+02 0.20123885863E+02 0.21642999231E+02
 0.41075022181E+02 0.38573234097E+02 0.32590563722E+02 0.26275378655E+02 0.21296595477E+02
 0.16693066276E+02 0.12890214516E+02 0.10529258928E+02 0.96536855353E+01 0.99235772155E+01
 0.10883599968E+02 0.12091875070E+02 0.13176157721E+02 0.13892357401E+02 0.14137798370E+02
 0.13892357401E+02 0.13176157721E+02 0.12091875070E+02 0.10883599968E+02 0.99235772155E+01
 0.96536855353E+01 0.10529258928E+02 0.12890214516E+02 0.16693066276E+02 0.21296595477E+02
 0.26275378655E+02 0.32590563722E+02 0.38573234097E+02 0.97264045960E+02 0.89292230978E+02
 0.69492497789E+02 0.47330204808E+02 0.31126338119E+02 0.22533137592E+02 0.16693066276E+02
 0.12311723340E+02 0.99235772155E+01 0.91253321197E+01 0.91483459002E+01 0.94181735341E+01
 0.96939908773E+01 0.98999533892E+01 0.99789654738E+01 0.98999533892E+01 0.96939908773E+01
 0.94181735341E+01 0.91483459002E+01 0.91253321197E+01 0.99235772155E+01 0.12311723340E+02
 0.16693066276E+02 0.22533137592E+02 0.31126338119E+02 0.47330204808E+02 0.69492497789E+02
 0.89292230978E+02 0.21078624272E+03 0.19339528393E+03 0.14913431940E+03 0.96758954538E+02
 0.54668607750E+02 0.31126338119E+02 0.21296595477E+02 0.14915060059E+02 0.10883599968E+02
 0.91483459002E+01 0.86216946597E+01 0.84282546613E+01 0.83494188536E+01 0.83973618229E+01
 0.84482006086E+01 0.83973618229E+01 0.83494188536E+01 0.84282546613E+01 0.86216946597E+01
 0.91483459002E+01 0.10883599968E+02 0.14915060059E+02 0.21296595477E+02 0.31126338119E+02
 0.54668607750E+02 0.96758954538E+02 0.14913431940E+03 0.19339528393E+03 0.37833481693E+03
 0.34834085348E+03 0.27106742006E+03 0.17690570968E+03 0.96758954538E+02 0.47330204808E+02
 0.26275378655E+02 0.17739895714E+02 0.12091875070E+02 0.94181735341E+01 0.84282546613E+01
 0.78906539893E+01 0.75845071678E+01 0.75978167636E+01 0.76764307808E+01 0.75978167636E+01
 0.75845071678E+01 0.78906539893E+01 0.84282546613E+01 0.94181735341E+01 0.12091875070E+02
 0.17739895714E+02 0.26275378655E+02 0.47330204808E+02 0.96758954538E+02 0.17690570968E+03
 0.27106742006E+03 0.34834085348E+03 0.56603179638E+03 0.52261218368E+03 0.41011716013E+03
 0.27106742006E+03 0.14913431940E+03 0.69492497789E+02 0.32590563722E+02 0.20123885863E+02
 0.13176157721E+02 0.96939908773E+01 0.83494188536E+01 0.75845071678E+01 0.71565847547E+01
 0.72120574452E+01 0.73476503846E+01 0.72120574452E+01 0.71565847547E+01 0.75845071678E+01
 0.83494188536E+01 0.96939908773E+01 0.13176157721E+02 0.20123885863E+02 0.32590563722E+02
 0.69492497789E+02 0.14913431940E+03 0.27106742006E+03 0.41011716013E+03 0.52261218368E+03
 0.71668324214E+03 0.66272819536E+03 0.52261218368E+03 0.34834085348E+03 0.19339528393E+03
 0.89292230978E+02 0.38573234097E+02 0.21642999231E+02 0.13892357401E+02 0.98999533892E+01
 0.83973618229E+01 0.75978167636E+01 0.72120574452E+01 0.73961256531E+01 0.76100161658E+01
 0.73961256531E+01 0.72120574452E+01 0.75978167636E+01 0.83973618229E+01 0.98999533892E+01
 0.13892357401E+02 0.21642999231E+02 0.38573234097E+02 0.89292230978E+02 0.19339528393E+03
 0.34834085348E+03 0.52261218368E+03 0.66272819536E+03 0.61273785362E+03 0.56603179638E+03
 0.44492166665E+03 0.29489250462E+03 0.16268858328E+03 0.75477457313E+02 0.34362423492E+02
 0.20612203542E+02 0.13386742882E+02 0.97386191063E+01 0.83573943285E+01 0.76078957877E+01
 0.72252087092E+01 0.73476503846E+01 0.75182014593E+01 0.73476503846E+01 0.72252087092E+01
 0.76078957877E+01 0.83573943285E+01 0.97386191063E+01 0.13386742882E+02 0.20612203542E+02
 0.34362423492E+02 0.75477457313E+02 0.16268858328E+03 0.29489250462E+03 0.44492166665E+03
 0.56603179638E+03 0.56603179638E+03 0.52261218368E+03 0.41011716013E+03 0.27106742006E+03
 0.14913431940E+03 0.69492497789E+02 0.32590563722E+02 0.20123885863E+02 0.13176157721E+02
 0.96939908773E+01 0.83494188536E+01 0.75845071678E+01 0.71565847547E+01 0.72120574452E+01
 0.73476503846E+01 0.72120574452E+01 0.71565847547E+01 0.75845071678E+01 0.83494188536E+01
 0.96939908773E+01 0.13176157721E+02 0.20123885863E+02 0.32590563722E+02 0.69492497789E+02
 0.14913431940E+03 0.27106742006E+03 0.41011716013E+03 0.52261218368E+03 0.44492166665E+03