   4   4   0   0
  0.1200752E+02  0.3635000E-09  0.3635000E-09  0.3635000E-09  0.5000000E-15
  1.000000000000000E-004
  CAR 
 unknown system                          
     27.70029696     -3.76665503  301      7.03718496      1.00000000
     -3.767  0.0000E+00  0.0000E+00
     -3.662  0.0000E+00  0.0000E+00
     -3.557  0.0000E+00  0.0000E+00
     -3.452 -0.5258E-31 -0.5515E-32
     -3.347 -0.2582E-27 -0.2709E-28
     -3.242 -0.7284E-24 -0.7643E-25
     -3.137 -0.1179E-20 -0.1238E-21
     -3.032 -0.1095E-17 -0.1149E-18
     -2.928 -0.5650E-15 -0.5937E-16
     -2.823 -0.1707E-12 -0.1796E-13
     -2.718 -0.2936E-10 -0.3097E-11
     -2.613 -0.2863E-08 -0.3034E-09
     -2.508 -0.1572E-06 -0.1679E-07
     -2.403 -0.4802E-05 -0.5205E-06
     -2.298 -0.7988E-04 -0.8899E-05
     -2.193 -0.6896E-03 -0.8123E-04
     -2.088 -0.2682E-02 -0.3626E-03
     -1.984 -0.1401E-02 -0.5095E-03
     -1.879  0.1981E-01  0.1568E-02
     -1.774  0.5524E-01  0.7362E-02
     -1.669  0.5149E-01  0.1276E-01
     -1.564  0.4888E-02  0.1328E-01
     -1.459  0.2899E-01  0.1632E-01
     -1.354  0.2190E+00  0.3929E-01
     -1.249  0.3794E+00  0.7909E-01
     -1.144  0.2429E+00  0.1046E+00
     -1.040  0.4642E-01  0.1094E+00
     -0.935  0.2305E+00  0.1336E+00
     -0.830  0.6726E+00  0.2042E+00
     -0.725  0.6954E+00  0.2771E+00
     -0.620  0.2638E+00  0.3048E+00
     -0.515  0.9209E-01  0.3144E+00
     -0.410  0.3516E+00  0.3513E+00
     -0.305  0.4941E+00  0.4031E+00
     -0.200  0.2542E+00  0.4298E+00
     -0.096  0.6853E-01  0.4370E+00
      0.009  0.2116E+00  0.4592E+00
      0.114  0.3411E+00  0.4950E+00
      0.219  0.1745E+00  0.5133E+00
      0.324  0.2135E+00  0.5357E+00
      0.429  0.9538E+00  0.6357E+00
      0.534  0.1494E+01  0.7924E+00
      0.639  0.9609E+00  0.8932E+00
      0.744  0.5944E+00  0.9556E+00
      0.848  0.1223E+01  0.1084E+01
      0.953  0.1442E+01  0.1235E+01
      1.058  0.6607E+00  0.1304E+01
      1.163  0.1608E-01  0.1306E+01
      1.268 -0.1017E+00  0.1295E+01
      1.373 -0.7222E-01  0.1288E+01
      1.478  0.7814E-01  0.1296E+01
      1.583  0.5113E+00  0.1350E+01
      1.688  0.1181E+01  0.1474E+01
      1.793  0.1880E+01  0.1671E+01
      1.897  0.1859E+01  0.1866E+01
      2.002  0.1165E+01  0.1988E+01
      2.107  0.1202E+01  0.2114E+01
      2.212  0.1791E+01  0.2302E+01
      2.317  0.1997E+01  0.2511E+01
      2.422  0.1907E+01  0.2711E+01
      2.527  0.2336E+01  0.2956E+01
      2.632  0.4290E+01  0.3406E+01
      2.737  0.6012E+01  0.4037E+01
      2.841  0.5230E+01  0.4585E+01
      2.946  0.3843E+01  0.4989E+01
      3.051  0.3699E+01  0.5377E+01
      3.156  0.4121E+01  0.5809E+01
      3.261  0.5908E+01  0.6428E+01
      3.366  0.8495E+01  0.7320E+01
      3.471  0.9219E+01  0.8286E+01
      3.576  0.9712E+01  0.9305E+01
      3.681  0.1173E+02  0.1054E+02
      3.785  0.1288E+02  0.1189E+02
      3.890  0.1286E+02  0.1324E+02
      3.995  0.1331E+02  0.1463E+02
      4.100  0.1521E+02  0.1623E+02
      4.205  0.1678E+02  0.1799E+02
      4.310  0.1296E+02  0.1935E+02
      4.415  0.7990E+01  0.2018E+02
      4.520  0.1069E+02  0.2131E+02
      4.625  0.1809E+02  0.2320E+02
      4.729  0.2158E+02  0.2547E+02
      4.834  0.2017E+02  0.2758E+02
      4.939  0.1835E+02  0.2951E+02
      5.044  0.1780E+02  0.3138E+02
      5.149  0.2065E+02  0.3354E+02
      5.254  0.2662E+02  0.3633E+02
      5.359  0.2639E+02  0.3910E+02
      5.464  0.1703E+02  0.4089E+02
      5.569  0.7332E+01  0.4166E+02
      5.673  0.3108E+01  0.4198E+02
      5.778  0.2443E+01  0.4224E+02
      5.883  0.2062E+01  0.4246E+02
      5.988  0.1648E+01  0.4263E+02
      6.093  0.1467E+01  0.4278E+02
      6.198  0.8049E+00  0.4287E+02
      6.303  0.9791E-01  0.4288E+02
      6.408 -0.9332E-01  0.4287E+02
      6.513 -0.1080E+00  0.4286E+02
      6.617 -0.2215E+00  0.4283E+02
      6.722  0.5204E-01  0.4284E+02
      6.827  0.1906E+01  0.4304E+02
      6.932  0.4507E+01  0.4351E+02
      7.037  0.4658E+01  0.4400E+02
      7.142  0.2797E+01  0.4429E+02
      7.247  0.1454E+01  0.4445E+02
      7.352  0.5448E+00  0.4450E+02
      7.457 -0.6566E-01  0.4450E+02
      7.561  0.7682E-01  0.4450E+02
      7.666  0.9467E+00  0.4460E+02
      7.771  0.1559E+01  0.4477E+02
      7.876  0.1015E+01  0.4487E+02
      7.981  0.1520E+00  0.4489E+02
      8.086 -0.1570E+00  0.4487E+02
      8.191  0.9339E-01  0.4488E+02
      8.296  0.8950E+00  0.4498E+02
      8.401  0.1453E+01  0.4513E+02
      8.505  0.1070E+01  0.4524E+02
      8.610  0.1135E+01  0.4536E+02
      8.715  0.2092E+01  0.4558E+02
      8.820  0.1981E+01  0.4579E+02
      8.925  0.7924E+00  0.4587E+02
      9.030  0.1184E+00  0.4588E+02
      9.135 -0.2868E-01  0.4588E+02
      9.240 -0.1295E-02  0.4588E+02
      9.345  0.5441E+00  0.4594E+02
      9.449  0.1301E+01  0.4607E+02
      9.554  0.1305E+01  0.4621E+02
      9.659  0.1482E+01  0.4637E+02
      9.764  0.2716E+01  0.4665E+02
      9.869  0.2958E+01  0.4696E+02
      9.974  0.1727E+01  0.4714E+02
     10.079  0.7235E+00  0.4722E+02
     10.184  0.2187E+00  0.4724E+02
     10.289 -0.2062E-01  0.4724E+02
     10.393 -0.5169E-01  0.4723E+02
     10.498 -0.4628E-01  0.4723E+02
     10.603 -0.1540E-01  0.4723E+02
     10.708  0.2518E+00  0.4725E+02
     10.813  0.6879E+00  0.4732E+02
     10.918  0.6957E+00  0.4740E+02
     11.023  0.2189E+00  0.4742E+02
     11.128 -0.3813E-01  0.4742E+02
     11.233  0.4394E+00  0.4746E+02
     11.337  0.1303E+01  0.4760E+02
     11.442  0.1331E+01  0.4774E+02
     11.547  0.7380E+00  0.4782E+02
     11.652  0.1173E+01  0.4794E+02
     11.757  0.2326E+01  0.4818E+02
     11.862  0.2402E+01  0.4844E+02
     11.967  0.1262E+01  0.4857E+02
     12.072  0.4351E+00  0.4861E+02
     12.177  0.4871E+00  0.4866E+02
     12.281  0.1059E+01  0.4878E+02
     12.386  0.2358E+01  0.4902E+02
     12.491  0.3033E+01  0.4934E+02
     12.596  0.1735E+01  0.4952E+02
     12.701  0.6340E+00  0.4959E+02
     12.806  0.1107E+01  0.4971E+02
     12.911  0.1399E+01  0.4985E+02
     13.016  0.7670E+00  0.4993E+02
     13.121  0.4074E+00  0.4998E+02
     13.225  0.4401E+00  0.5002E+02
     13.330  0.2494E+00  0.5005E+02
     13.435 -0.3905E-01  0.5004E+02
     13.540 -0.1859E+00  0.5002E+02
     13.645  0.2199E+00  0.5005E+02
     13.750  0.1777E+01  0.5023E+02
     13.855  0.3109E+01  0.5056E+02
     13.960  0.2199E+01  0.5079E+02
     14.065  0.4528E+00  0.5084E+02
     14.170 -0.1821E+00  0.5082E+02
     14.274  0.9633E-01  0.5083E+02
     14.379  0.9276E+00  0.5093E+02
     14.484  0.1894E+01  0.5112E+02
     14.589  0.1913E+01  0.5133E+02
     14.694  0.9146E+00  0.5142E+02
     14.799  0.3480E+00  0.5146E+02
     14.904  0.1037E+01  0.5157E+02
     15.009  0.1886E+01  0.5176E+02
     15.114  0.1830E+01  0.5196E+02
     15.218  0.1600E+01  0.5212E+02
     15.323  0.1832E+01  0.5232E+02
     15.428  0.2492E+01  0.5258E+02
     15.533  0.3040E+01  0.5290E+02
     15.638  0.2177E+01  0.5313E+02
     15.743  0.5532E+00  0.5318E+02
     15.848 -0.1261E+00  0.5317E+02
     15.953  0.4027E+00  0.5321E+02
     16.058  0.1343E+01  0.5335E+02
     16.162  0.1373E+01  0.5350E+02
     16.267  0.5556E+00  0.5356E+02
     16.372  0.3235E+00  0.5359E+02
     16.477  0.8467E+00  0.5368E+02
     16.582  0.1251E+01  0.5381E+02
     16.687  0.1436E+01  0.5396E+02
     16.792  0.1755E+01  0.5414E+02
     16.897  0.2042E+01  0.5436E+02
     17.002  0.2272E+01  0.5460E+02
     17.106  0.2358E+01  0.5484E+02
     17.211  0.1858E+01  0.5504E+02
     17.316  0.9444E+00  0.5514E+02
     17.421  0.2971E+00  0.5517E+02
     17.526  0.3688E+00  0.5521E+02
     17.631  0.1131E+01  0.5533E+02
     17.736  0.1423E+01  0.5548E+02
     17.841  0.7197E+00  0.5555E+02
     17.946  0.6344E+00  0.5562E+02
     18.050  0.1873E+01  0.5581E+02
     18.155  0.2836E+01  0.5611E+02
     18.260  0.2472E+01  0.5637E+02
     18.365  0.1249E+01  0.5650E+02
     18.470  0.2276E+00  0.5653E+02
     18.575  0.5300E+00  0.5658E+02
     18.680  0.2022E+01  0.5679E+02
     18.785  0.2900E+01  0.5710E+02
     18.890  0.2018E+01  0.5731E+02
     18.994  0.1354E+01  0.5745E+02
     19.099  0.2980E+01  0.5776E+02
     19.204  0.4397E+01  0.5822E+02
     19.309  0.2842E+01  0.5852E+02
     19.414  0.5524E+00  0.5858E+02
     19.519 -0.2057E+00  0.5856E+02
     19.624 -0.1194E+00  0.5855E+02
     19.729 -0.2491E-01  0.5854E+02
     19.834 -0.2053E-01  0.5854E+02
     19.938 -0.7720E-01  0.5853E+02
     20.043 -0.8464E-01  0.5852E+02
     20.148  0.4213E+00  0.5857E+02
     20.253  0.1694E+01  0.5875E+02
     20.358  0.2729E+01  0.5903E+02
     20.463  0.2309E+01  0.5928E+02
     20.568  0.9311E+00  0.5937E+02
     20.673  0.3118E-01  0.5938E+02
     20.778 -0.1090E+00  0.5936E+02
     20.882 -0.3809E-01  0.5936E+02
     20.987 -0.5669E-02  0.5936E+02
     21.092 -0.4327E-03  0.5936E+02
     21.197 -0.1790E-04  0.5936E+02
     21.302 -0.4112E-06  0.5936E+02
     21.407 -0.5458E-08  0.5936E+02
     21.512 -0.1699E-07  0.5936E+02
     21.617 -0.1119E-05  0.5936E+02
     21.722 -0.4129E-04  0.5936E+02
     21.826 -0.8367E-03  0.5936E+02
     21.931 -0.8979E-02  0.5936E+02
     22.036 -0.4639E-01  0.5935E+02
     22.141 -0.7317E-01  0.5935E+02
     22.246  0.2428E+00  0.5937E+02
     22.351  0.1103E+01  0.5949E+02
     22.456  0.1556E+01  0.5965E+02
     22.561  0.8922E+00  0.5974E+02
     22.666  0.1167E+00  0.5976E+02
     22.770 -0.7958E-01  0.5975E+02
     22.875 -0.3445E-01  0.5974E+02
     22.980 -0.5564E-02  0.5974E+02
     23.085 -0.4467E-03  0.5974E+02
     23.190 -0.1920E-04  0.5974E+02
     23.295 -0.4556E-06  0.5974E+02
     23.400 -0.6059E-08  0.5974E+02
     23.505 -0.4556E-10  0.5974E+02
     23.610 -0.1943E-12  0.5974E+02
     23.714 -0.8129E-15  0.5974E+02
     23.819  0.0000E+00  0.5974E+02
     23.924  0.0000E+00  0.5974E+02
     24.029 -0.2743E-29  0.5974E+02
     24.134 -0.1250E-25  0.5974E+02
     24.239 -0.3271E-22  0.5974E+02
     24.344 -0.4911E-19  0.5974E+02
     24.449 -0.4228E-16  0.5974E+02
     24.554 -0.2017E-13  0.5974E+02
     24.658 -0.5662E-11  0.5974E+02
     24.763 -0.9022E-09  0.5974E+02
     24.868 -0.8145E-07  0.5974E+02
     24.973 -0.4134E-05  0.5974E+02
     25.078 -0.1165E-03  0.5974E+02
     25.183 -0.1780E-02  0.5974E+02
     25.288 -0.1397E-01  0.5974E+02
     25.393 -0.4743E-01  0.5974E+02
     25.498 -0.1294E-02  0.5974E+02
     25.603  0.3966E+00  0.5978E+02
     25.707  0.9616E+00  0.5988E+02
     25.812  0.9060E+00  0.5997E+02
     25.917  0.3187E+00  0.6001E+02
     26.022 -0.2234E-01  0.6001E+02
     26.127 -0.4291E-01  0.6000E+02
     26.232 -0.1103E-01  0.6000E+02
     26.337 -0.1278E-02  0.6000E+02
     26.442 -0.7684E-04  0.6000E+02
     26.547 -0.2515E-05  0.6000E+02
     26.651 -0.4581E-07  0.6000E+02
     26.756 -0.4697E-09  0.6000E+02
     26.861 -0.2730E-11  0.6000E+02
     26.966 -0.9213E-14  0.6000E+02
     27.071  0.0000E+00  0.6000E+02
     27.176  0.0000E+00  0.6000E+02
     27.281  0.0000E+00  0.6000E+02
     27.386  0.0000E+00  0.6000E+02
     27.491  0.0000E+00  0.6000E+02
     27.595  0.0000E+00  0.6000E+02
     27.700  0.0000E+00  0.6000E+02
