 vasp.6.2.0 18Jan21 (build Mar 17 2021 09:06:54) complex                        
  
 executed on             LinuxIFC date 2021.08.03  10:15:02
 serial version


--------------------------------------------------------------------------------------------------------


 INCAR:
   ENCUT = 200.000000
   SIGMA = 0.200000
   EDIFF = 1.00e-06
   GGA = PE
   PREC = normal
   IBRION = -1
   ICHARG = 1
   ISMEAR = 1
   KPAR = 1
   NBANDS = 30
   NSW = 0
   NCORE = 1
   LCHARG = .TRUE.

 POTCAR:    PAW_PBE Cu 22Jun2005                  
 POTCAR:    PAW_PBE Cu 22Jun2005                  
   SHA256 =  0e71e558f37a4e8407882b4609ceaae59938afaad9ced71dfe8490308a0ab630 Cu/POTCAR             
   COPYR  = (c) Copyright 22Jun2005 Georg Kresse                                                    
   COPYR  = This file is part of the software VASP. Any use, copying, and all other rights are regul
   COPYR  = If you do not have a valid VASP license, you may not use, copy or distribute this file. 
   VRHFIN =Cu: d10 p1                                                                               
   LEXCH  = PE                                                                                      
   EATOM  =  1390.9808 eV,  102.2342 Ry                                                             
                                                                                                    
   TITEL  = PAW_PBE Cu 22Jun2005                                                                    
   LULTRA =        F    use ultrasoft PP ?                                                          
   IUNSCR =        1    unscreen: 0-lin 1-nonlin 2-no                                               
   RPACOR =    2.000    partial core radius                                                         
   POMASS =   63.546; ZVAL   =   11.000    mass and valenz                                          
   RCORE  =    2.300    outmost cutoff radius                                                       
   RWIGS  =    2.200; RWIGS  =    1.164    wigner-seitz radius (au A)                               
   ENMAX  =  295.446; ENMIN  =  221.585 eV                                                          
   ICORE  =        3    local potential                                                             
   LCOR   =        T    correct aug charges                                                         
   LPAW   =        T    paw PP                                                                      
   EAUG   =  586.980                                                                                
   DEXC   =    0.000                                                                                
   RMAX   =    2.344    core radius for proj-oper                                                   
   RAUG   =    1.300    factor for augmentation sphere                                              
   RDEP   =    2.302    radius for radial grids                                                     
   RDEPT  =    1.771    core radius for aug-charge                                                  
                                                                                                    
   Atomic configuration                                                                             
    9 entries                                                                                       
     n  l   j            E        occ.                                                              
     1  0  0.50     -8850.2468   2.0000                                                             
     2  0  0.50     -1062.3498   2.0000                                                             
     2  1  1.50      -916.8226   6.0000                                                             
     3  0  0.50      -114.6929   2.0000                                                             
     3  1  1.50       -72.1325   6.0000                                                             
     3  2  2.50        -5.0394  10.0000                                                             
     4  0  0.50        -4.6097   1.0000                                                             
     4  1  0.50        -4.0817   0.0000                                                             
     4  3  2.50        -1.3606   0.0000                                                             
   Description                                                                                      
     l       E           TYP  RCUT    TYP  RCUT                                                     
     2     -5.0393973     23  2.200                                                                 
     2     10.8846608     23  2.200                                                                 
     0     -4.6097109     23  2.200                                                                 
     0      8.2520465     23  2.200                                                                 
     1     -2.7211652     23  2.200                                                                 
     1     21.7055443     23  2.200                                                                 
     3      2.7211652     23  2.300                                                                 
  local pseudopotential read in
  partial core-charges read in
  partial kinetic energy density read in
  atomic valenz-charges read in
  non local Contribution for L=           2  read in
    real space projection operators read in
  non local Contribution for L=           2  read in
    real space projection operators read in
  non local Contribution for L=           0  read in
    real space projection operators read in
  non local Contribution for L=           0  read in
    real space projection operators read in
  non local Contribution for L=           1  read in
    real space projection operators read in
  non local Contribution for L=           1  read in
    real space projection operators read in
    PAW grid and wavefunctions read in
 
   number of l-projection  operators is LMAX  =           6
   number of lm-projection operators is LMMAX =          18
 
  PAW_PBE Cu 22Jun2005                  :
 energy of atom  1       EATOM=-1390.9808
 kinetic energy error for atom=    1.9611 (will be added to EATOM!!)
 
 
 POSCAR: Cu
  positions in cartesian coordinates
  No initial velocities read in
 exchange correlation table for  LEXCH =        8
   RHO(1)=    0.500       N(1)  =     2000
   RHO(2)=  100.500       N(2)  =     4000
 


--------------------------------------------------------------------------------------------------------


 ion  position               nearest neighbor table
   1  0.000  0.000  0.000-   2 2.57   3 2.57   4 2.57   3 2.57   4 2.57   2 2.57   4 2.57   4 2.57
                             2 2.57   3 2.57   3 2.57   2 2.57
   2  0.500  0.500  0.000-   1 2.57   3 2.57   4 2.57   3 2.57   4 2.57   1 2.57   3 2.57   3 2.57
                             1 2.57   4 2.57   4 2.57   1 2.57
   3  0.500  0.000  0.500-   1 2.57   2 2.57   4 2.57   1 2.57   2 2.57   2 2.57   4 2.57   2 2.57
                             1 2.57   4 2.57   1 2.57   4 2.57
   4  0.000  0.500  0.500-   1 2.57   2 2.57   3 2.57   1 2.57   2 2.57   1 2.57   3 2.57   1 2.57
                             2 2.57   3 2.57   2 2.57   3 2.57
 
  LATTYP: Found a simple cubic cell.
 ALAT       =     3.6350000000
  
  Lattice vectors:
  
 A1 = (   3.6350000000,   0.0000000000,   0.0000000000)
 A2 = (   0.0000000000,   3.6350000000,   0.0000000000)
 A3 = (   0.0000000000,   0.0000000000,   3.6350000000)


Analysis of symmetry for initial positions (statically):
=====================================================================
 Subroutine PRICEL returns following result:
 
  LATTYP: Found a face centered cubic cell.
 ALAT       =     3.6350000000
  
  Lattice vectors:
  
 A1 = (   1.8175000000,  -1.8175000000,   0.0000000000)
 A2 = (   1.8175000000,   0.0000000000,   1.8175000000)
 A3 = (   0.0000000000,  -1.8175000000,   1.8175000000)
 
   4 primitive cells build up your supercell.
 

 Routine SETGRP: Setting up the symmetry group for a 
 simple cubic supercell.


 Subroutine GETGRP returns: Found 48 space group operations
 (whereof 48 operations were pure point group operations)
 out of a pool of 48 trial point group operations.


The static configuration has the point symmetry O_h .


Analysis of symmetry for dynamics (positions and initial velocities):
=====================================================================
 Subroutine PRICEL returns following result:
 
  LATTYP: Found a face centered cubic cell.
 ALAT       =     3.6350000000
  
  Lattice vectors:
  
 A1 = (   1.8175000000,  -1.8175000000,   0.0000000000)
 A2 = (   1.8175000000,   0.0000000000,   1.8175000000)
 A3 = (   0.0000000000,  -1.8175000000,   1.8175000000)
 
   4 primitive cells build up your supercell.
 

 Routine SETGRP: Setting up the symmetry group for a 
 simple cubic supercell.


 Subroutine GETGRP returns: Found 48 space group operations
 (whereof 48 operations were pure point group operations)
 out of a pool of 48 trial point group operations.


The dynamic configuration has the point symmetry O_h .


 Subroutine INISYM returns: Found 48 space group operations
 (whereof 48 operations are pure point group operations),
 and found     4 'primitive' translations


----------------------------------------------------------------------------------------

                                     Primitive cell                                     

  volume of cell :      12.0075

  direct lattice vectors                    reciprocal lattice vectors
     1.817500000 -1.817500000  0.000000000     0.275103164 -0.275103164 -0.275103164
     1.817500000  0.000000000  1.817500000     0.275103164  0.275103164  0.275103164
     0.000000000 -1.817500000  1.817500000    -0.275103164 -0.275103164  0.275103164

  length of vectors
     2.570333150  2.570333150  2.570333150     0.476492657  0.476492657  0.476492657

  position of ions in fractional coordinates (direct lattice)
     0.000000000  0.000000000  0.000000000

  ion indices of the primitive-cell ions
   primitive index   ion index
                 1           1

----------------------------------------------------------------------------------------

 
 
 KPOINTS: KPOINTS created by Atomic Simulation Env

Automatic generation of k-mesh.
 Grid dimensions read from file:
 generate k-points for:    5    5    5

 Generating k-lattice:

  Cartesian coordinates                     Fractional coordinates (reciprocal lattice)
     0.055020633  0.000000000  0.000000000     0.200000000  0.000000000  0.000000000
     0.000000000  0.055020633  0.000000000     0.000000000  0.200000000  0.000000000
     0.000000000  0.000000000  0.055020633     0.000000000  0.000000000  0.200000000

  Length of vectors
     0.055020633  0.055020633  0.055020633

  Shift w.r.t. Gamma in fractional coordinates (k-lattice)
     0.000000000  0.000000000  0.000000000

 
 Subroutine IBZKPT returns following result:
 ===========================================
 
 Found     10 irreducible k-points:
 
 Following reciprocal coordinates:
            Coordinates               Weight
  0.000000  0.000000  0.000000      1.000000
  0.200000  0.000000  0.000000      6.000000
  0.400000  0.000000  0.000000      6.000000
  0.200000  0.200000  0.000000     12.000000
  0.400000  0.200000  0.000000     24.000000
  0.400000  0.400000  0.000000     12.000000
  0.200000  0.200000  0.200000      8.000000
  0.400000  0.200000  0.200000     24.000000
  0.400000  0.400000  0.200000     24.000000
  0.400000  0.400000  0.400000      8.000000
 
 Following cartesian coordinates:
            Coordinates               Weight
  0.000000  0.000000  0.000000      1.000000
  0.055021  0.000000  0.000000      6.000000
  0.110041  0.000000  0.000000      6.000000
  0.055021  0.055021  0.000000     12.000000
  0.110041  0.055021  0.000000     24.000000
  0.110041  0.110041  0.000000     12.000000
  0.055021  0.055021  0.055021      8.000000
  0.110041  0.055021  0.055021     24.000000
  0.110041  0.110041  0.055021     24.000000
  0.110041  0.110041  0.110041      8.000000
 


--------------------------------------------------------------------------------------------------------




 Dimension of arrays:
   k-points           NKPTS =     10   k-points in BZ     NKDIM =     10   number of bands    NBANDS=     30
   number of dos      NEDOS =    301   number of ions     NIONS =      4
   non local maximal  LDIM  =      6   non local SUM 2l+1 LMDIM =     18
   total plane-waves  NPLWV =   2744
   max r-space proj   IRMAX =      1   max aug-charges    IRDMAX=   1854
   dimension x,y,z NGX =    14 NGY =   14 NGZ =   14
   dimension x,y,z NGXF=    28 NGYF=   28 NGZF=   28
   support grid    NGXF=    28 NGYF=   28 NGZF=   28
   ions per type =               4
   NGX,Y,Z   is equivalent  to a cutoff of   6.40,  6.40,  6.40 a.u.
   NGXF,Y,Z  is equivalent  to a cutoff of  12.81, 12.81, 12.81 a.u.

 SYSTEM =  unknown system                          
 POSCAR =  Cu                                      

 Startparameter for this run:
   NWRITE =      2    write-flag & timer
   PREC   = normal    normal or accurate (medium, high low for compatibility)
   ISTART =      1    job   : 0-new  1-cont  2-samecut
   ICHARG =      1    charge: 1-file 2-atom 10-const
   ISPIN  =      1    spin polarized calculation?
   LNONCOLLINEAR =      F non collinear calculations
   LSORBIT =      F    spin-orbit coupling
   INIWAV =      1    electr: 0-lowe 1-rand  2-diag
   LASPH  =      F    aspherical Exc in radial PAW
   METAGGA=      F    non-selfconsistent MetaGGA calc.

 Electronic Relaxation 1
   ENCUT  =  200.0 eV  14.70 Ry    3.83 a.u.   4.19  4.19  4.19*2*pi/ulx,y,z
   ENINI  =  200.0     initial cutoff
   ENAUG  =  587.0 eV  augmentation charge cutoff
   NELM   =     60;   NELMIN=  2; NELMDL=  0     # of ELM steps 
   EDIFF  = 0.1E-05   stopping-criterion for ELM
   LREAL  =      F    real-space projection
   NLSPLINE    = F    spline interpolate recip. space projectors
   LCOMPAT=      F    compatible to vasp.4.4
   GGA_COMPAT  = T    GGA compatible to vasp.4.4-vasp.4.6
   LMAXPAW     = -100 max onsite density
   LMAXMIX     =    2 max onsite mixed and CHGCAR
   VOSKOWN=      0    Vosko Wilk Nusair interpolation
   ROPT   =    0.00000
 Ionic relaxation
   EDIFFG = 0.1E-04   stopping-criterion for IOM
   NSW    =      0    number of steps for IOM
   NBLOCK =      1;   KBLOCK =      1    inner block; outer block 
   IBRION =     -1    ionic relax: 0-MD 1-quasi-New 2-CG
   NFREE  =      0    steps in history (QN), initial steepest desc. (CG)
   ISIF   =      2    stress and relaxation
   IWAVPR =      0    prediction:  0-non 1-charg 2-wave 3-comb
   ISYM   =      2    0-nonsym 1-usesym 2-fastsym
   LCORR  =      T    Harris-Foulkes like correction to forces

   POTIM  = 0.5000    time-step for ionic-motion
   TEIN   =    0.0    initial temperature
   TEBEG  =    0.0;   TEEND  =   0.0 temperature during run
   SMASS  =  -3.00    Nose mass-parameter (am)
   estimated Nose-frequenzy (Omega)   =  0.10E-29 period in steps = 0.13E+47 mass=  -0.302E-27a.u.
   SCALEE = 1.0000    scale energy and forces
   NPACO  =    256;   APACO  = 16.0  distance and # of slots for P.C.
   PSTRESS=    0.0 pullay stress

  Mass of Ions in am
   POMASS =  63.55
  Ionic Valenz
   ZVAL   =  11.00
  Atomic Wigner-Seitz radii
   RWIGS  =  -1.00
  virtual crystal weights 
   VCA    =   1.00
   NELECT =      44.0000    total number of electrons
   NUPDOWN=      -1.0000    fix difference up-down

 DOS related values:
   EMIN   =  10.00;   EMAX   =-10.00  energy-range for DOS
   EFERMI =   0.00
   ISMEAR =     1;   SIGMA  =   0.20  broadening in eV -4-tet -1-fermi 0-gaus

 Electronic relaxation 2 (details)
   IALGO  =     38    algorithm
   LDIAG  =      T    sub-space diagonalisation (order eigenvalues)
   LSUBROT=      F    optimize rotation matrix (better conditioning)
   TURBO    =      0    0=normal 1=particle mesh
   IRESTART =      0    0=no restart 2=restart with 2 vectors
   NREBOOT  =      0    no. of reboots
   NMIN     =      0    reboot dimension
   EREF     =   0.00    reference energy to select bands
   IMIX   =      4    mixing-type and parameters
     AMIX     =   0.40;   BMIX     =  1.00
     AMIX_MAG =   1.60;   BMIX_MAG =  1.00
     AMIN     =   0.10
     WC   =   100.;   INIMIX=   1;  MIXPRE=   1;  MAXMIX= -45

 Intra band minimization:
   WEIMIN = 0.0000     energy-eigenvalue tresh-hold
   EBREAK =  0.83E-08  absolut break condition
   DEPER  =   0.30     relativ break condition  

   TIME   =   0.40     timestep for ELM

  volume/ion in A,a.u.               =      12.01        81.03
  Fermi-wavevector in a.u.,A,eV,Ry     =   1.589967  3.004601 34.395439  2.527993
  Thomas-Fermi vector in A             =   2.688734
 
 Write flags
   LWAVE        =      T    write WAVECAR
   LDOWNSAMPLE  =      F    k-point downsampling of WAVECAR
   LCHARG       =      T    write CHGCAR
   LVTOT        =      F    write LOCPOT, total local potential
   LVHAR        =      F    write LOCPOT, Hartree potential only
   LELF         =      F    write electronic localiz. function (ELF)
   LORBIT       =      0    0 simple, 1 ext, 2 COOP (PROOUT), +10 PAW based schemes


 Dipole corrections
   LMONO  =      F    monopole corrections only (constant potential shift)
   LDIPOL =      F    correct potential (dipole corrections)
   IDIPOL =      0    1-x, 2-y, 3-z, 4-all directions 
   EPSILON=  1.0000000 bulk dielectric constant

 Exchange correlation treatment:
   GGA     =    PE    GGA type
   LEXCH   =     8    internal setting for exchange type
   VOSKOWN=      0    Vosko Wilk Nusair interpolation
   LHFCALC =     F    Hartree Fock is set to
   LHFONE  =     F    Hartree Fock one center treatment
   AEXX    =    0.0000 exact exchange contribution

 Linear response parameters
   LEPSILON=     F    determine dielectric tensor
   LRPA    =     F    only Hartree local field effects (RPA)
   LNABLA  =     F    use nabla operator in PAW spheres
   LVEL    =     F    velocity operator in full k-point grid
   LINTERFAST=   F  fast interpolation
   KINTER  =     0    interpolate to denser k-point grid
   CSHIFT  =0.1000    complex shift for real part using Kramers Kronig
   OMEGAMAX=  -1.0    maximum frequency
   DEG_THRESHOLD= 0.2000000E-02 threshold for treating states as degnerate
   RTIME   =   -0.100 relaxation time in fs
  (WPLASMAI=    0.000 imaginary part of plasma frequency in eV, 0.658/RTIME)
   DFIELD  = 0.0000000 0.0000000 0.0000000 field for delta impulse in time
 
 Orbital magnetization related:
   ORBITALMAG=     F  switch on orbital magnetization
   LCHIMAG   =     F  perturbation theory with respect to B field
   DQ        =  0.001000  dq finite difference perturbation B field
   LLRAUG    =     F  two centre corrections for induced B field



--------------------------------------------------------------------------------------------------------


 Static calculation
 charge density and potential will be updated during run
 non-spin polarized calculation
 Variant of blocked Davidson
 Davidson routine will perform the subspace rotation
 perform sub-space diagonalisation
    after iterative eigenvector-optimisation
 modified Broyden-mixing scheme, WC =      100.0
 initial mixing is a Kerker type mixing with AMIX =  0.4000 and BMIX =      1.0000
 Hartree-type preconditioning will be used
 using additional bands            8
 reciprocal scheme for non local part
 use partial core corrections
 calculate Harris-corrections to forces 
   (improved forces if not selfconsistent)
 use gradient corrections 
 use of overlap-Matrix (Vanderbilt PP)
 Methfessel and Paxton  Order N= 1 SIGMA  =   0.20


--------------------------------------------------------------------------------------------------------


  energy-cutoff  :      200.00
  volume of cell :       48.03
      direct lattice vectors                 reciprocal lattice vectors
     3.635000000  0.000000000  0.000000000     0.275103164  0.000000000  0.000000000
     0.000000000  3.635000000  0.000000000     0.000000000  0.275103164  0.000000000
     0.000000000  0.000000000  3.635000000     0.000000000  0.000000000  0.275103164

  length of vectors
     3.635000000  3.635000000  3.635000000     0.275103164  0.275103164  0.275103164


 
 old parameters found on file WAVECAR:
  energy-cutoff  :      200.00
  volume of cell :       48.03
      direct lattice vectors                 reciprocal lattice vectors
     3.635000000  0.000000000  0.000000000     0.275103164  0.000000000  0.000000000
     0.000000000  3.635000000  0.000000000     0.000000000  0.275103164  0.000000000
     0.000000000  0.000000000  3.635000000     0.000000000  0.000000000  0.275103164

  length of vectors

 
 k-points in units of 2pi/SCALE and weight: KPOINTS created by Atomic Simulation Env
   0.00000000  0.00000000  0.00000000       0.008
   0.05502063  0.00000000  0.00000000       0.048
   0.11004127  0.00000000  0.00000000       0.048
   0.05502063  0.05502063  0.00000000       0.096
   0.11004127  0.05502063  0.00000000       0.192
   0.11004127  0.11004127  0.00000000       0.096
   0.05502063  0.05502063  0.05502063       0.064
   0.11004127  0.05502063  0.05502063       0.192
   0.11004127  0.11004127  0.05502063       0.192
   0.11004127  0.11004127  0.11004127       0.064
 
 k-points in reciprocal lattice and weights: KPOINTS created by Atomic Simulation Env
   0.00000000  0.00000000  0.00000000       0.008
   0.20000000  0.00000000  0.00000000       0.048
   0.40000000  0.00000000  0.00000000       0.048
   0.20000000  0.20000000  0.00000000       0.096
   0.40000000  0.20000000  0.00000000       0.192
   0.40000000  0.40000000  0.00000000       0.096
   0.20000000  0.20000000  0.20000000       0.064
   0.40000000  0.20000000  0.20000000       0.192
   0.40000000  0.40000000  0.20000000       0.192
   0.40000000  0.40000000  0.40000000       0.064
 
 position of ions in fractional coordinates (direct lattice) 
   0.00000000  0.00000000  0.00000000
   0.50000000  0.50000000  0.00000000
   0.50000000  0.00000000  0.50000000
   0.00000000  0.50000000  0.50000000
 
 position of ions in cartesian coordinates  (Angst):
   0.00000000  0.00000000  0.00000000
   1.81750000  1.81750000  0.00000000
   1.81750000  0.00000000  1.81750000
   0.00000000  1.81750000  1.81750000
 


--------------------------------------------------------------------------------------------------------


 k-point   1 :   0.0000 0.0000 0.0000  plane waves:     305
 k-point   2 :   0.2000 0.0000 0.0000  plane waves:     296
 k-point   3 :   0.4000 0.0000 0.0000  plane waves:     312
 k-point   4 :   0.2000 0.2000 0.0000  plane waves:     310
 k-point   5 :   0.4000 0.2000 0.0000  plane waves:     309
 k-point   6 :   0.4000 0.4000 0.0000  plane waves:     314
 k-point   7 :   0.2000 0.2000 0.2000  plane waves:     302
 k-point   8 :   0.4000 0.2000 0.2000  plane waves:     302
 k-point   9 :   0.4000 0.4000 0.2000  plane waves:     313
 k-point  10 :   0.4000 0.4000 0.4000  plane waves:     308

 maximum number of plane-waves:       314
 maximum index in each direction: 
   IXMAX=    4   IYMAX=    4   IZMAX=    4
   IXMIN=   -4   IYMIN=   -4   IZMIN=   -4


 total amount of memory used by VASP MPI-rank0    33602. kBytes
=======================================================================

   base      :      30000. kBytes
   nonl-proj :        472. kBytes
   grid      :       1216. kBytes
   one-center:         62. kBytes
   wavefun   :       1852. kBytes
 
     INWAV:  cpu time    0.0022: real time    0.0023
 Broyden mixing: mesh for mixing (old mesh)
   NGX =  9   NGY =  9   NGZ =  9
  (NGX  = 28   NGY  = 28   NGZ  = 28)
  gives a total of    729 points

 initial charge density was supplied:
 number of electron      44.0004483 magnetization 
 keeping initial charge density in first step


--------------------------------------------------------------------------------------------------------


 Maximum index for augmentation-charges         1575 (set IRDMAX)


--------------------------------------------------------------------------------------------------------


 First call to EWALD:  gamma=   0.488
 Maximum number of real-space cells 3x 3x 3
 Maximum number of reciprocal cells 3x 3x 3

    FEWALD:  cpu time    0.0009: real time    0.0009


--------------------------------------- Iteration      1(   1)  ---------------------------------------


    POTLOK:  cpu time    0.0052: real time    0.0052
    SETDIJ:  cpu time    0.0037: real time    0.0036
     EDDAV:  cpu time    0.0831: real time    0.0865
       DOS:  cpu time    0.0009: real time    0.0009
    CHARGE:  cpu time    0.0073: real time    0.0073
    MIXING:  cpu time    0.0002: real time    0.0002
    --------------------------------------------
      LOOP:  cpu time    0.1002: real time    0.1036

 eigenvalue-minimisations  :   648
 total energy-change (2. order) :-0.6547037E+01  (-0.7319294E-05)
 number of electron      44.0004484 magnetization 
 augmentation part       27.7801071 magnetization 

 Broyden mixing:
  rms(total) = 0.43757E-03    rms(broyden)= 0.31337E-03
  rms(prec ) = 0.66997E-03
  weight for this iteration     100.00
  WARNING: grid for Broyden might be to small

 Free energy of the ion-electron system (eV)
  ---------------------------------------------------
  alpha Z        PSCENC =       243.62337785
  Ewald energy   TEWEN  =     -4395.34838493
  -Hartree energ DENC   =     -1369.53477700
  -exchange      EXHF   =         0.00000000
  -V(xc)+E(xc)   XCENC  =       178.13846133
  PAW double counting   =      5456.43188128    -5864.99010859
  entropy T*S    EENTRO =        -0.01065766
  eigenvalues    EBANDS =       189.06449822
  atomic energy  EATOM  =      5556.07867217
  Solvation  Ediel_sol  =         0.00000000
  ---------------------------------------------------
  free energy    TOTEN  =        -6.54703734 eV

  energy without entropy =       -6.53637968  energy(sigma->0) =       -6.54348479


--------------------------------------------------------------------------------------------------------




--------------------------------------- Iteration      1(   2)  ---------------------------------------


    POTLOK:  cpu time    0.0049: real time    0.0049
    SETDIJ:  cpu time    0.0036: real time    0.0036
     EDDAV:  cpu time    0.0744: real time    0.0744
       DOS:  cpu time    0.0008: real time    0.0008
    CHARGE:  cpu time    0.0072: real time    0.0072
    MIXING:  cpu time    0.0002: real time    0.0002
    --------------------------------------------
      LOOP:  cpu time    0.0911: real time    0.0911

 eigenvalue-minimisations  :   642
 total energy-change (2. order) : 0.1094983E-02  (-0.7695563E-05)
 number of electron      44.0004483 magnetization 
 augmentation part       27.7814129 magnetization 

 Broyden mixing:
  rms(total) = 0.62324E-03    rms(broyden)= 0.56723E-03
  rms(prec ) = 0.12498E-02
  weight for this iteration     100.00

 eigenvalues of (default mixing * dielectric matrix)
  average eigenvalue GAMMA=   0.3539
  0.3539

 Free energy of the ion-electron system (eV)
  ---------------------------------------------------
  alpha Z        PSCENC =       243.62337785
  Ewald energy   TEWEN  =     -4395.34838493
  -Hartree energ DENC   =     -1369.51834820
  -exchange      EXHF   =         0.00000000
  -V(xc)+E(xc)   XCENC  =       178.13755755
  PAW double counting   =      5456.41722082    -5864.97266967
  entropy T*S    EENTRO =        -0.01056665
  eigenvalues    EBANDS =       189.04719871
  atomic energy  EATOM  =      5556.07867217
  Solvation  Ediel_sol  =         0.00000000
  ---------------------------------------------------
  free energy    TOTEN  =        -6.54594236 eV

  energy without entropy =       -6.53537571  energy(sigma->0) =       -6.54242014


--------------------------------------------------------------------------------------------------------




--------------------------------------- Iteration      1(   3)  ---------------------------------------


    POTLOK:  cpu time    0.0047: real time    0.0047
    SETDIJ:  cpu time    0.0036: real time    0.0036
     EDDAV:  cpu time    0.0530: real time    0.0530
       DOS:  cpu time    0.0008: real time    0.0008
    --------------------------------------------
      LOOP:  cpu time    0.0621: real time    0.0621

 eigenvalue-minimisations  :   380
 total energy-change (2. order) : 0.8040188E-06  (-0.1446087E-06)
 number of electron      44.0004483 magnetization 
 augmentation part       27.7814129 magnetization 

 Free energy of the ion-electron system (eV)
  ---------------------------------------------------
  alpha Z        PSCENC =       243.62337785
  Ewald energy   TEWEN  =     -4395.34838493
  -Hartree energ DENC   =     -1369.53065163
  -exchange      EXHF   =         0.00000000
  -V(xc)+E(xc)   XCENC  =       178.13824961
  PAW double counting   =      5456.42961338    -5864.98861693
  entropy T*S    EENTRO =        -0.01058573
  eigenvalues    EBANDS =       189.06238466
  atomic energy  EATOM  =      5556.07867217
  Solvation  Ediel_sol  =         0.00000000
  ---------------------------------------------------
  free energy    TOTEN  =        -6.54594155 eV

  energy without entropy =       -6.53535582  energy(sigma->0) =       -6.54241298


--------------------------------------------------------------------------------------------------------




 average (electrostatic) potential at core
  the test charge radii are     0.9430
  (the norm of the test charge is              1.0000)
       1 -64.4030       2 -64.4030       3 -64.4030       4 -64.4030
 
 
 
 E-fermi :   7.0372     XC(G=0): -12.4996     alpha+bet :-13.2037

 Fermi energy:         7.0371849627

 k-point     1 :       0.0000    0.0000    0.0000
  band No.  band energies     occupation 
      1      -1.7667      2.00000
      2       3.1048      2.00000
      3       3.1048      2.00000
      4       3.1048      2.00000
      5       3.3956      2.00000
      6       3.3956      2.00000
      7       3.3956      2.00000
      8       4.8932      2.00000
      9       4.8932      2.00000
     10       4.8932      2.00000
     11       5.1260      2.00000
     12       5.1260      2.00000
     13       5.2202      2.00000
     14       5.2202      2.00000
     15       5.2202      2.00000
     16       5.4203      2.00000
     17       5.4203      2.00000
     18       5.4203      2.00000
     19       5.4203      2.00000
     20       5.4203      2.00000
     21       5.4203      2.00000
     22       8.9886     -0.00000
     23       8.9886     -0.00000
     24       8.9886     -0.00000
     25      14.2918      0.00000
     26      14.2918      0.00000
     27      14.2918      0.00000
     28      20.4063      0.00000
     29      20.4063      0.00000
     30      20.4063      0.00000

 k-point     2 :       0.2000    0.0000    0.0000
  band No.  band energies     occupation 
      1      -1.2898      2.00000
      2       2.5666      2.00000
      3       3.3052      2.00000
      4       3.3052      2.00000
      5       3.3452      2.00000
      6       3.3452      2.00000
      7       3.6342      2.00000
      8       4.7927      2.00000
      9       5.0295      2.00000
     10       5.0295      2.00000
     11       5.0722      2.00000
     12       5.0722      2.00000
     13       5.1758      2.00000
     14       5.2019      2.00000
     15       5.2213      2.00000
     16       5.2213      2.00000
     17       5.2506      2.00000
     18       5.3033      2.00000
     19       5.3033      2.00000
     20       5.5678      2.00000
     21       5.5678      2.00000
     22       6.8407      2.04640
     23       9.9947     -0.00000
     24       9.9947     -0.00000
     25      14.4813      0.00000
     26      14.4813      0.00000
     27      17.3281      0.00000
     28      18.0961      0.00000
     29      18.0961      0.00000
     30      18.7731      0.00000

 k-point     3 :       0.4000    0.0000    0.0000
  band No.  band energies     occupation 
      1       0.0640      2.00000
      2       1.8283      2.00000
      3       3.1147      2.00000
      4       3.1147      2.00000
      5       3.7376      2.00000
      6       3.7376      2.00000
      7       3.8992      2.00000
      8       4.1689      2.00000
      9       4.1689      2.00000
     10       4.2680      2.00000
     11       4.5347      2.00000
     12       4.5347      2.00000
     13       4.6570      2.00000
     14       4.8590      2.00000
     15       4.9277      2.00000
     16       4.9277      2.00000
     17       4.9381      2.00000
     18       4.9381      2.00000
     19       5.1368      2.00000
     20       5.3130      2.00000
     21       5.4713      2.00000
     22       5.4713      2.00000
     23      12.1611     -0.00000
     24      12.1611     -0.00000
     25      14.9477      0.00000
     26      14.9477      0.00000
     27      15.0701      0.00000
     28      15.0701      0.00000
     29      16.5902      0.00000
     30      16.5902      0.00000

 k-point     4 :       0.2000    0.2000    0.0000
  band No.  band energies     occupation 
      1      -0.8252      2.00000
      2       2.7357      2.00000
      3       2.7357      2.00000
      4       3.2512      2.00000
      5       3.3429      2.00000
      6       3.3429      2.00000
      7       3.5119      2.00000
      8       4.1496      2.00000
      9       4.6180      2.00000
     10       4.6180      2.00000
     11       4.6853      2.00000
     12       4.7164      2.00000
     13       4.9121      2.00000
     14       5.2101      2.00000
     15       5.2164      2.00000
     16       5.2164      2.00000
     17       5.2233      2.00000
     18       5.2490      2.00000
     19       5.2490      2.00000
     20       5.2689      2.00000
     21       5.3343      2.00000
     22       7.7213     -0.00001
     23       7.7213     -0.00001
     24      10.8169     -0.00000
     25      14.4379      0.00000
     26      14.9423      0.00000
     27      17.6623      0.00000
     28      17.6623      0.00000
     29      18.6663      0.00000
     30      18.6663      0.00000

 k-point     5 :       0.4000    0.2000    0.0000
  band No.  band energies     occupation 
      1       0.4827      2.00000
      2       2.1362      2.00000
      3       3.2850      2.00000
      4       3.4919      2.00000
      5       3.6189      2.00000
      6       3.6304      2.00000
      7       3.7944      2.00000
      8       3.9140      2.00000
      9       3.9321      2.00000
     10       4.0855      2.00000
     11       4.2284      2.00000
     12       4.5577      2.00000
     13       4.6835      2.00000
     14       4.8983      2.00000
     15       4.9529      2.00000
     16       4.9722      2.00000
     17       5.0414      2.00000
     18       5.1521      2.00000
     19       5.2268      2.00000
     20       5.3736      2.00000
     21       5.4166      2.00000
     22       5.7642      2.00000
     23       9.4427     -0.00000
     24      11.6952     -0.00000
     25      12.8239      0.00000
     26      15.4656      0.00000
     27      15.5352      0.00000
     28      16.9709      0.00000
     29      18.7912      0.00000
     30      20.2577      0.00000

 k-point     6 :       0.4000    0.4000    0.0000
  band No.  band energies     occupation 
      1       1.6145      2.00000
      2       2.8600      2.00000
      3       2.8600      2.00000
      4       3.2482      2.00000
      5       3.7084      2.00000
      6       3.7084      2.00000
      7       3.7614      2.00000
      8       3.7645      2.00000
      9       3.9060      2.00000
     10       3.9948      2.00000
     11       3.9948      2.00000
     12       4.4732      2.00000
     13       4.6238      2.00000
     14       4.6413      2.00000
     15       4.8263      2.00000
     16       4.8263      2.00000
     17       5.0177      2.00000
     18       5.0540      2.00000
     19       5.0582      2.00000
     20       5.0582      2.00000
     21       5.7848      2.00000
     22       6.9161      1.84496
     23       6.9161      1.84496
     24       8.7171     -0.00000
     25      14.5748      0.00000
     26      16.4523      0.00000
     27      17.1307      0.00000
     28      17.1307      0.00000
     29      18.2433      0.00000
     30      18.2433      0.00000

 k-point     7 :       0.2000    0.2000    0.2000
  band No.  band energies     occupation 
      1      -0.3770      2.00000
      2       3.0016      2.00000
      3       3.0016      2.00000
      4       3.0016      2.00000
      5       3.5553      2.00000
      6       3.5553      2.00000
      7       3.5553      2.00000
      8       4.2609      2.00000
      9       4.4822      2.00000
     10       4.4822      2.00000
     11       4.4822      2.00000
     12       4.7728      2.00000
     13       4.7728      2.00000
     14       5.0217      2.00000
     15       5.0217      2.00000
     16       5.0217      2.00000
     17       5.3458      2.00000
     18       5.3458      2.00000
     19       5.4402      2.00000
     20       5.4402      2.00000
     21       5.4402      2.00000
     22       8.3552     -0.00000
     23       8.3552     -0.00000
     24       8.3552     -0.00000
     25      15.2617      0.00000
     26      15.2617      0.00000
     27      15.2617      0.00000
     28      18.0516      0.00000
     29      18.0516      0.00000
     30      18.0516      0.00000

 k-point     8 :       0.4000    0.2000    0.2000
  band No.  band energies     occupation 
      1       0.8641      2.00000
      2       2.3790      2.00000
      3       3.3958      2.00000
      4       3.3958      2.00000
      5       3.6687      2.00000
      6       3.6687      2.00000
      7       3.7744      2.00000
      8       4.1425      2.00000
      9       4.1770      2.00000
     10       4.1770      2.00000
     11       4.3189      2.00000
     12       4.6833      2.00000
     13       4.7459      2.00000
     14       4.8466      2.00000
     15       4.8484      2.00000
     16       4.8484      2.00000
     17       5.2171      2.00000
     18       5.2571      2.00000
     19       5.3506      2.00000
     20       5.3506      2.00000
     21       5.3735      2.00000
     22       6.0303      2.00000
     23       9.7666     -0.00000
     24       9.7666     -0.00000
     25      12.4287     -0.00000
     26      12.4287     -0.00000
     27      16.7803      0.00000
     28      19.1009      0.00000
     29      19.1705      0.00000
     30      19.1705      0.00000

 k-point     9 :       0.4000    0.4000    0.2000
  band No.  band energies     occupation 
      1       1.8159      2.00000
      2       2.6977      2.00000
      3       2.6977      2.00000
      4       3.0469      2.00000
      5       3.9203      2.00000
      6       3.9203      2.00000
      7       3.9517      2.00000
      8       4.0834      2.00000
      9       4.1571      2.00000
     10       4.1571      2.00000
     11       4.2712      2.00000
     12       4.4941      2.00000
     13       4.5442      2.00000
     14       4.6474      2.00000
     15       4.6842      2.00000
     16       4.6842      2.00000
     17       4.9646      2.00000
     18       5.2021      2.00000
     19       5.2133      2.00000
     20       5.2133      2.00000
     21       5.6001      2.00000
     22       6.9392      1.72927
     23       6.9392      1.72927
     24       8.7000     -0.00000
     25      11.8261     -0.00000
     26      13.8146      0.00000
     27      13.8146      0.00000
     28      16.0610      0.00000
     29      20.3905      0.00000
     30      22.3915      0.00000

 k-point    10 :       0.4000    0.4000    0.4000
  band No.  band energies     occupation 
      1       2.2794      2.00000
      2       2.5974      2.00000
      3       2.5974      2.00000
      4       2.5974      2.00000
      5       4.1957      2.00000
      6       4.1957      2.00000
      7       4.1957      2.00000
      8       4.5444      2.00000
      9       4.5444      2.00000
     10       4.5444      2.00000
     11       4.5851      2.00000
     12       4.5851      2.00000
     13       4.7248      2.00000
     14       4.7248      2.00000
     15       4.7248      2.00000
     16       5.2364      2.00000
     17       5.2489      2.00000
     18       5.2489      2.00000
     19       5.3054      2.00000
     20       5.3054      2.00000
     21       5.3054      2.00000
     22       7.1713      0.10158
     23       7.1713      0.10158
     24       7.1713      0.10158
     25      11.3439     -0.00000
     26      11.3439     -0.00000
     27      11.3439     -0.00000
     28      13.1572      0.00000
     29      25.7003      0.00000
     30      25.7003      0.00000


--------------------------------------------------------------------------------------------------------


 soft charge-density along one line, spin component           1
         0         1         2         3         4         5         6         7         8         9
x    16.2190    0.0000   -0.0000    0.0000    0.9805   -0.0000   -0.0000   -0.0000   -0.5230   -0.0000
x    -0.0000    0.0000    0.0795   -0.0000    0.0000    0.0000
y    16.2190    0.0000   -0.0000    0.0000    0.9805   -0.0000   -0.0000   -0.0000   -0.5230   -0.0000
y    -0.0000    0.0000    0.0795   -0.0000    0.0000    0.0000
z    16.2190    0.0000   -0.0000    0.0000    0.9805   -0.0000   -0.0000   -0.0000   -0.5230   -0.0000
z    -0.0000    0.0000    0.0795   -0.0000    0.0000    0.0000
 total charge-density along one line
x    44.0004    0.0000    0.0000    0.0000   18.9174    0.0000    0.0000    0.0000    3.4267    0.0000
x     0.0000    0.0000    0.0165    0.0000   -0.0000    0.0000    0.0225    0.0000   -0.0000   -0.0000
x    -0.0075    0.0000   -0.0000    0.0000    0.0037    0.0000   -0.0000   -0.0000   -0.0028    0.0000
y    44.0004    0.0000    0.0000    0.0000   18.9174    0.0000    0.0000    0.0000    3.4267   -0.0000
y    -0.0000    0.0000    0.0165   -0.0000    0.0000    0.0000    0.0225   -0.0000    0.0000    0.0000
y    -0.0075   -0.0000    0.0000   -0.0000    0.0037    0.0000   -0.0000   -0.0000   -0.0028    0.0000
z    44.0004    0.0000    0.0000    0.0000   18.9174    0.0000    0.0000    0.0000    3.4267   -0.0000
z     0.0000    0.0000    0.0165   -0.0000    0.0000    0.0000    0.0225   -0.0000    0.0000    0.0000
z    -0.0075    0.0000    0.0000    0.0000    0.0037   -0.0000   -0.0000    0.0000   -0.0028    0.0000
 
 pseudopotential strength for first ion, spin component:           1
 -3.577   0.000   0.000   0.000  -0.000  -4.176  -0.000  -0.000
  0.000  -3.577   0.000   0.000  -0.000  -0.000  -4.176  -0.000
  0.000   0.000  -3.564   0.000   0.000  -0.000  -0.000  -4.185
  0.000   0.000   0.000  -3.577  -0.000  -0.000  -0.000  -0.000
 -0.000  -0.000   0.000  -0.000  -3.564   0.000   0.000  -0.000
 -4.176  -0.000  -0.000  -0.000   0.000   9.843   0.000   0.000
 -0.000  -4.176  -0.000  -0.000   0.000   0.000   9.843   0.000
 -0.000  -0.000  -4.185  -0.000  -0.000   0.000   0.000   9.849
 -0.000  -0.000  -0.000  -4.176   0.000   0.000  -0.000   0.000
  0.000   0.000  -0.000   0.000  -4.185  -0.000  -0.000   0.000
  0.000  -0.000   0.000  -0.000   0.000   0.000  -0.000  -0.000
  0.000  -0.000   0.000  -0.000   0.000   0.000  -0.000  -0.000
  0.000   0.000  -0.000   0.000  -0.000  -0.000  -0.000   0.000
  0.000   0.000   0.000   0.000  -0.000   0.000   0.000  -0.000
  0.000   0.000  -0.000   0.000   0.000   0.000   0.000   0.000
  0.000   0.000  -0.000  -0.000  -0.000   0.000   0.000   0.000
 -0.000   0.000   0.000   0.000   0.000   0.000   0.000   0.000
  0.000  -0.000  -0.000   0.000   0.000   0.000   0.000  -0.000
 total augmentation occupancy for first ion, spin component:           1
  2.056  -0.000   0.000   0.000  -0.000   0.096   0.000  -0.000  -0.000   0.000  -0.000   0.000  -0.000  -0.000  -0.000  -0.000
  0.000   2.056  -0.000   0.000  -0.000   0.000   0.096  -0.000  -0.000  -0.000  -0.000  -0.000   0.000  -0.000  -0.000   0.000
 -0.000   0.000   2.069   0.000   0.000   0.000  -0.000   0.078   0.000   0.000   0.000   0.000   0.000   0.000   0.000   0.000
 -0.000  -0.000  -0.000   2.056  -0.000  -0.000  -0.000   0.000   0.096  -0.000  -0.000  -0.000   0.000  -0.000   0.000  -0.000
  0.000  -0.000  -0.000  -0.000   2.069   0.000  -0.000   0.000   0.000   0.078   0.000  -0.000  -0.000  -0.000   0.000  -0.000
  0.096  -0.000   0.000  -0.000  -0.000   0.027   0.000   0.000   0.000   0.000   0.000  -0.000   0.000  -0.000   0.000  -0.000
  0.000   0.096   0.000   0.000  -0.000  -0.000   0.027   0.000  -0.000  -0.000   0.000   0.000   0.000   0.000  -0.000  -0.000
 -0.000  -0.000   0.078  -0.000   0.000   0.000   0.000   0.021   0.000   0.000   0.000   0.000   0.000   0.000   0.000   0.000
 -0.000   0.000   0.000   0.096   0.000  -0.000   0.000   0.000   0.027   0.000  -0.000  -0.000   0.000  -0.000   0.000  -0.000
 -0.000  -0.000   0.000   0.000   0.078   0.000  -0.000   0.000   0.000   0.021   0.000  -0.000  -0.000  -0.000   0.000   0.000
 -0.000  -0.000   0.000  -0.000  -0.000  -0.000   0.000   0.000   0.000  -0.000   1.620  -0.125   0.000   0.000   0.000   0.000
 -0.000  -0.000   0.000  -0.000  -0.000  -0.000   0.000   0.000  -0.000  -0.000  -0.125   0.021   0.000   0.000  -0.000   0.000
 -0.000   0.000  -0.000   0.000  -0.000   0.000   0.000   0.000   0.000   0.000   0.000   0.000   0.267   0.000   0.000  -0.038
 -0.000  -0.000   0.000  -0.000  -0.000  -0.000   0.000   0.000  -0.000  -0.000   0.000   0.000   0.000   0.267   0.000  -0.000
 -0.000  -0.000   0.000   0.000   0.000   0.000  -0.000   0.000   0.000  -0.000   0.000   0.000   0.000   0.000   0.267   0.000
  0.000   0.000   0.000  -0.000   0.000  -0.000  -0.000  -0.000  -0.000  -0.000   0.000   0.000  -0.038  -0.000  -0.000   0.010
  0.000   0.000  -0.000  -0.000   0.000   0.000  -0.000   0.000   0.000   0.000   0.000  -0.000  -0.000  -0.038  -0.000   0.000
 -0.000   0.000   0.000   0.000   0.000   0.000   0.000   0.000   0.000   0.000   0.000  -0.000  -0.000   0.000  -0.038  -0.000


------------------------ aborting loop because EDIFF is reached ----------------------------------------


    CHARGE:  cpu time    0.0070: real time    0.0070
    FORLOC:  cpu time    0.0005: real time    0.0005
    FORNL :  cpu time    0.0230: real time    0.0230
    STRESS:  cpu time    0.0392: real time    0.0392
    FORCOR:  cpu time    0.0068: real time    0.0068
    FORHAR:  cpu time    0.0013: real time    0.0013
    MIXING:  cpu time    0.0003: real time    0.0003

  FORCE on cell =-STRESS in cart. coord.  units (eV):
  Direction    XX          YY          ZZ          XY          YZ          ZX
  --------------------------------------------------------------------------------------
  Alpha Z   243.62338   243.62338   243.62338
  Ewald   -1465.11677 -1465.11677 -1465.11677     0.00000     0.00000     0.00000
  Hartree   456.52553   456.52553   456.52553    -0.00000    -0.00000    -0.00000
  E(xc)    -257.74201  -257.74201  -257.74201     0.00000    -0.00000    -0.00000
  Local     352.18169   352.18169   352.18169     0.00000     0.00000    -0.00000
  n-local  -197.29449  -207.76505  -210.79460     2.73281     3.00683     2.62949
  augment   379.44989   379.44989   379.44989    -0.00000     0.00000     0.00000
  Kinetic   410.39996   402.85314   396.34105    -3.89182     0.23774    -0.35579
  Fock        0.00000     0.00000     0.00000     0.00000     0.00000     0.00000
  -------------------------------------------------------------------------------------
  Total     -93.16496   -93.16496   -93.16496     0.00000     0.00000    -0.00000
  in kB   -3107.77763 -3107.77763 -3107.77763     0.00000     0.00000    -0.00000
  external pressure =    -3107.78 kB  Pullay stress =        0.00 kB


 VOLUME and BASIS-vectors are now :
 -----------------------------------------------------------------------------
  energy-cutoff  :      200.00
  volume of cell :       48.03
      direct lattice vectors                 reciprocal lattice vectors
     3.635000000  0.000000000  0.000000000     0.275103164  0.000000000  0.000000000
     0.000000000  3.635000000  0.000000000     0.000000000  0.275103164  0.000000000
     0.000000000  0.000000000  3.635000000     0.000000000  0.000000000  0.275103164

  length of vectors
     3.635000000  3.635000000  3.635000000     0.275103164  0.275103164  0.275103164


 FORCES acting on ions
    electron-ion (+dipol)            ewald-force                    non-local-force                 convergence-correction
 -----------------------------------------------------------------------------------------------
   -.160E-12 -.245E-13 -.203E-14   0.103E-13 0.597E-14 -.166E-13   -.191E-23 0.207E-23 0.130E-23   -.437E-13 0.425E-13 -.110E-12
   0.512E-12 0.665E-12 -.383E-14   0.175E-13 0.141E-13 -.168E-13   -.342E-23 -.755E-24 -.660E-23   -.154E-12 -.103E-12 -.583E-13
   0.552E-12 -.180E-13 0.703E-12   -.529E-14 -.138E-13 0.159E-13   0.904E-24 0.135E-23 -.166E-23   -.153E-12 -.306E-13 -.143E-12
   -.157E-12 0.676E-12 0.692E-12   -.204E-13 -.566E-14 0.157E-13   0.248E-24 -.380E-24 -.225E-23   -.323E-13 -.109E-12 -.154E-12
 -----------------------------------------------------------------------------------------------
   0.746E-12 0.130E-11 0.139E-11   0.207E-14 0.619E-15 -.180E-14   -.418E-23 0.229E-23 -.921E-23   -.384E-12 -.200E-12 -.465E-12
 
 
 POSITION                                       TOTAL-FORCE (eV/Angst)
 -----------------------------------------------------------------------------------
      0.00000      0.00000      0.00000        -0.000000      0.000000      0.000000
      1.81750      1.81750      0.00000        -0.000000     -0.000000      0.000000
      1.81750      0.00000      1.81750         0.000000      0.000000     -0.000000
      0.00000      1.81750      1.81750        -0.000000      0.000000      0.000000
 -----------------------------------------------------------------------------------
    total drift:                                0.000000      0.000000      0.000000


--------------------------------------------------------------------------------------------------------



  FREE ENERGIE OF THE ION-ELECTRON SYSTEM (eV)
  ---------------------------------------------------
  free  energy   TOTEN  =        -6.54594155 eV

  energy  without entropy=       -6.53535582  energy(sigma->0) =       -6.54241298
 


--------------------------------------------------------------------------------------------------------


    POTLOK:  cpu time    0.0109: real time    0.0109


--------------------------------------------------------------------------------------------------------


 writing wavefunctions
     LOOP+:  cpu time    0.3657: real time    0.3691
    4ORBIT:  cpu time    0.0000: real time    0.0000

 total amount of memory used by VASP MPI-rank0    33602. kBytes
=======================================================================

   base      :      30000. kBytes
   nonl-proj :        472. kBytes
   grid      :       1216. kBytes
   one-center:         62. kBytes
   wavefun   :       1852. kBytes
 
  
  
 General timing and accounting informations for this job:
 ========================================================
  
                  Total CPU time used (sec):        0.475
                            User time (sec):        0.451
                          System time (sec):        0.024
                         Elapsed time (sec):        0.471
  
                   Maximum memory used (kb):       37788.
                   Average memory used (kb):          N/A
  
                          Minor page faults:         3233
                          Major page faults:            0
                 Voluntary context switches:           27
