unknown system                          
   1.00000000000000     
     3.445083    0.000000    0.000000
     0.000000    3.445083    0.000000
     0.000000    0.000000    3.445083
   Fe
     4
Direct
  0.000000  0.000000  0.000000
  0.500000  0.500000  0.000000
  0.500000  0.000000  0.500000
  0.000000  0.500000  0.500000
 
   28   28   28
  342.83      322.84      269.84      200.48      132.28      77.318      40.883      22.291      15.699      12.971    
  11.314      10.302      9.7351      9.5571      9.5500      9.5571      9.7351      10.302      11.314      12.971    
  15.699      22.291      40.883      77.318      132.28      200.48      269.84      322.84      322.84      303.98    
  253.97      188.53      124.26      72.649      38.712      21.631      15.613      12.960      11.341      10.343    
  9.7706      9.5747      9.5571      9.5747      9.7706      10.343      11.341      12.960      15.613      21.631    
  38.712      72.649      124.26      188.53      253.97      303.98      269.84      253.97      211.89      156.87    
  103.10      60.481      33.186      20.028      15.383      12.947      11.463      10.537      9.9874      9.7706    
  9.7351      9.7706      9.9874      10.537      11.463      12.947      15.383      20.028      33.186      60.481    
  103.10      156.87      211.89      253.97      200.48      188.53      156.87      115.68      75.916      45.273    
  26.643      18.303      15.037      12.972      11.741      10.988      10.537      10.343      10.302      10.343    
  10.537      10.988      11.741      12.972      15.037      18.303      26.643      45.273      75.916      115.68    
  156.87      188.53      132.28      124.26      103.10      75.916      50.393      31.736      21.358      17.027    
  14.658      13.104      12.234      11.741      11.463      11.341      11.314      11.341      11.463      11.741    
  12.234      13.104      14.658      17.027      21.358      31.736      50.393      75.916      103.10      124.26    
  77.318      72.649      60.481      45.273      31.736      22.719      18.276      16.041      14.426      13.504    
  13.104      12.972      12.947      12.960      12.971      12.960      12.947      12.972      13.104      13.504    
  14.426      16.041      18.276      22.719      31.736      45.273      60.481      72.649      40.883      38.712    
  33.186      26.643      21.358      18.276      16.573      15.290      14.575      14.426      14.658      15.037    
  15.383      15.613      15.699      15.613      15.383      15.037      14.658      14.426      14.575      15.290    
  16.573      18.276      21.358      26.643      33.186      38.712      22.291      21.631      20.028      18.303    
  17.027      16.041      15.290      15.009      15.290      16.041      17.027      18.303      20.028      21.631    
  22.291      21.631      20.028      18.303      17.027      16.041      15.290      15.009      15.290      16.041    
  17.027      18.303      20.028      21.631      15.699      15.613      15.383      15.037      14.658      14.426    
  14.575      15.290      16.573      18.276      21.358      26.643      33.186      38.712      40.883      38.712    
  33.186      26.643      21.358      18.276      16.573      15.290      14.575      14.426      14.658      15.037    
  15.383      15.613      12.971      12.960      12.947      12.972      13.104      13.504      14.426      16.041    
  18.276      22.719      31.736      45.273      60.481      72.649      77.318      72.649      60.481      45.273    
  31.736      22.719      18.276      16.041      14.426      13.504      13.104      12.972      12.947      12.960    
  11.314      11.341      11.463      11.741      12.234      13.104      14.658      17.027      21.358      31.736    
  50.393      75.916      103.10      124.26      132.28      124.26      103.10      75.916      50.393      31.736    
  21.358      17.027      14.658      13.104      12.234      11.741      11.463      11.341      10.302      10.343    
  10.537      10.988      11.741      12.972      15.037      18.303      26.643      45.273      75.916      115.68    
  156.87      188.53      200.48      188.53      156.87      115.68      75.916      45.273      26.643      18.303    
  15.037      12.972      11.741      10.988      10.537      10.343      9.7351      9.7706      9.9874      10.537    
  11.463      12.947      15.383      20.028      33.186      60.481      103.10      156.87      211.89      253.97    
  269.84      253.97      211.89      156.87      103.10      60.481      33.186      20.028      15.383      12.947    
  11.463      10.537      9.9874      9.7706      9.5571      9.5747      9.7706      10.343      11.341      12.960    
  15.613      21.631      38.712      72.649      124.26      188.53      253.97      303.98      322.84      303.98    
  253.97      188.53      124.26      72.649      38.712      21.631      15.613      12.960      11.341      10.343    
  9.7706      9.5747      9.5500      9.5571      9.7351      10.302      11.314      12.971      15.699      22.291    
  40.883      77.318      132.28      200.48      269.84      322.84      342.83      322.84      269.84      200.48    
  132.28      77.318      40.883      22.291      15.699      12.971      11.314      10.302      9.7351      9.5571    
  9.5571      9.5747      9.7706      10.343      11.341      12.960      15.613      21.631      38.712      72.649    
  124.26      188.53      253.97      303.98      322.84      303.98      253.97      188.53      124.26      72.649    
  38.712      21.631      15.613      12.960      11.341      10.343      9.7706      9.5747      9.7351      9.7706    
  9.9874      10.537      11.463      12.947      15.383      20.028      33.186      60.481      103.10      156.87    
  211.89      253.97      269.84      253.97      211.89      156.87      103.10      60.481      33.186      20.028    
  15.383      12.947      11.463      10.537      9.9874      9.7706      10.302      10.343      10.537      10.988    
  11.741      12.972      15.037      18.303      26.643      45.273      75.916      115.68      156.87      188.53    
  200.48      188.53      156.87      115.68      75.916      45.273      26.643      18.303      15.037      12.972    
  11.741      10.988      10.537      10.343      11.314      11.341      11.463      11.741      12.234      13.104    
  14.658      17.027      21.358      31.736      50.393      75.916      103.10      124.26      132.28      124.26    
  103.10      75.916      50.393      31.736      21.358      17.027      14.658      13.104      12.234      11.741    
  11.463      11.341      12.971      12.960      12.947      12.972      13.104      13.504      14.426      16.041    
  18.276      22.719      31.736      45.273      60.481      72.649      77.318      72.649      60.481      45.273    
  31.736      22.719      18.276      16.041      14.426      13.504      13.104      12.972      12.947      12.960    
  15.699      15.613      15.383      15.037      14.658      14.426      14.575      15.290      16.573      18.276    
  21.358      26.643      33.186      38.712      40.883      38.712      33.186      26.643      21.358      18.276    
  16.573      15.290      14.575      14.426      14.658      15.037      15.383      15.613      22.291      21.631    
  20.028      18.303      17.027      16.041      15.290      15.009      15.290      16.041      17.027      18.303    
  20.028      21.631      22.291      21.631      20.028      18.303      17.027      16.041      15.290      15.009    
  15.290      16.041      17.027      18.303      20.028      21.631      40.883      38.712      33.186      26.643    
  21.358      18.276      16.573      15.290      14.575      14.426      14.658      15.037      15.383      15.613    
  15.699      15.613      15.383      15.037      14.658      14.426      14.575      15.290      16.573      18.276    
  21.358      26.643      33.186      38.712      77.318      72.649      60.481      45.273      31.736      22.719    
  18.276      16.041      14.426      13.504      13.104      12.972      12.947      12.960      12.971      12.960    
  12.947      12.972      13.104      13.504      14.426      16.041      18.276      22.719      31.736      45.273    
  60.481      72.649      132.28      124.26      103.10      75.916      50.393      31.736      21.358      17.027    
  14.658      13.104      12.234      11.741      11.463      11.341      11.314      11.341      11.463      11.741    
  12.234      13.104      14.658      17.027      21.358      31.736      50.393      75.916      103.10      124.26    
  200.48      188.53      156.87      115.68      75.916      45.273      26.643      18.303      15.037      12.972    
  11.741      10.988      10.537      10.343      10.302      10.343      10.537      10.988      11.741      12.972    
  15.037      18.303      26.643      45.273      75.916      115.68      156.87      188.53      269.84      253.97    
  211.89      156.87      103.10      60.481      33.186      20.028      15.383      12.947      11.463      10.537    
  9.9874      9.7706      9.7351      9.7706      9.9874      10.537      11.463      12.947      15.383      20.028    
  33.186      60.481      103.10      156.87      211.89      253.97      322.84      303.98      253.97      188.53    
  124.26      72.649      38.712      21.631      15.613      12.960      11.341      10.343      9.7706      9.5747    
  9.5571      9.5747      9.7706      10.343      11.341      12.960      15.613      21.631      38.712      72.649    
  124.26      188.53      253.97      303.98      322.84      303.98      253.97      188.53      124.26      72.649    
  38.712      21.631      15.613      12.960      11.341      10.343      9.7706      9.5747      9.5571      9.5747    
  9.7706      10.343      11.341      12.960      15.613      21.631      38.712      72.649      124.26      188.53    
  253.97      303.98      303.98      286.19      239.00      177.26      116.71      68.283      36.704      21.033    
  15.532      12.952      11.372      10.388      9.8134      9.6017      9.5747      9.6017      9.8134      10.388    
  11.372      12.952      15.532      21.033      36.704      68.283      116.71      177.26      239.00      286.19    
  253.97      239.00      199.30      147.43      96.831      56.922      31.608      19.587      15.303      12.942    
  11.499      10.591      10.042      9.8134      9.7706      9.8134      10.042      10.591      11.499      12.942    
  15.303      19.587      31.608      56.922      96.831      147.43      199.30      239.00      188.53      177.26    
  147.43      108.66      71.346      42.775      25.607      18.032      14.956      12.965      11.776      11.040    
  10.591      10.388      10.343      10.388      10.591      11.040      11.776      12.965      14.956      18.032    
  25.607      42.775      71.346      108.66      147.43      177.26      124.26      116.71      96.831      71.346    
  47.528      30.268      20.801      16.854      14.577      13.088      12.253      11.776      11.499      11.372    
  11.341      11.372      11.499      11.776      12.253      13.088      14.577      16.854      20.801      30.268    
  47.528      71.346      96.831      116.71      72.649      68.283      56.922      42.775      30.268      22.032    
  18.009      15.884      14.340      13.465      13.088      12.965      12.942      12.952      12.960      12.952    
  12.942      12.965      13.088      13.465      14.340      15.884      18.009      22.032      30.268      42.775    
  56.922      68.283      38.712      36.704      31.608      25.607      20.801      18.009      16.384      15.150    
  14.471      14.340      14.577      14.956      15.303      15.532      15.613      15.532      15.303      14.956    
  14.577      14.340      14.471      15.150      16.384      18.009      20.801      25.607      31.608      36.704    
  21.631      21.033      19.587      18.032      16.854      15.884      15.150      14.876      15.150      15.884    
  16.854      18.032      19.587      21.033      21.631      21.033      19.587      18.032      16.854      15.884    
  15.150      14.876      15.150      15.884      16.854      18.032      19.587      21.033      15.613      15.532    
  15.303      14.956      14.577      14.340      14.471      15.150      16.384      18.009      20.801      25.607    
  31.608      36.704      38.712      36.704      31.608      25.607      20.801      18.009      16.384      15.150    
  14.471      14.340      14.577      14.956      15.303      15.532      12.960      12.952      12.942      12.965    
  13.088      13.465      14.340      15.884      18.009      22.032      30.268      42.775      56.922      68.283    
  72.649      68.283      56.922      42.775      30.268      22.032      18.009      15.884      14.340      13.465    
  13.088      12.965      12.942      12.952      11.341      11.372      11.499      11.776      12.253      13.088    
  14.577      16.854      20.801      30.268      47.528      71.346      96.831      116.71      124.26      116.71    
  96.831      71.346      47.528      30.268      20.801      16.854      14.577      13.088      12.253      11.776    
  11.499      11.372      10.343      10.388      10.591      11.040      11.776      12.965      14.956      18.032    
  25.607      42.775      71.346      108.66      147.43      177.26      188.53      177.26      147.43      108.66    
  71.346      42.775      25.607      18.032      14.956      12.965      11.776      11.040      10.591      10.388    
  9.7706      9.8134      10.042      10.591      11.499      12.942      15.303      19.587      31.608      56.922    
  96.831      147.43      199.30      239.00      253.97      239.00      199.30      147.43      96.831      56.922    
  31.608      19.587      15.303      12.942      11.499      10.591      10.042      9.8134      9.5747      9.6017    
  9.8134      10.388      11.372      12.952      15.532      21.033      36.704      68.283      116.71      177.26    
  239.00      286.19      303.98      286.19      239.00      177.26      116.71      68.283      36.704      21.033    
  15.532      12.952      11.372      10.388      9.8134      9.6017      9.5571      9.5747      9.7706      10.343    
  11.341      12.960      15.613      21.631      38.712      72.649      124.26      188.53      253.97      303.98    
  322.84      303.98      253.97      188.53      124.26      72.649      38.712      21.631      15.613      12.960    
  11.341      10.343      9.7706      9.5747      9.5747      9.6017      9.8134      10.388      11.372      12.952    
  15.532      21.033      36.704      68.283      116.71      177.26      239.00      286.19      303.98      286.19    
  239.00      177.26      116.71      68.283      36.704      21.033      15.532      12.952      11.372      10.388    
  9.8134      9.6017      9.7706      9.8134      10.042      10.591      11.499      12.942      15.303      19.587    
  31.608      56.922      96.831      147.43      199.30      239.00      253.97      239.00      199.30      147.43    
  96.831      56.922      31.608      19.587      15.303      12.942      11.499      10.591      10.042      9.8134    
  10.343      10.388      10.591      11.040      11.776      12.965      14.956      18.032      25.607      42.775    
  71.346      108.66      147.43      177.26      188.53      177.26      147.43      108.66      71.346      42.775    
  25.607      18.032      14.956      12.965      11.776      11.040      10.591      10.388      11.341      11.372    
  11.499      11.776      12.253      13.088      14.577      16.854      20.801      30.268      47.528      71.346    
  96.831      116.71      124.26      116.71      96.831      71.346      47.528      30.268      20.801      16.854    
  14.577      13.088      12.253      11.776      11.499      11.372      12.960      12.952      12.942      12.965    
  13.088      13.465      14.340      15.884      18.009      22.032      30.268      42.775      56.922      68.283    
  72.649      68.283      56.922      42.775      30.268      22.032      18.009      15.884      14.340      13.465    
  13.088      12.965      12.942      12.952      15.613      15.532      15.303      14.956      14.577      14.340    
  14.471      15.150      16.384      18.009      20.801      25.607      31.608      36.704      38.712      36.704    
  31.608      25.607      20.801      18.009      16.384      15.150      14.471      14.340      14.577      14.956    
  15.303      15.532      21.631      21.033      19.587      18.032      16.854      15.884      15.150      14.876    
  15.150      15.884      16.854      18.032      19.587      21.033      21.631      21.033      19.587      18.032    
  16.854      15.884      15.150      14.876      15.150      15.884      16.854      18.032      19.587      21.033    
  38.712      36.704      31.608      25.607      20.801      18.009      16.384      15.150      14.471      14.340    
  14.577      14.956      15.303      15.532      15.613      15.532      15.303      14.956      14.577      14.340    
  14.471      15.150      16.384      18.009      20.801      25.607      31.608      36.704      72.649      68.283    
  56.922      42.775      30.268      22.032      18.009      15.884      14.340      13.465      13.088      12.965    
  12.942      12.952      12.960      12.952      12.942      12.965      13.088      13.465      14.340      15.884    
  18.009      22.032      30.268      42.775      56.922      68.283      124.26      116.71      96.831      71.346    
  47.528      30.268      20.801      16.854      14.577      13.088      12.253      11.776      11.499      11.372    
  11.341      11.372      11.499      11.776      12.253      13.088      14.577      16.854      20.801      30.268    
  47.528      71.346      96.831      116.71      188.53      177.26      147.43      108.66      71.346      42.775    
  25.607      18.032      14.956      12.965      11.776      11.040      10.591      10.388      10.343      10.388    
  10.591      11.040      11.776      12.965      14.956      18.032      25.607      42.775      71.346      108.66    
  147.43      177.26      253.97      239.00      199.30      147.43      96.831      56.922      31.608      19.587    
  15.303      12.942      11.499      10.591      10.042      9.8134      9.7706      9.8134      10.042      10.591    
  11.499      12.942      15.303      19.587      31.608      56.922      96.831      147.43      199.30      239.00    
  303.98      286.19      239.00      177.26      116.71      68.283      36.704      21.033      15.532      12.952    
  11.372      10.388      9.8134      9.6017      9.5747      9.6017      9.8134      10.388      11.372      12.952    
  15.532      21.033      36.704      68.283      116.71      177.26      239.00      286.19      269.84      253.97    
  211.89      156.87      103.10      60.481      33.186      20.028      15.383      12.947      11.463      10.537    
  9.9874      9.7706      9.7351      9.7706      9.9874      10.537      11.463      12.947      15.383      20.028    
  33.186      60.481      103.10      156.87      211.89      253.97      253.97      239.00      199.30      147.43    
  96.831      56.922      31.608      19.587      15.303      12.942      11.499      10.591      10.042      9.8134    
  9.7706      9.8134      10.042      10.591      11.499      12.942      15.303      19.587      31.608      56.922    
  96.831      147.43      199.30      239.00      211.89      199.30      165.95      122.47      80.369      47.711    
  27.634      18.523      15.073      12.934      11.630      10.799      10.280      10.042      9.9874      10.042    
  10.280      10.799      11.630      12.934      15.073      18.523      27.634      47.711      80.369      122.47    
  165.95      199.30      156.87      147.43      122.47      90.173      59.426      36.377      23.034      17.368    
  14.727      12.951      11.889      11.222      10.799      10.591      10.537      10.591      10.799      11.222    
  11.889      12.951      14.727      17.368      23.034      36.377      59.426      90.173      122.47      147.43    
  103.10      96.831      80.369      59.426      40.154      26.577      19.441      16.382      14.355      13.050    
  12.316      11.889      11.630      11.499      11.463      11.499      11.630      11.889      12.316      13.050    
  14.355      16.382      19.441      26.577      40.154      59.426      80.369      96.831      60.481      56.922    
  47.711      36.377      26.577      20.347      17.333      15.462      14.114      13.365      13.050      12.951    
  12.934      12.942      12.947      12.942      12.934      12.951      13.050      13.365      14.114      15.462    
  17.333      20.347      26.577      36.377      47.711      56.922      33.186      31.608      27.634      23.034    
  19.441      17.333      15.879      14.782      14.202      14.114      14.355      14.727      15.073      15.303    
  15.383      15.303      15.073      14.727      14.355      14.114      14.202      14.782      15.879      17.333    
  19.441      23.034      27.634      31.608      20.028      19.587      18.523      17.368      16.382      15.462    
  14.782      14.531      14.782      15.462      16.382      17.368      18.523      19.587      20.028      19.587    
  18.523      17.368      16.382      15.462      14.782      14.531      14.782      15.462      16.382      17.368    
  18.523      19.587      15.383      15.303      15.073      14.727      14.355      14.114      14.202      14.782    
  15.879      17.333      19.441      23.034      27.634      31.608      33.186      31.608      27.634      23.034    
  19.441      17.333      15.879      14.782      14.202      14.114      14.355      14.727      15.073      15.303    
  12.947      12.942      12.934      12.951      13.050      13.365      14.114      15.462      17.333      20.347    
  26.577      36.377      47.711      56.922      60.481      56.922      47.711      36.377      26.577      20.347    
  17.333      15.462      14.114      13.365      13.050      12.951      12.934      12.942      11.463      11.499    
  11.630      11.889      12.316      13.050      14.355      16.382      19.441      26.577      40.154      59.426    
  80.369      96.831      103.10      96.831      80.369      59.426      40.154      26.577      19.441      16.382    
  14.355      13.050      12.316      11.889      11.630      11.499      10.537      10.591      10.799      11.222    
  11.889      12.951      14.727      17.368      23.034      36.377      59.426      90.173      122.47      147.43    
  156.87      147.43      122.47      90.173      59.426      36.377      23.034      17.368      14.727      12.951    
  11.889      11.222      10.799      10.591      9.9874      10.042      10.280      10.799      11.630      12.934    
  15.073      18.523      27.634      47.711      80.369      122.47      165.95      199.30      211.89      199.30    
  165.95      122.47      80.369      47.711      27.634      18.523      15.073      12.934      11.630      10.799    
  10.280      10.042      9.7706      9.8134      10.042      10.591      11.499      12.942      15.303      19.587    
  31.608      56.922      96.831      147.43      199.30      239.00      253.97      239.00      199.30      147.43    
  96.831      56.922      31.608      19.587      15.303      12.942      11.499      10.591      10.042      9.8134    
  9.7351      9.7706      9.9874      10.537      11.463      12.947      15.383      20.028      33.186      60.481    
  103.10      156.87      211.89      253.97      269.84      253.97      211.89      156.87      103.10      60.481    
  33.186      20.028      15.383      12.947      11.463      10.537      9.9874      9.7706      9.7706      9.8134    
  10.042      10.591      11.499      12.942      15.303      19.587      31.608      56.922      96.831      147.43    
  199.30      239.00      253.97      239.00      199.30      147.43      96.831      56.922      31.608      19.587    
  15.303      12.942      11.499      10.591      10.042      9.8134      9.9874      10.042      10.280      10.799    
  11.630      12.934      15.073      18.523      27.634      47.711      80.369      122.47      165.95      199.30    
  211.89      199.30      165.95      122.47      80.369      47.711      27.634      18.523      15.073      12.934    
  11.630      10.799      10.280      10.042      10.537      10.591      10.799      11.222      11.889      12.951    
  14.727      17.368      23.034      36.377      59.426      90.173      122.47      147.43      156.87      147.43    
  122.47      90.173      59.426      36.377      23.034      17.368      14.727      12.951      11.889      11.222    
  10.799      10.591      11.463      11.499      11.630      11.889      12.316      13.050      14.355      16.382    
  19.441      26.577      40.154      59.426      80.369      96.831      103.10      96.831      80.369      59.426    
  40.154      26.577      19.441      16.382      14.355      13.050      12.316      11.889      11.630      11.499    
  12.947      12.942      12.934      12.951      13.050      13.365      14.114      15.462      17.333      20.347    
  26.577      36.377      47.711      56.922      60.481      56.922      47.711      36.377      26.577      20.347    
  17.333      15.462      14.114      13.365      13.050      12.951      12.934      12.942      15.383      15.303    
  15.073      14.727      14.355      14.114      14.202      14.782      15.879      17.333      19.441      23.034    
  27.634      31.608      33.186      31.608      27.634      23.034      19.441      17.333      15.879      14.782    
  14.202      14.114      14.355      14.727      15.073      15.303      20.028      19.587      18.523      17.368    
  16.382      15.462      14.782      14.531      14.782      15.462      16.382      17.368      18.523      19.587    
  20.028      19.587      18.523      17.368      16.382      15.462      14.782      14.531      14.782      15.462    
  16.382      17.368      18.523      19.587      33.186      31.608      27.634      23.034      19.441      17.333    
  15.879      14.782      14.202      14.114      14.355      14.727      15.073      15.303      15.383      15.303    
  15.073      14.727      14.355      14.114      14.202      14.782      15.879      17.333      19.441      23.034    
  27.634      31.608      60.481      56.922      47.711      36.377      26.577      20.347      17.333      15.462    
  14.114      13.365      13.050      12.951      12.934      12.942      12.947      12.942      12.934      12.951    
  13.050      13.365      14.114      15.462      17.333      20.347      26.577      36.377      47.711      56.922    
  103.10      96.831      80.369      59.426      40.154      26.577      19.441      16.382      14.355      13.050    
  12.316      11.889      11.630      11.499      11.463      11.499      11.630      11.889      12.316      13.050    
  14.355      16.382      19.441      26.577      40.154      59.426      80.369      96.831      156.87      147.43    
  122.47      90.173      59.426      36.377      23.034      17.368      14.727      12.951      11.889      11.222    
  10.799      10.591      10.537      10.591      10.799      11.222      11.889      12.951      14.727      17.368    
  23.034      36.377      59.426      90.173      122.47      147.43      211.89      199.30      165.95      122.47    
  80.369      47.711      27.634      18.523      15.073      12.934      11.630      10.799      10.280      10.042    
  9.9874      10.042      10.280      10.799      11.630      12.934      15.073      18.523      27.634      47.711    
  80.369      122.47      165.95      199.30      253.97      239.00      199.30      147.43      96.831      56.922    
  31.608      19.587      15.303      12.942      11.499      10.591      10.042      9.8134      9.7706      9.8134    
  10.042      10.591      11.499      12.942      15.303      19.587      31.608      56.922      96.831      147.43    
  199.30      239.00      200.48      188.53      156.87      115.68      75.916      45.273      26.643      18.303    
  15.037      12.972      11.741      10.988      10.537      10.343      10.302      10.343      10.537      10.988    
  11.741      12.972      15.037      18.303      26.643      45.273      75.916      115.68      156.87      188.53    
  188.53      177.26      147.43      108.66      71.346      42.775      25.607      18.032      14.956      12.965    
  11.776      11.040      10.591      10.388      10.343      10.388      10.591      11.040      11.776      12.965    
  14.956      18.032      25.607      42.775      71.346      108.66      147.43      177.26      156.87      147.43    
  122.47      90.173      59.426      36.377      23.034      17.368      14.727      12.951      11.889      11.222    
  10.799      10.591      10.537      10.591      10.799      11.222      11.889      12.951      14.727      17.368    
  23.034      36.377      59.426      90.173      122.47      147.43      115.68      108.66      90.173      66.520    
  44.506      28.689      20.140      16.573      14.396      12.951      12.098      11.565      11.222      11.040    