unknown system                          
   1.00000000000000     
     3.445083    0.000000    0.000000
     0.000000    3.445083    0.000000
     0.000000    0.000000    3.445083
   Fe
     4
Direct
  0.000000  0.000000  0.000000
  0.500000  0.500000  0.000000
  0.500000  0.000000  0.500000
  0.000000  0.500000  0.500000
 
   28   28   28
 0.34283055134E+03 0.32283862683E+03 0.26983539060E+03 0.20047673904E+03 0.13227871861E+03
 0.77317531130E+02 0.40883397342E+02 0.22291142227E+02 0.15699434486E+02 0.12970663632E+02
 0.11314360769E+02 0.10301981852E+02 0.97351372808E+01 0.95571129979E+01 0.95499768260E+01
 0.95571129979E+01 0.97351372808E+01 0.10301981852E+02 0.11314360769E+02 0.12970663632E+02
 0.15699434486E+02 0.22291142227E+02 0.40883397342E+02 0.77317531130E+02 0.13227871861E+03
 0.20047673904E+03 0.26983539060E+03 0.32283862683E+03 0.32283862683E+03 0.30397958414E+03
 0.25396969563E+03 0.18852831738E+03 0.12425501712E+03 0.72648602778E+02 0.38711966171E+02
 0.21630787634E+02 0.15613167558E+02 0.12960418723E+02 0.11341478551E+02 0.10342529350E+02
 0.97705519758E+01 0.95746623589E+01 0.95571129979E+01 0.95746623589E+01 0.97705519758E+01
 0.10342529350E+02 0.11341478551E+02 0.12960418723E+02 0.15613167558E+02 0.21630787634E+02
 0.38711966171E+02 0.72648602778E+02 0.12425501712E+03 0.18852831738E+03 0.25396969563E+03
 0.30397958414E+03 0.26983539060E+03 0.25396969563E+03 0.21188958867E+03 0.15687452924E+03
 0.10309982177E+03 0.60480669896E+02 0.33185851274E+02 0.20027754630E+02 0.15382949485E+02
 0.12947405304E+02 0.11462719115E+02 0.10536954068E+02 0.99873762330E+01 0.97705519758E+01
 0.97351372808E+01 0.97705519758E+01 0.99873762330E+01 0.10536954068E+02 0.11462719115E+02
 0.12947405304E+02 0.15382949485E+02 0.20027754630E+02 0.33185851274E+02 0.60480669896E+02
 0.10309982177E+03 0.15687452924E+03 0.21188958867E+03 0.25396969563E+03 0.20047673904E+03
 0.18852831738E+03 0.15687452924E+03 0.11567801900E+03 0.75916324272E+02 0.45272666724E+02
 0.26643320330E+02 0.18302994935E+02 0.15036744744E+02 0.12971733893E+02 0.11741470986E+02
 0.10987849045E+02 0.10536954068E+02 0.10342529350E+02 0.10301981852E+02 0.10342529350E+02
 0.10536954068E+02 0.10987849045E+02 0.11741470986E+02 0.12971733893E+02 0.15036744744E+02
 0.18302994935E+02 0.26643320330E+02 0.45272666724E+02 0.75916324272E+02 0.11567801900E+03
 0.15687452924E+03 0.18852831738E+03 0.13227871861E+03 0.12425501712E+03 0.10309982177E+03
 0.75916324272E+02 0.50393025864E+02 0.31735822889E+02 0.21358401956E+02 0.17027037084E+02
 0.14658413406E+02 0.13103623270E+02 0.12233554648E+02 0.11741470986E+02 0.11462719115E+02
 0.11341478551E+02 0.11314360769E+02 0.11341478551E+02 0.11462719115E+02 0.11741470986E+02
 0.12233554648E+02 0.13103623270E+02 0.14658413406E+02 0.17027037084E+02 0.21358401956E+02
 0.31735822889E+02 0.50393025864E+02 0.75916324272E+02 0.10309982177E+03 0.12425501712E+03
 0.77317531130E+02 0.72648602778E+02 0.60480669896E+02 0.45272666724E+02 0.31735822889E+02
 0.22719322946E+02 0.18276228272E+02 0.16040984935E+02 0.14425836880E+02 0.13503559672E+02
 0.13103623270E+02 0.12971733893E+02 0.12947405304E+02 0.12960418723E+02 0.12970663632E+02
 0.12960418723E+02 0.12947405304E+02 0.12971733893E+02 0.13103623270E+02 0.13503559672E+02
 0.14425836880E+02 0.16040984935E+02 0.18276228272E+02 0.22719322946E+02 0.31735822889E+02
 0.45272666724E+02 0.60480669896E+02 0.72648602778E+02 0.40883397342E+02 0.38711966171E+02
 0.33185851274E+02 0.26643320330E+02 0.21358401956E+02 0.18276228272E+02 0.16572619101E+02
 0.15290262021E+02 0.14574589970E+02 0.14425836880E+02 0.14658413406E+02 0.15036744744E+02
 0.15382949485E+02 0.15613167558E+02 0.15699434486E+02 0.15613167558E+02 0.15382949485E+02
 0.15036744744E+02 0.14658413406E+02 0.14425836880E+02 0.14574589970E+02 0.15290262021E+02
 0.16572619101E+02 0.18276228272E+02 0.21358401956E+02 0.26643320330E+02 0.33185851274E+02
 0.38711966171E+02 0.22291142227E+02 0.21630787634E+02 0.20027754630E+02 0.18302994935E+02
 0.17027037084E+02 0.16040984935E+02 0.15290262021E+02 0.15008876386E+02 0.15290262021E+02
 0.16040984935E+02 0.17027037084E+02 0.18302994935E+02 0.20027754630E+02 0.21630787634E+02
 0.22291142227E+02 0.21630787634E+02 0.20027754630E+02 0.18302994935E+02 0.17027037084E+02
 0.16040984935E+02 0.15290262021E+02 0.15008876386E+02 0.15290262021E+02 0.16040984935E+02
 0.17027037084E+02 0.18302994935E+02 0.20027754630E+02 0.21630787634E+02 0.15699434486E+02
 0.15613167558E+02 0.15382949485E+02 0.15036744744E+02 0.14658413406E+02 0.14425836880E+02
 0.14574589970E+02 0.15290262021E+02 0.16572619101E+02 0.18276228272E+02 0.21358401956E+02
 0.26643320330E+02 0.33185851274E+02 0.38711966171E+02 0.40883397342E+02 0.38711966171E+02
 0.33185851274E+02 0.26643320330E+02 0.21358401956E+02 0.18276228272E+02 0.16572619101E+02
 0.15290262021E+02 0.14574589970E+02 0.14425836880E+02 0.14658413406E+02 0.15036744744E+02
 0.15382949485E+02 0.15613167558E+02 0.12970663632E+02 0.12960418723E+02 0.12947405304E+02
 0.12971733893E+02 0.13103623270E+02 0.13503559672E+02 0.14425836880E+02 0.16040984935E+02
 0.18276228272E+02 0.22719322946E+02 0.31735822889E+02 0.45272666724E+02 0.60480669896E+02
 0.72648602778E+02 0.77317531130E+02 0.72648602778E+02 0.60480669896E+02 0.45272666724E+02
 0.31735822889E+02 0.22719322946E+02 0.18276228272E+02 0.16040984935E+02 0.14425836880E+02
 0.13503559672E+02 0.13103623270E+02 0.12971733893E+02 0.12947405304E+02 0.12960418723E+02
 0.11314360769E+02 0.11341478551E+02 0.11462719115E+02 0.11741470986E+02 0.12233554648E+02
 0.13103623270E+02 0.14658413406E+02 0.17027037084E+02 0.21358401956E+02 0.31735822889E+02
 0.50393025864E+02 0.75916324272E+02 0.10309982177E+03 0.12425501712E+03 0.13227871861E+03
 0.12425501712E+03 0.10309982177E+03 0.75916324272E+02 0.50393025864E+02 0.31735822889E+02
 0.21358401956E+02 0.17027037084E+02 0.14658413406E+02 0.13103623270E+02 0.12233554648E+02
 0.11741470986E+02 0.11462719115E+02 0.11341478551E+02 0.10301981852E+02 0.10342529350E+02
 0.10536954068E+02 0.10987849045E+02 0.11741470986E+02 0.12971733893E+02 0.15036744744E+02
 0.18302994935E+02 0.26643320330E+02 0.45272666724E+02 0.75916324272E+02 0.11567801900E+03
 0.15687452924E+03 0.18852831738E+03 0.20047673904E+03 0.18852831738E+03 0.15687452924E+03
 0.11567801900E+03 0.75916324272E+02 0.45272666724E+02 0.26643320330E+02 0.18302994935E+02
 0.15036744744E+02 0.12971733893E+02 0.11741470986E+02 0.10987849045E+02 0.10536954068E+02
 0.10342529350E+02 0.97351372808E+01 0.97705519758E+01 0.99873762330E+01 0.10536954068E+02
 0.11462719115E+02 0.12947405304E+02 0.15382949485E+02 0.20027754630E+02 0.33185851274E+02
 0.60480669896E+02 0.10309982177E+03 0.15687452924E+03 0.21188958867E+03 0.25396969563E+03
 0.26983539060E+03 0.25396969563E+03 0.21188958867E+03 0.15687452924E+03 0.10309982177E+03
 0.60480669896E+02 0.33185851274E+02 0.20027754630E+02 0.15382949485E+02 0.12947405304E+02
 0.11462719115E+02 0.10536954068E+02 0.99873762330E+01 0.97705519758E+01 0.95571129979E+01
 0.95746623589E+01 0.97705519758E+01 0.10342529350E+02 0.11341478551E+02 0.12960418723E+02
 0.15613167558E+02 0.21630787634E+02 0.38711966171E+02 0.72648602778E+02 0.12425501712E+03
 0.18852831738E+03 0.25396969563E+03 0.30397958414E+03 0.32283862683E+03 0.30397958414E+03
 0.25396969563E+03 0.18852831738E+03 0.12425501712E+03 0.72648602778E+02 0.38711966171E+02
 0.21630787634E+02 0.15613167558E+02 0.12960418723E+02 0.11341478551E+02 0.10342529350E+02
 0.97705519758E+01 0.95746623589E+01 0.95499768260E+01 0.95571129979E+01 0.97351372808E+01
 0.10301981852E+02 0.11314360769E+02 0.12970663632E+02 0.15699434486E+02 0.22291142227E+02
 0.40883397342E+02 0.77317531130E+02 0.13227871861E+03 0.20047673904E+03 0.26983539060E+03
 0.32283862683E+03 0.34283055134E+03 0.32283862683E+03 0.26983539060E+03 0.20047673904E+03
 0.13227871861E+03 0.77317531130E+02 0.40883397342E+02 0.22291142227E+02 0.15699434486E+02
 0.12970663632E+02 0.11314360769E+02 0.10301981852E+02 0.97351372808E+01 0.95571129979E+01
 0.95571129979E+01 0.95746623589E+01 0.97705519758E+01 0.10342529350E+02 0.11341478551E+02
 0.12960418723E+02 0.15613167558E+02 0.21630787634E+02 0.38711966171E+02 0.72648602778E+02
 0.12425501712E+03 0.18852831738E+03 0.25396969563E+03 0.30397958414E+03 0.32283862683E+03
 0.30397958414E+03 0.25396969563E+03 0.18852831738E+03 0.12425501712E+03 0.72648602778E+02
 0.38711966171E+02 0.21630787634E+02 0.15613167558E+02 0.12960418723E+02 0.11341478551E+02
 0.10342529350E+02 0.97705519758E+01 0.95746623589E+01 0.97351372808E+01 0.97705519758E+01
 0.99873762330E+01 0.10536954068E+02 0.11462719115E+02 0.12947405304E+02 0.15382949485E+02
 0.20027754630E+02 0.33185851274E+02 0.60480669896E+02 0.10309982177E+03 0.15687452924E+03
 0.21188958867E+03 0.25396969563E+03 0.26983539060E+03 0.25396969563E+03 0.21188958867E+03
 0.15687452924E+03 0.10309982177E+03 0.60480669896E+02 0.33185851274E+02 0.20027754630E+02
 0.15382949485E+02 0.12947405304E+02 0.11462719115E+02 0.10536954068E+02 0.99873762330E+01
 0.97705519758E+01 0.10301981852E+02 0.10342529350E+02 0.10536954068E+02 0.10987849045E+02
 0.11741470986E+02 0.12971733893E+02 0.15036744744E+02 0.18302994935E+02 0.26643320330E+02
 0.45272666724E+02 0.75916324272E+02 0.11567801900E+03 0.15687452924E+03 0.18852831738E+03
 0.20047673904E+03 0.18852831738E+03 0.15687452924E+03 0.11567801900E+03 0.75916324272E+02
 0.45272666724E+02 0.26643320330E+02 0.18302994935E+02 0.15036744744E+02 0.12971733893E+02
 0.11741470986E+02 0.10987849045E+02 0.10536954068E+02 0.10342529350E+02 0.11314360769E+02
 0.11341478551E+02 0.11462719115E+02 0.11741470986E+02 0.12233554648E+02 0.13103623270E+02
 0.14658413406E+02 0.17027037084E+02 0.21358401956E+02 0.31735822889E+02 0.50393025864E+02
 0.75916324272E+02 0.10309982177E+03 0.12425501712E+03 0.13227871861E+03 0.12425501712E+03
 0.10309982177E+03 0.75916324272E+02 0.50393025864E+02 0.31735822889E+02 0.21358401956E+02
 0.17027037084E+02 0.14658413406E+02 0.13103623270E+02 0.12233554648E+02 0.11741470986E+02
 0.11462719115E+02 0.11341478551E+02 0.12970663632E+02 0.12960418723E+02 0.12947405304E+02
 0.12971733893E+02 0.13103623270E+02 0.13503559672E+02 0.14425836880E+02 0.16040984935E+02
 0.18276228272E+02 0.22719322946E+02 0.31735822889E+02 0.45272666724E+02 0.60480669896E+02
 0.72648602778E+02 0.77317531130E+02 0.72648602778E+02 0.60480669896E+02 0.45272666724E+02
 0.31735822889E+02 0.22719322946E+02 0.18276228272E+02 0.16040984935E+02 0.14425836880E+02
 0.13503559672E+02 0.13103623270E+02 0.12971733893E+02 0.12947405304E+02 0.12960418723E+02
 0.15699434486E+02 0.15613167558E+02 0.15382949485E+02 0.15036744744E+02 0.14658413406E+02
 0.14425836880E+02 0.14574589970E+02 0.15290262021E+02 0.16572619101E+02 0.18276228272E+02
 0.21358401956E+02 0.26643320330E+02 0.33185851274E+02 0.38711966171E+02 0.40883397342E+02
 0.38711966171E+02 0.33185851274E+02 0.26643320330E+02 0.21358401956E+02 0.18276228272E+02
 0.16572619101E+02 0.15290262021E+02 0.14574589970E+02 0.14425836880E+02 0.14658413406E+02
 0.15036744744E+02 0.15382949485E+02 0.15613167558E+02 0.22291142227E+02 0.21630787634E+02
 0.20027754630E+02 0.18302994935E+02 0.17027037084E+02 0.16040984935E+02 0.15290262021E+02
 0.15008876386E+02 0.15290262021E+02 0.16040984935E+02 0.17027037084E+02 0.18302994935E+02
 0.20027754630E+02 0.21630787634E+02 0.22291142227E+02 0.21630787634E+02 0.20027754630E+02
 0.18302994935E+02 0.17027037084E+02 0.16040984935E+02 0.15290262021E+02 0.15008876386E+02
 0.15290262021E+02 0.16040984935E+02 0.17027037084E+02 0.18302994935E+02 0.20027754630E+02
 0.21630787634E+02 0.40883397342E+02 0.38711966171E+02 0.33185851274E+02 0.26643320330E+02
 0.21358401956E+02 0.18276228272E+02 0.16572619101E+02 0.15290262021E+02 0.14574589970E+02
 0.14425836880E+02 0.14658413406E+02 0.15036744744E+02 0.15382949485E+02 0.15613167558E+02
 0.15699434486E+02 0.15613167558E+02 0.15382949485E+02 0.15036744744E+02 0.14658413406E+02
 0.14425836880E+02 0.14574589970E+02 0.15290262021E+02 0.16572619101E+02 0.18276228272E+02
 0.21358401956E+02 0.26643320330E+02 0.33185851274E+02 0.38711966171E+02 0.77317531130E+02
 0.72648602778E+02 0.60480669896E+02 0.45272666724E+02 0.31735822889E+02 0.22719322946E+02
 0.18276228272E+02 0.16040984935E+02 0.14425836880E+02 0.13503559672E+02 0.13103623270E+02
 0.12971733893E+02 0.12947405304E+02 0.12960418723E+02 0.12970663632E+02 0.12960418723E+02
 0.12947405304E+02 0.12971733893E+02 0.13103623270E+02 0.13503559672E+02 0.14425836880E+02
 0.16040984935E+02 0.18276228272E+02 0.22719322946E+02 0.31735822889E+02 0.45272666724E+02
 0.60480669896E+02 0.72648602778E+02 0.13227871861E+03 0.12425501712E+03 0.10309982177E+03
 0.75916324272E+02 0.50393025864E+02 0.31735822889E+02 0.21358401956E+02 0.17027037084E+02
 0.14658413406E+02 0.13103623270E+02 0.12233554648E+02 0.11741470986E+02 0.11462719115E+02
 0.11341478551E+02 0.11314360769E+02 0.11341478551E+02 0.11462719115E+02 0.11741470986E+02
 0.12233554648E+02 0.13103623270E+02 0.14658413406E+02 0.17027037084E+02 0.21358401956E+02
 0.31735822889E+02 0.50393025864E+02 0.75916324272E+02 0.10309982177E+03 0.12425501712E+03
 0.20047673904E+03 0.18852831738E+03 0.15687452924E+03 0.11567801900E+03 0.75916324272E+02
 0.45272666724E+02 0.26643320330E+02 0.18302994935E+02 0.15036744744E+02 0.12971733893E+02
 0.11741470986E+02 0.10987849045E+02 0.10536954068E+02 0.10342529350E+02 0.10301981852E+02
 0.10342529350E+02 0.10536954068E+02 0.10987849045E+02 0.11741470986E+02 0.12971733893E+02
 0.15036744744E+02 0.18302994935E+02 0.26643320330E+02 0.45272666724E+02 0.75916324272E+02
 0.11567801900E+03 0.15687452924E+03 0.18852831738E+03 0.26983539060E+03 0.25396969563E+03
 0.21188958867E+03 0.15687452924E+03 0.10309982177E+03 0.60480669896E+02 0.33185851274E+02
 0.20027754630E+02 0.15382949485E+02 0.12947405304E+02 0.11462719115E+02 0.10536954068E+02
 0.99873762330E+01 0.97705519758E+01 0.97351372808E+01 0.97705519758E+01 0.99873762330E+01
 0.10536954068E+02 0.11462719115E+02 0.12947405304E+02 0.15382949485E+02 0.20027754630E+02
 0.33185851274E+02 0.60480669896E+02 0.10309982177E+03 0.15687452924E+03 0.21188958867E+03
 0.25396969563E+03 0.32283862683E+03 0.30397958414E+03 0.25396969563E+03 0.18852831738E+03
 0.12425501712E+03 0.72648602778E+02 0.38711966171E+02 0.21630787634E+02 0.15613167558E+02
 0.12960418723E+02 0.11341478551E+02 0.10342529350E+02 0.97705519758E+01 0.95746623589E+01
 0.95571129979E+01 0.95746623589E+01 0.97705519758E+01 0.10342529350E+02 0.11341478551E+02
 0.12960418723E+02 0.15613167558E+02 0.21630787634E+02 0.38711966171E+02 0.72648602778E+02
 0.12425501712E+03 0.18852831738E+03 0.25396969563E+03 0.30397958414E+03 0.32283862683E+03
 0.30397958414E+03 0.25396969563E+03 0.18852831738E+03 0.12425501712E+03 0.72648602778E+02
 0.38711966171E+02 0.21630787634E+02 0.15613167558E+02 0.12960418723E+02 0.11341478551E+02
 0.10342529350E+02 0.97705519758E+01 0.95746623589E+01 0.95571129979E+01 0.95746623589E+01
 0.97705519758E+01 0.10342529350E+02 0.11341478551E+02 0.12960418723E+02 0.15613167558E+02
 0.21630787634E+02 0.38711966171E+02 0.72648602778E+02 0.12425501712E+03 0.18852831738E+03
 0.25396969563E+03 0.30397958414E+03 0.30397958414E+03 0.28618774500E+03 0.23900131044E+03
 0.17726331595E+03 0.11670901148E+03 0.68282822719E+02 0.36704436357E+02 0.21033434933E+02
 0.15531552866E+02 0.12951887935E+02 0.11372174431E+02 0.10388488668E+02 0.98134007481E+01
 0.96016873410E+01 0.95746623589E+01 0.96016873410E+01 0.98134007481E+01 0.10388488668E+02
 0.11372174431E+02 0.12951887935E+02 0.15531552866E+02 0.21033434933E+02 0.36704436357E+02
 0.68282822719E+02 0.11670901148E+03 0.17726331595E+03 0.23900131044E+03 0.28618774500E+03
 0.25396969563E+03 0.23900131044E+03 0.19930358862E+03 0.14743212148E+03 0.96830986222E+02
 0.56922471768E+02 0.31607953852E+02 0.19586769142E+02 0.15303335650E+02 0.12941576644E+02
 0.11498839941E+02 0.10591086564E+02 0.10041901970E+02 0.98134007481E+01 0.97705519758E+01
 0.98134007481E+01 0.10041901970E+02 0.10591086564E+02 0.11498839941E+02 0.12941576644E+02
 0.15303335650E+02 0.19586769142E+02 0.31607953852E+02 0.56922471768E+02 0.96830986222E+02
 0.14743212148E+03 0.19930358862E+03 0.23900131044E+03 0.18852831738E+03 0.17726331595E+03
 0.14743212148E+03 0.10865643325E+03 0.71345985274E+02 0.42775063598E+02 0.25606724931E+02
 0.18031948417E+02 0.14955827547E+02 0.12965035855E+02 0.11775772558E+02 0.11040012356E+02
 0.10591086564E+02 0.10388488668E+02 0.10342529350E+02 0.10388488668E+02 0.10591086564E+02
 0.11040012356E+02 0.11775772558E+02 0.12965035855E+02 0.14955827547E+02 0.18031948417E+02
 0.25606724931E+02 0.42775063598E+02 0.71345985274E+02 0.10865643325E+03 0.14743212148E+03
 0.17726331595E+03 0.12425501712E+03 0.11670901148E+03 0.96830986222E+02 0.71345985274E+02
 0.47528127898E+02 0.30268066446E+02 0.20801064714E+02 0.16853941279E+02 0.14577276249E+02
 0.13088363551E+02 0.12253226174E+02 0.11775772558E+02 0.11498839941E+02 0.11372174431E+02
 0.11341478551E+02 0.11372174431E+02 0.11498839941E+02 0.11775772558E+02 0.12253226174E+02
 0.13088363551E+02 0.14577276249E+02 0.16853941279E+02 0.20801064714E+02 0.30268066446E+02
 0.47528127898E+02 0.71345985274E+02 0.96830986222E+02 0.11670901148E+03 0.72648602778E+02
 0.68282822719E+02 0.56922471768E+02 0.42775063598E+02 0.30268066446E+02 0.22031913285E+02
 0.18009013245E+02 0.15884294961E+02 0.14340313721E+02 0.13465262317E+02 0.13088363551E+02
 0.12965035855E+02 0.12941576644E+02 0.12951887935E+02 0.12960418723E+02 0.12951887935E+02
 0.12941576644E+02 0.12965035855E+02 0.13088363551E+02 0.13465262317E+02 0.14340313721E+02
 0.15884294961E+02 0.18009013245E+02 0.22031913285E+02 0.30268066446E+02 0.42775063598E+02
 0.56922471768E+02 0.68282822719E+02 0.38711966171E+02 0.36704436357E+02 0.31607953852E+02
 0.25606724931E+02 0.20801064714E+02 0.18009013245E+02 0.16383989973E+02 0.15149822342E+02
 0.14471144417E+02 0.14340313721E+02 0.14577276249E+02 0.14955827547E+02 0.15303335650E+02
 0.15531552866E+02 0.15613167558E+02 0.15531552866E+02 0.15303335650E+02 0.14955827547E+02
 0.14577276249E+02 0.14340313721E+02 0.14471144417E+02 0.15149822342E+02 0.16383989973E+02
 0.18009013245E+02 0.20801064714E+02 0.25606724931E+02 0.31607953852E+02 0.36704436357E+02
 0.21630787634E+02 0.21033434933E+02 0.19586769142E+02 0.18031948417E+02 0.16853941279E+02
 0.15884294961E+02 0.15149822342E+02 0.14875734094E+02 0.15149822342E+02 0.15884294961E+02
 0.16853941279E+02 0.18031948417E+02 0.19586769142E+02 0.21033434933E+02 0.21630787634E+02
 0.21033434933E+02 0.19586769142E+02 0.18031948417E+02 0.16853941279E+02 0.15884294961E+02
 0.15149822342E+02 0.14875734094E+02 0.15149822342E+02 0.15884294961E+02 0.16853941279E+02
 0.18031948417E+02 0.19586769142E+02 0.21033434933E+02 0.15613167558E+02 0.15531552866E+02
 0.15303335650E+02 0.14955827547E+02 0.14577276249E+02 0.14340313721E+02 0.14471144417E+02
 0.15149822342E+02 0.16383989973E+02 0.18009013245E+02 0.20801064714E+02 0.25606724931E+02
 0.31607953852E+02 0.36704436357E+02 0.38711966171E+02 0.36704436357E+02 0.31607953852E+02
 0.25606724931E+02 0.20801064714E+02 0.18009013245E+02 0.16383989973E+02 0.15149822342E+02
 0.14471144417E+02 0.14340313721E+02 0.14577276249E+02 0.14955827547E+02 0.15303335650E+02
 0.15531552866E+02 0.12960418723E+02 0.12951887935E+02 0.12941576644E+02 0.12965035855E+02
 0.13088363551E+02 0.13465262317E+02 0.14340313721E+02 0.15884294961E+02 0.18009013245E+02
 0.22031913285E+02 0.30268066446E+02 0.42775063598E+02 0.56922471768E+02 0.68282822719E+02
 0.72648602778E+02 0.68282822719E+02 0.56922471768E+02 0.42775063598E+02 0.30268066446E+02
 0.22031913285E+02 0.18009013245E+02 0.15884294961E+02 0.14340313721E+02 0.13465262317E+02
 0.13088363551E+02 0.12965035855E+02 0.12941576644E+02 0.12951887935E+02 0.11341478551E+02
 0.11372174431E+02 0.11498839941E+02 0.11775772558E+02 0.12253226174E+02 0.13088363551E+02
 0.14577276249E+02 0.16853941279E+02 0.20801064714E+02 0.30268066446E+02 0.47528127898E+02
 0.71345985274E+02 0.96830986222E+02 0.11670901148E+03 0.12425501712E+03 0.11670901148E+03
 0.96830986222E+02 0.71345985274E+02 0.47528127898E+02 0.30268066446E+02 0.20801064714E+02
 0.16853941279E+02 0.14577276249E+02 0.13088363551E+02 0.12253226174E+02 0.11775772558E+02
 0.11498839941E+02 0.11372174431E+02 0.10342529350E+02 0.10388488668E+02 0.10591086564E+02
 0.11040012356E+02 0.11775772558E+02 0.12965035855E+02 0.14955827547E+02 0.18031948417E+02
 0.25606724931E+02 0.42775063598E+02 0.71345985274E+02 0.10865643325E+03 0.14743212148E+03
 0.17726331595E+03 0.18852831738E+03 0.17726331595E+03 0.14743212148E+03 0.10865643325E+03
 0.71345985274E+02 0.42775063598E+02 0.25606724931E+02 0.18031948417E+02 0.14955827547E+02
 0.12965035855E+02 0.11775772558E+02 0.11040012356E+02 0.10591086564E+02 0.10388488668E+02
 0.97705519758E+01 0.98134007481E+01 0.10041901970E+02 0.10591086564E+02 0.11498839941E+02
 0.12941576644E+02 0.15303335650E+02 0.19586769142E+02 0.31607953852E+02 0.56922471768E+02
 0.96830986222E+02 0.14743212148E+03 0.19930358862E+03 0.23900131044E+03 0.25396969563E+03
 0.23900131044E+03 0.19930358862E+03 0.14743212148E+03 0.96830986222E+02 0.56922471768E+02
 0.31607953852E+02 0.19586769142E+02 0.15303335650E+02 0.12941576644E+02 0.11498839941E+02
 0.10591086564E+02 0.10041901970E+02 0.98134007481E+01 0.95746623589E+01 0.96016873410E+01
 0.98134007481E+01 0.10388488668E+02 0.11372174431E+02 0.12951887935E+02 0.15531552866E+02
 0.21033434933E+02 0.36704436357E+02 0.68282822719E+02 0.11670901148E+03 0.17726331595E+03
 0.23900131044E+03 0.28618774500E+03 0.30397958414E+03 0.28618774500E+03 0.23900131044E+03
 0.17726331595E+03 0.11670901148E+03 0.68282822719E+02 0.36704436357E+02 0.21033434933E+02
 0.15531552866E+02 0.12951887935E+02 0.11372174431E+02 0.10388488668E+02 0.98134007481E+01
 0.96016873410E+01 0.95571129979E+01 0.95746623589E+01 0.97705519758E+01 0.10342529350E+02
 0.11341478551E+02 0.12960418723E+02 0.15613167558E+02 0.21630787634E+02 0.38711966171E+02
 0.72648602778E+02 0.12425501712E+03 0.18852831738E+03 0.25396969563E+03 0.30397958414E+03
 0.32283862683E+03 0.30397958414E+03 0.25396969563E+03 0.18852831738E+03 0.12425501712E+03
 0.72648602778E+02 0.38711966171E+02 0.21630787634E+02 0.15613167558E+02 0.12960418723E+02
 0.11341478551E+02 0.10342529350E+02 0.97705519758E+01 0.95746623589E+01 0.95746623589E+01
 0.96016873410E+01 0.98134007481E+01 0.10388488668E+02 0.11372174431E+02 0.12951887935E+02
 0.15531552866E+02 0.21033434933E+02 0.36704436357E+02 0.68282822719E+02 0.11670901148E+03
 0.17726331595E+03 0.23900131044E+03 0.28618774500E+03 0.30397958414E+03 0.28618774500E+03
 0.23900131044E+03 0.17726331595E+03 0.11670901148E+03 0.68282822719E+02 0.36704436357E+02
 0.21033434933E+02 0.15531552866E+02 0.12951887935E+02 0.11372174431E+02 0.10388488668E+02
 0.98134007481E+01 0.96016873410E+01 0.97705519758E+01 0.98134007481E+01 0.10041901970E+02
 0.10591086564E+02 0.11498839941E+02 0.12941576644E+02 0.15303335650E+02 0.19586769142E+02
 0.31607953852E+02 0.56922471768E+02 0.96830986222E+02 0.14743212148E+03 0.19930358862E+03
 0.23900131044E+03 0.25396969563E+03 0.23900131044E+03 0.19930358862E+03 0.14743212148E+03
 0.96830986222E+02 0.56922471768E+02 0.31607953852E+02 0.19586769142E+02 0.15303335650E+02
 0.12941576644E+02 0.11498839941E+02 0.10591086564E+02 0.10041901970E+02 0.98134007481E+01
 0.10342529350E+02 0.10388488668E+02 0.10591086564E+02 0.11040012356E+02 0.11775772558E+02
 0.12965035855E+02 0.14955827547E+02 0.18031948417E+02 0.25606724931E+02 0.42775063598E+02
 0.71345985274E+02 0.10865643325E+03 0.14743212148E+03 0.17726331595E+03 0.18852831738E+03
 0.17726331595E+03 0.14743212148E+03 0.10865643325E+03 0.71345985274E+02 0.42775063598E+02
 0.25606724931E+02 0.18031948417E+02 0.14955827547E+02 0.12965035855E+02 0.11775772558E+02
 0.11040012356E+02 0.10591086564E+02 0.10388488668E+02 0.11341478551E+02 0.11372174431E+02
 0.11498839941E+02 0.11775772558E+02 0.12253226174E+02 0.13088363551E+02 0.14577276249E+02
 0.16853941279E+02 0.20801064714E+02 0.30268066446E+02 0.47528127898E+02 0.71345985274E+02
 0.96830986222E+02 0.11670901148E+03 0.12425501712E+03 0.11670901148E+03 0.96830986222E+02
 0.71345985274E+02 0.47528127898E+02 0.30268066446E+02 0.20801064714E+02 0.16853941279E+02
 0.14577276249E+02 0.13088363551E+02 0.12253226174E+02 0.11775772558E+02 0.11498839941E+02
 0.11372174431E+02 0.12960418723E+02 0.12951887935E+02 0.12941576644E+02 0.12965035855E+02
 0.13088363551E+02 0.13465262317E+02 0.14340313721E+02 0.15884294961E+02 0.18009013245E+02
 0.22031913285E+02 0.30268066446E+02 0.42775063598E+02 0.56922471768E+02 0.68282822719E+02
 0.72648602778E+02 0.68282822719E+02 0.56922471768E+02 0.42775063598E+02 0.30268066446E+02
 0.22031913285E+02 0.18009013245E+02 0.15884294961E+02 0.14340313721E+02 0.13465262317E+02
 0.13088363551E+02 0.12965035855E+02 0.12941576644E+02 0.12951887935E+02 0.15613167558E+02
 0.15531552866E+02 0.15303335650E+02 0.14955827547E+02 0.14577276249E+02 0.14340313721E+02
 0.14471144417E+02 0.15149822342E+02 0.16383989973E+02 0.18009013245E+02 0.20801064714E+02
 0.25606724931E+02 0.31607953852E+02 0.36704436357E+02 0.38711966171E+02 0.36704436357E+02
 0.31607953852E+02 0.25606724931E+02 0.20801064714E+02 0.18009013245E+02 0.16383989973E+02
 0.15149822342E+02 0.14471144417E+02 0.14340313721E+02 0.14577276249E+02 0.14955827547E+02
 0.15303335650E+02 0.15531552866E+02 0.21630787634E+02 0.21033434933E+02 0.19586769142E+02
 0.18031948417E+02 0.16853941279E+02 0.15884294961E+02 0.15149822342E+02 0.14875734094E+02
 0.15149822342E+02 0.15884294961E+02 0.16853941279E+02 0.18031948417E+02 0.19586769142E+02
 0.21033434933E+02 0.21630787634E+02 0.21033434933E+02 0.19586769142E+02 0.18031948417E+02
 0.16853941279E+02 0.15884294961E+02 0.15149822342E+02 0.14875734094E+02 0.15149822342E+02
 0.15884294961E+02 0.16853941279E+02 0.18031948417E+02 0.19586769142E+02 0.21033434933E+02
 0.38711966171E+02 0.36704436357E+02 0.31607953852E+02 0.25606724931E+02 0.20801064714E+02
 0.18009013245E+02 0.16383989973E+02 0.15149822342E+02 0.14471144417E+02 0.14340313721E+02
 0.14577276249E+02 0.14955827547E+02 0.15303335650E+02 0.15531552866E+02 0.15613167558E+02
 0.15531552866E+02 0.15303335650E+02 0.14955827547E+02 0.14577276249E+02 0.14340313721E+02
 0.14471144417E+02 0.15149822342E+02 0.16383989973E+02 0.18009013245E+02 0.20801064714E+02
 0.25606724931E+02 0.31607953852E+02 0.36704436357E+02 0.72648602778E+02 0.68282822719E+02
 0.56922471768E+02 0.42775063598E+02 0.30268066446E+02 0.22031913285E+02 0.18009013245E+02
 0.15884294961E+02 0.14340313721E+02 0.13465262317E+02 0.13088363551E+02 0.12965035855E+02
 0.12941576644E+02 0.12951887935E+02 0.12960418723E+02 0.12951887935E+02 0.12941576644E+02
 0.12965035855E+02 0.13088363551E+02 0.13465262317E+02 0.14340313721E+02 0.15884294961E+02
 0.18009013245E+02 0.22031913285E+02 0.30268066446E+02 0.42775063598E+02 0.56922471768E+02
 0.68282822719E+02 0.12425501712E+03 0.11670901148E+03 0.96830986222E+02 0.71345985274E+02
 0.47528127898E+02 0.30268066446E+02 0.20801064714E+02 0.16853941279E+02 0.14577276249E+02
 0.13088363551E+02 0.12253226174E+02 0.11775772558E+02 0.11498839941E+02 0.11372174431E+02
 0.11341478551E+02 0.11372174431E+02 0.11498839941E+02 0.11775772558E+02 0.12253226174E+02
 0.13088363551E+02 0.14577276249E+02 0.16853941279E+02 0.20801064714E+02 0.30268066446E+02
 0.47528127898E+02 0.71345985274E+02 0.96830986222E+02 0.11670901148E+03 0.18852831738E+03
 0.17726331595E+03 0.14743212148E+03 0.10865643325E+03 0.71345985274E+02 0.42775063598E+02
 0.25606724931E+02 0.18031948417E+02 0.14955827547E+02 0.12965035855E+02 0.11775772558E+02
 0.11040012356E+02 0.10591086564E+02 0.10388488668E+02 0.10342529350E+02 0.10388488668E+02
 0.10591086564E+02 0.11040012356E+02 0.11775772558E+02 0.12965035855E+02 0.14955827547E+02
 0.18031948417E+02 0.25606724931E+02 0.42775063598E+02 0.71345985274E+02 0.10865643325E+03
 0.14743212148E+03 0.17726331595E+03 0.25396969563E+03 0.23900131044E+03 0.19930358862E+03
 0.14743212148E+03 0.96830986222E+02 0.56922471768E+02 0.31607953852E+02 0.19586769142E+02
 0.15303335650E+02 0.12941576644E+02 0.11498839941E+02 0.10591086564E+02 0.10041901970E+02
 0.98134007481E+01 0.97705519758E+01 0.98134007481E+01 0.10041901970E+02 0.10591086564E+02
 0.11498839941E+02 0.12941576644E+02 0.15303335650E+02 0.19586769142E+02 0.31607953852E+02
 0.56922471768E+02 0.96830986222E+02 0.14743212148E+03 0.19930358862E+03 0.23900131044E+03
 0.30397958414E+03 0.28618774500E+03 0.23900131044E+03 0.17726331595E+03 0.11670901148E+03
 0.68282822719E+02 0.36704436357E+02 0.21033434933E+02 0.15531552866E+02 0.12951887935E+02
 0.11372174431E+02 0.10388488668E+02 0.98134007481E+01 0.96016873410E+01 0.95746623589E+01
 0.96016873410E+01 0.98134007481E+01 0.10388488668E+02 0.11372174431E+02 0.12951887935E+02
 0.15531552866E+02 0.21033434933E+02 0.36704436357E+02 0.68282822719E+02 0.11670901148E+03
 0.17726331595E+03 0.23900131044E+03 0.28618774500E+03 0.26983539060E+03 0.25396969563E+03
 0.21188958867E+03 0.15687452924E+03 0.10309982177E+03 0.60480669896E+02 0.33185851274E+02
 0.20027754630E+02 0.15382949485E+02 0.12947405304E+02 0.11462719115E+02 0.10536954068E+02
 0.99873762330E+01 0.97705519758E+01 0.97351372808E+01 0.97705519758E+01 0.99873762330E+01
 0.10536954068E+02 0.11462719115E+02 0.12947405304E+02 0.15382949485E+02 0.20027754630E+02
 0.33185851274E+02 0.60480669896E+02 0.10309982177E+03 0.15687452924E+03 0.21188958867E+03
 0.25396969563E+03 0.25396969563E+03 0.23900131044E+03 0.19930358862E+03 0.14743212148E+03
 0.96830986222E+02 0.56922471768E+02 0.31607953852E+02 0.19586769142E+02 0.15303335650E+02
 0.12941576644E+02 0.11498839941E+02 0.10591086564E+02 0.10041901970E+02 0.98134007481E+01
 0.97705519758E+01 0.98134007481E+01 0.10041901970E+02 0.10591086564E+02 0.11498839941E+02
 0.12941576644E+02 0.15303335650E+02 0.19586769142E+02 0.31607953852E+02 0.56922471768E+02
 0.96830986222E+02 0.14743212148E+03 0.19930358862E+03 0.23900131044E+03 0.21188958867E+03