   4   4   0   0
  0.1022208E+02  0.3445083E-09  0.3445083E-09  0.3445083E-09  0.5000000E-15
  1.000000000000000E-004
  CAR 
 unknown system                          
     38.11099561     -4.02959129  301      6.76997370      1.00000000
     -4.030  0.0000E+00  0.0000E+00
     -3.889  0.0000E+00  0.0000E+00
     -3.749 -0.2269E-32 -0.3187E-33
     -3.608 -0.2229E-27 -0.3131E-28
     -3.468 -0.8099E-23 -0.1138E-23
     -3.327 -0.1087E-18 -0.1527E-19
     -3.187 -0.5184E-15 -0.7284E-16
     -3.046 -0.9388E-12 -0.1319E-12
     -2.906 -0.6148E-09 -0.8650E-10
     -2.765 -0.1448E-06 -0.2042E-07
     -2.625 -0.1197E-04 -0.1702E-05
     -2.484 -0.3284E-03 -0.4784E-04
     -2.344 -0.2435E-02 -0.3899E-03
     -2.203  0.2118E-02 -0.9231E-04
     -2.063  0.4167E-01  0.5760E-02
     -1.923  0.5816E-01  0.1393E-01
     -1.782  0.2015E-02  0.1421E-01
     -1.642  0.1033E-01  0.1566E-01
     -1.501  0.2505E+00  0.5085E-01
     -1.361  0.3537E+00  0.1005E+00
     -1.220  0.6430E-01  0.1096E+00
     -1.080  0.6377E-01  0.1185E+00
     -0.939  0.6011E+00  0.2030E+00
     -0.799  0.6370E+00  0.2924E+00
     -0.658  0.9793E-01  0.3062E+00
     -0.518  0.1752E+00  0.3308E+00
     -0.377  0.4938E+00  0.4002E+00
     -0.237  0.2297E+00  0.4324E+00
     -0.096  0.4098E-01  0.4382E+00
      0.044  0.2952E+00  0.4797E+00
      0.184  0.2557E+00  0.5156E+00
      0.325  0.7829E-01  0.5266E+00
      0.465  0.9133E+00  0.6549E+00
      0.606  0.1389E+01  0.8500E+00
      0.746  0.8063E+00  0.9633E+00
      0.887  0.1353E+01  0.1153E+01
      1.027  0.1018E+01  0.1296E+01
      1.168  0.6327E-01  0.1305E+01
      1.308 -0.1108E+00  0.1290E+01
      1.449 -0.1252E+00  0.1272E+01
      1.589  0.7480E+00  0.1377E+01
      1.730  0.2662E+01  0.1751E+01
      1.870  0.2472E+01  0.2098E+01
      2.011  0.1876E+01  0.2362E+01
      2.151  0.3554E+01  0.2861E+01
      2.291  0.4925E+01  0.3553E+01
      2.432  0.3692E+01  0.4071E+01
      2.572  0.4513E+01  0.4705E+01
      2.713  0.4337E+01  0.5314E+01
      2.853  0.3631E+01  0.5824E+01
      2.994  0.6164E+01  0.6690E+01
      3.134  0.8703E+01  0.7913E+01
      3.275  0.6935E+01  0.8887E+01
      3.415  0.2806E+01  0.9281E+01
      3.556  0.5098E+01  0.9997E+01
      3.696  0.8138E+01  0.1114E+02
      3.837  0.5558E+01  0.1192E+02
      3.977  0.2651E+01  0.1229E+02
      4.118  0.2910E+01  0.1270E+02
      4.258  0.5797E+01  0.1352E+02
      4.399  0.7789E+01  0.1461E+02
      4.539  0.5502E+01  0.1538E+02
      4.679  0.5011E+01  0.1609E+02
      4.820  0.1023E+02  0.1752E+02
      4.960  0.1009E+02  0.1894E+02
      5.101  0.7239E+01  0.1996E+02
      5.241  0.7279E+01  0.2098E+02
      5.382  0.8488E+01  0.2217E+02
      5.522  0.7739E+01  0.2326E+02
      5.663  0.5649E+01  0.2405E+02
      5.803  0.6848E+01  0.2502E+02
      5.944  0.8367E+01  0.2619E+02
      6.084  0.7826E+01  0.2729E+02
      6.225  0.6832E+01  0.2825E+02
      6.365  0.7423E+01  0.2929E+02
      6.506  0.4494E+01  0.2992E+02
      6.646  0.5289E+01  0.3067E+02
      6.786  0.1097E+02  0.3221E+02
      6.927  0.1072E+02  0.3371E+02
      7.067  0.4438E+01  0.3434E+02
      7.208  0.3139E+01  0.3478E+02
      7.348  0.5755E+01  0.3559E+02
      7.489  0.8205E+01  0.3674E+02
      7.629  0.1136E+02  0.3833E+02
      7.770  0.1245E+02  0.4008E+02
      7.910  0.7270E+01  0.4110E+02
      8.051  0.4652E+01  0.4176E+02
      8.191  0.4635E+01  0.4241E+02
      8.332  0.3293E+01  0.4287E+02
      8.472  0.8376E+00  0.4299E+02
      8.613 -0.1475E+00  0.4297E+02
      8.753 -0.1179E+00  0.4295E+02
      8.894  0.1632E-01  0.4295E+02
      9.034  0.9104E+00  0.4308E+02
      9.174  0.1370E+01  0.4327E+02
      9.315  0.4453E+00  0.4334E+02
      9.455  0.1663E+01  0.4357E+02
      9.596  0.3658E+01  0.4408E+02
      9.736  0.2475E+01  0.4443E+02
      9.877  0.5344E+00  0.4451E+02
     10.017  0.8321E+00  0.4462E+02
     10.158  0.1648E+01  0.4486E+02
     10.298  0.6179E+00  0.4494E+02
     10.439 -0.7295E-01  0.4493E+02
     10.579 -0.9606E-01  0.4492E+02
     10.720  0.3340E-01  0.4492E+02
     10.860  0.9302E+00  0.4505E+02
     11.001  0.1635E+01  0.4528E+02
     11.141  0.1655E+01  0.4552E+02
     11.281  0.1173E+01  0.4568E+02
     11.422  0.1506E+00  0.4570E+02
     11.562  0.2467E+00  0.4574E+02
     11.703  0.7297E+00  0.4584E+02
     11.843  0.6926E+00  0.4594E+02
     11.984  0.6104E+00  0.4602E+02
     12.124  0.4321E+00  0.4608E+02
     12.265  0.2260E+01  0.4640E+02
     12.405  0.4109E+01  0.4698E+02
     12.546  0.1968E+01  0.4725E+02
     12.686 -0.3144E-01  0.4725E+02
     12.827 -0.1509E+00  0.4723E+02
     12.967  0.3350E-01  0.4723E+02
     13.108  0.5486E+00  0.4731E+02
     13.248  0.6948E+00  0.4741E+02
     13.389  0.1604E+00  0.4743E+02
     13.529 -0.3651E-01  0.4743E+02
     13.669 -0.1035E-01  0.4742E+02
     13.810 -0.6048E-03  0.4742E+02
     13.950 -0.1117E-03  0.4742E+02
     14.091 -0.3721E-02  0.4742E+02
     14.231 -0.4096E-01  0.4742E+02
     14.372 -0.4625E-01  0.4741E+02
     14.512  0.6529E+00  0.4750E+02
     14.653  0.1654E+01  0.4774E+02
     14.793  0.1360E+01  0.4793E+02
     14.934  0.5402E+00  0.4800E+02
     15.074 -0.1815E-01  0.4800E+02
     15.215 -0.9755E-01  0.4799E+02
     15.355  0.5589E+00  0.4806E+02
     15.496  0.1794E+01  0.4832E+02
     15.636  0.2897E+01  0.4872E+02
     15.776  0.2962E+01  0.4914E+02
     15.917  0.2973E+01  0.4956E+02
     16.057  0.2393E+01  0.4989E+02
     16.198  0.3675E+00  0.4994E+02
     16.338 -0.1449E+00  0.4992E+02
     16.479 -0.3016E-01  0.4992E+02
     16.619 -0.7935E-02  0.4992E+02
     16.760 -0.2460E-01  0.4992E+02
     16.900  0.9377E-01  0.4993E+02
     17.041  0.4093E+00  0.4999E+02
     17.181  0.2811E+00  0.5003E+02
     17.322  0.6759E+00  0.5012E+02
     17.462  0.2767E+01  0.5051E+02
     17.603  0.2991E+01  0.5093E+02
     17.743  0.1012E+01  0.5107E+02
     17.884  0.1017E+01  0.5121E+02
     18.024  0.1060E+01  0.5136E+02
     18.164  0.1652E+00  0.5139E+02
     18.305 -0.1086E-01  0.5139E+02
     18.445  0.1483E+01  0.5159E+02
     18.586  0.3285E+01  0.5205E+02
     18.726  0.2888E+01  0.5246E+02
     18.867  0.1018E+01  0.5260E+02
     19.007 -0.4290E-01  0.5260E+02
     19.148  0.2717E+00  0.5264E+02
     19.288  0.8183E+00  0.5275E+02
     19.429  0.1303E+01  0.5293E+02
     19.569  0.1377E+01  0.5313E+02
     19.710  0.1162E+01  0.5329E+02
     19.850  0.1414E+01  0.5349E+02
     19.991  0.4102E+00  0.5355E+02
     20.131 -0.1440E-01  0.5354E+02
     20.271  0.1930E+01  0.5382E+02
     20.412  0.3528E+01  0.5431E+02
     20.552  0.2366E+01  0.5464E+02
     20.693  0.1941E+01  0.5492E+02
     20.833  0.1074E+01  0.5507E+02
     20.974  0.2360E+00  0.5510E+02
     21.114  0.1670E+01  0.5533E+02
     21.255  0.2460E+01  0.5568E+02
     21.395  0.6984E+00  0.5578E+02
     21.536 -0.2838E+00  0.5574E+02
     21.676  0.1524E+00  0.5576E+02
     21.817  0.2955E+01  0.5618E+02
     21.957  0.4632E+01  0.5683E+02
     22.098  0.2025E+01  0.5711E+02
     22.238  0.3769E-01  0.5712E+02
     22.379 -0.3089E+00  0.5707E+02
     22.519  0.5594E+00  0.5715E+02
     22.659  0.3584E+01  0.5765E+02
     22.800  0.4895E+01  0.5834E+02
     22.940  0.3359E+01  0.5881E+02
     23.081  0.2118E+01  0.5911E+02
     23.221  0.1219E+01  0.5928E+02
     23.362  0.2729E+00  0.5932E+02
     23.502 -0.2043E+00  0.5929E+02
     23.643  0.1133E+00  0.5931E+02
     23.783  0.2399E+01  0.5964E+02
     23.924  0.4027E+01  0.6021E+02
     24.064  0.3112E+01  0.6065E+02
     24.205  0.2265E+01  0.6097E+02
     24.345  0.1560E+01  0.6118E+02
     24.486  0.4003E+00  0.6124E+02
     24.626 -0.2494E+00  0.6121E+02
     24.766  0.5780E+00  0.6129E+02
     24.907  0.3247E+01  0.6174E+02
     25.047  0.2991E+01  0.6216E+02
     25.188  0.3573E+00  0.6221E+02
     25.328 -0.3965E+00  0.6216E+02
     25.469  0.5678E+00  0.6224E+02
     25.609  0.4056E+01  0.6281E+02
     25.750  0.4519E+01  0.6344E+02
     25.890  0.1055E+01  0.6359E+02
     26.031  0.2425E+00  0.6362E+02
     26.171  0.1302E+01  0.6381E+02
     26.312  0.9060E+00  0.6393E+02
     26.452  0.1342E+01  0.6412E+02
     26.593  0.3256E+01  0.6458E+02
     26.733  0.2185E+01  0.6489E+02
     26.874  0.5243E+00  0.6496E+02
     27.014  0.1237E+01  0.6513E+02
     27.154  0.1107E+01  0.6529E+02
     27.295  0.6455E-01  0.6530E+02
     27.435 -0.1343E+00  0.6528E+02
     27.576  0.6207E+00  0.6537E+02
     27.716  0.2223E+01  0.6568E+02
     27.857  0.3323E+01  0.6615E+02
     27.997  0.2551E+01  0.6651E+02
     28.138  0.1573E+01  0.6673E+02
     28.278  0.6667E+00  0.6682E+02
     28.419  0.1036E+01  0.6697E+02
     28.559  0.3236E+01  0.6742E+02
     28.700  0.2726E+01  0.6780E+02
     28.840  0.8092E+00  0.6792E+02
     28.981  0.5120E+00  0.6799E+02
     29.121  0.8085E+00  0.6810E+02
     29.261  0.9429E+00  0.6823E+02
     29.402  0.1062E+01  0.6838E+02
     29.542  0.1577E+01  0.6861E+02
     29.683  0.2548E+01  0.6896E+02
     29.823  0.3286E+01  0.6942E+02
     29.964  0.2377E+01  0.6976E+02
     30.104  0.8252E+00  0.6987E+02
     30.245  0.1453E+01  0.7008E+02
     30.385  0.1702E+01  0.7032E+02
     30.526  0.4383E+00  0.7038E+02
     30.666  0.3949E+00  0.7043E+02
     30.807  0.1865E+01  0.7070E+02
     30.947  0.1872E+01  0.7096E+02
     31.088  0.3021E+01  0.7138E+02
     31.228  0.3902E+01  0.7193E+02
     31.369  0.2839E+01  0.7233E+02
     31.509  0.2720E+01  0.7271E+02
     31.649  0.8362E+00  0.7283E+02
     31.790  0.4411E+00  0.7289E+02
     31.930  0.1384E+01  0.7309E+02
     32.071  0.1377E+01  0.7328E+02
     32.211  0.2066E+01  0.7357E+02
     32.352  0.2758E+01  0.7396E+02
     32.492  0.2230E+01  0.7427E+02
     32.633  0.7003E+00  0.7437E+02
     32.773 -0.7794E-01  0.7436E+02
     32.914 -0.1250E+00  0.7434E+02
     33.054 -0.1739E+00  0.7432E+02
     33.195  0.9901E+00  0.7446E+02
     33.335  0.4610E+01  0.7510E+02
     33.476  0.6029E+01  0.7595E+02
     33.616  0.4190E+01  0.7654E+02
     33.756  0.3326E+01  0.7701E+02
     33.897  0.1733E+01  0.7725E+02
     34.037  0.8847E+00  0.7737E+02
     34.178  0.5257E+00  0.7745E+02
     34.318  0.4951E+00  0.7752E+02
     34.459  0.5380E+00  0.7759E+02
     34.599  0.9455E+00  0.7773E+02
     34.740  0.2659E+01  0.7810E+02
     34.880  0.2334E+01  0.7843E+02
     35.021  0.8249E+00  0.7854E+02
     35.161  0.7666E+00  0.7865E+02
     35.302  0.1470E+01  0.7886E+02
     35.442  0.6714E+00  0.7895E+02
     35.583 -0.1158E+00  0.7893E+02
     35.723  0.3235E+00  0.7898E+02
     35.863  0.1573E+01  0.7920E+02
     36.004  0.2083E+01  0.7949E+02
     36.144  0.2356E+01  0.7982E+02
     36.285  0.1312E+01  0.8001E+02
     36.425  0.2749E-01  0.8001E+02
     36.566 -0.8185E-01  0.8000E+02
     36.706 -0.1021E-01  0.8000E+02
     36.847 -0.3557E-03  0.8000E+02
     36.987 -0.4152E-05  0.8000E+02
     37.128 -0.1713E-07  0.8000E+02
     37.268 -0.2553E-10  0.8000E+02
     37.409 -0.1366E-13  0.8000E+02
     37.549  0.0000E+00  0.8000E+02
     37.690  0.0000E+00  0.8000E+02
     37.830  0.0000E+00  0.8000E+02
     37.971  0.0000E+00  0.8000E+02
     38.111  0.0000E+00  0.8000E+02
