    4    4    1    1
  0.1022208E+02  0.3445083E-09  0.3445083E-09  0.3445083E-09  0.5000000E-15
  1.000000000000000E-004
  CAR 
 unknown system                          
     32     10     40
 
  0.0000000E+00  0.0000000E+00  0.0000000E+00  0.8000000E-02
    1       -2.029591   1.000000
    2        1.841149   1.000000
    3        1.841149   1.000000
    4        1.841149   1.000000
    5        2.585637   1.000000
    6        2.585637   1.000000
    7        2.585637   1.000000
    8        5.149618   1.000000
    9        5.149618   1.000000
   10        5.149618   1.000000
   11        6.731773   0.658417
   12        6.731773   0.658417
   13        7.733285  -0.000000
   14        7.733285  -0.000000
   15        7.733285  -0.000000
   16        8.023275  -0.000000
   17        8.023275  -0.000000
   18        8.023275  -0.000000
   19        8.023275  -0.000000
   20        8.023275  -0.000000
   21        8.023275  -0.000000
   22       10.074713  -0.000000
   23       10.074713  -0.000000
   24       10.074713  -0.000000
   25       18.569544   0.000000
   26       18.569544   0.000000
   27       18.569544   0.000000
   28       23.084324   0.000000
   29       23.084324   0.000000
   30       23.084324   0.000000
   31       23.084324   0.000000
   32       23.084324   0.000000
   33       23.084324   0.000000
   34       28.742319   0.000000
   35       28.742319   0.000000
   36       28.742319   0.000000
   37       30.157478   0.000000
   38       33.419019   0.000000
   39       33.419019   0.000000
   40       33.419019   0.000000
 
  0.2000000E+00  0.0000000E+00  0.0000000E+00  0.4800000E-01
    1       -1.468381   1.000000
    2        1.943837   1.000000
    3        2.174178   1.000000
    4        2.174178   1.000000
    5        2.803351   1.000000
    6        2.839821   1.000000
    7        2.839821   1.000000
    8        4.873741   1.000000
    9        5.356121   1.000000
   10        5.356121   1.000000
   11        6.449595   1.022978
   12        6.581117   1.018337
   13        6.581117   1.018337
   14        6.807459   0.344435
   15        7.392187  -0.000050
   16        7.392187  -0.000050
   17        7.630724  -0.000000
   18        7.645228  -0.000000
   19        7.645228  -0.000000
   20        8.025256  -0.000000
   21        8.025256  -0.000000
   22        8.235597  -0.000000
   23       11.908123  -0.000000
   24       11.908123  -0.000000
   25       18.558210   0.000000
   26       18.558210   0.000000
   27       21.112773   0.000000
   28       21.112773   0.000000
   29       21.135892   0.000000
   30       22.007384   0.000000
   31       22.007384   0.000000
   32       24.013193   0.000000
   33       24.013193   0.000000
   34       28.802096   0.000000
   35       29.845454   0.000000
   36       31.119275   0.000000
   37       31.119275   0.000000
   38       33.186128   0.000000
   39       33.435029   0.000000
   40       33.435032   0.000000
 
  0.4000000E+00  0.0000000E+00  0.0000000E+00  0.4800000E-01
    1        0.042832   1.000000
    2        1.630667   1.000000
    3        2.851876   1.000000
    4        2.851876   1.000000
    5        3.398765   1.000000
    6        3.613643   1.000000
    7        3.613643   1.000000
    8        4.195129   1.000000
    9        4.877986   1.000000
   10        4.877986   1.000000
   11        5.903667   1.000000
   12        5.943905   1.000000
   13        5.943905   1.000000
   14        6.069832   1.000004
   15        6.699865   0.777414
   16        6.699865   0.777414
   17        6.796820   0.387532
   18        6.796820   0.387532
   19        7.051539  -0.031482
   20        7.367141  -0.000101
   21        8.027775  -0.000000
   22        8.027775  -0.000000
   23       14.779856   0.000000
   24       14.779856   0.000000
   25       17.937060   0.000000
   26       17.937060   0.000000
   27       18.562299   0.000000
   28       18.562299   0.000000
   29       20.721727   0.000000
   30       20.721727   0.000000
   31       25.748328   0.000000
   32       26.470644   0.000000
   33       26.470644   0.000000
   34       29.001914   0.000000
   35       29.385976   0.000000
   36       29.779929   0.000000
   37       29.841397   0.000000
   38       29.841397   0.000000
   39       34.951042   0.000000
   40       35.786778   0.000000
 
  0.2000000E+00  0.2000000E+00  0.0000000E+00  0.9600000E-01
    1       -0.933185   1.000000
    2        2.306898   1.000000
    3        2.306898   1.000000
    4        2.471330   1.000000
    5        3.035371   1.000000
    6        3.035371   1.000000
    7        3.047424   1.000000
    8        4.749481   1.000000
    9        5.412976   1.000000
   10        5.445800   1.000000
   11        6.003854   1.000000
   12        6.018143   1.000001
   13        6.018143   1.000001
   14        6.399523   1.012505
   15        6.821498   0.289796
   16        7.134358  -0.013603
   17        7.357075  -0.000133
   18        7.357075  -0.000133
   19        7.646733  -0.000000
   20        7.646733  -0.000000
   21        7.776628  -0.000000
   22       10.070388  -0.000000
   23       10.070388  -0.000000
   24       13.129226   0.000000
   25       17.354594   0.000000
   26       19.203744   0.000000
   27       21.167930   0.000000
   28       21.167930   0.000000
   29       21.886063   0.000000
   30       21.886063   0.000000
   31       22.953881   0.000000
   32       22.953881   0.000000
   33       24.866581   0.000000
   34       28.432499   0.000000
   35       29.647275   0.000000
   36       30.146050   0.000000
   37       31.404522   0.000000
   38       31.404522   0.000000
   39       34.338825   0.000000
   40       36.084737   0.000000
 
  0.4000000E+00  0.2000000E+00  0.0000000E+00  0.1920000E+00
    1        0.504536   1.000000
    2        2.033091   1.000000
    3        3.083431   1.000000
    4        3.142215   1.000000
    5        3.543277   1.000000
    6        3.567505   1.000000
    7        3.715676   1.000000
    8        4.214065   1.000000
    9        4.519992   1.000000
   10        4.786040   1.000000
   11        5.211077   1.000000
   12        5.392191   1.000000
   13        5.959177   1.000000
   14        6.264396   1.001021
   15        6.594258   1.007510
   16        6.698719   0.781338
   17        6.796592   0.388466
   18        6.861866   0.152973
   19        7.283519  -0.000851
   20        7.642011  -0.000000
   21        7.651664  -0.000000
   22        8.133367  -0.000000
   23       12.252551   0.000000
   24       14.582429   0.000000
   25       15.662250   0.000000
   26       18.695309   0.000000
   27       19.454325   0.000000
   28       20.375342   0.000000
   29       22.814994   0.000000
   30       23.788136   0.000000
   31       24.049806   0.000000
   32       24.256465   0.000000
   33       26.134149   0.000000
   34       26.610402   0.000000
   35       26.997128   0.000000
   36       32.139019   0.000000
   37       32.289962   0.000000
   38       33.304914   0.000000
   39       33.528469   0.000000
   40       36.110996   0.000000
 
  0.4000000E+00  0.4000000E+00  0.0000000E+00  0.9600000E-01
    1        1.695463   1.000000
    2        2.945209   1.000000
    3        2.945209   1.000000
    4        3.445431   1.000000
    5        3.831292   1.000000
    6        3.964912   1.000000
    7        3.964912   1.000000
    8        4.184446   1.000000
    9        4.398870   1.000000
   10        4.398870   1.000000
   11        4.472943   1.000000
   12        5.022843   1.000000
   13        5.995820   1.000000
   14        6.196534   1.000192
   15        6.247027   1.000683
   16        6.326343   1.003713
   17        6.326343   1.003713
   18        6.843285   0.211691
   19        6.843285   0.211691
   20        7.093385  -0.022279
   21        8.197269  -0.000000
   22        9.663368  -0.000000
   23        9.663368  -0.000000
   24       11.633435  -0.000000
   25       17.819047   0.000000
   26       20.284025   0.000000
   27       20.605981   0.000000
   28       20.605981   0.000000
   29       21.811695   0.000000
   30       21.811695   0.000000
   31       23.149457   0.000000
   32       23.825643   0.000000
   33       28.089147   0.000000
   34       28.089147   0.000000
   35       29.285884   0.000000
   36       30.805577   0.000000
   37       33.271598   0.000000
   38       34.839373   0.000000
   39       35.858291   0.000000
   40       35.858291   0.000000
 
  0.2000000E+00  0.2000000E+00  0.2000000E+00  0.6400000E-01
    1       -0.441124   1.000000
    2        2.577837   1.000000
    3        2.577837   1.000000
    4        2.577837   1.000000
    5        3.229935   1.000000
    6        3.229935   1.000000
    7        3.229935   1.000000
    8        4.690441   1.000000
    9        5.422795   1.000000
   10        5.422795   1.000000
   11        5.597358   1.000000
   12        5.597358   1.000000
   13        5.597358   1.000000
   14        6.669074   0.872559
   15        6.669074   0.872559
   16        6.720596   0.702041
   17        6.720596   0.702041
   18        6.720596   0.702041
   19        7.858638  -0.000000
   20        7.858638  -0.000000
   21        7.858638  -0.000000
   22       10.893579  -0.000000
   23       10.893579  -0.000000
   24       10.893579  -0.000000
   25       18.455188   0.000000
   26       18.455188   0.000000
   27       18.455188   0.000000
   28       21.854020   0.000000
   29       21.854020   0.000000
   30       21.854020   0.000000
   31       25.596557   0.000000
   32       25.655287   0.000000
   33       25.655287   0.000000
   34       25.655287   0.000000
   35       30.302176   0.000000
   36       30.302176   0.000000
   37       30.302176   0.000000
   38       31.062750   0.000000
   39       34.691515   0.000000
   40       34.691515   0.000000
 
  0.4000000E+00  0.2000000E+00  0.2000000E+00  0.1920000E+00
    1        0.858605   1.000000
    2        2.232738   1.000000
    3        3.164783   1.000000
    4        3.164783   1.000000
    5        3.619252   1.000000
    6        3.619252   1.000000
    7        3.775224   1.000000
    8        4.360506   1.000000
    9        4.794628   1.000000
   10        4.794628   1.000000
   11        5.046272   1.000000
   12        5.316612   1.000000
   13        5.613788   1.000000
   14        6.069146   1.000004
   15        6.297813   1.002108
   16        6.297813   1.002108
   17        6.831789   0.251774
   18        7.217561  -0.003443
   19        7.684703  -0.000000
   20        7.688536  -0.000000
   21        7.688536  -0.000000
   22        8.267441  -0.000000
   23       12.361872   0.000000
   24       12.361872   0.000000
   25       15.918388   0.000000
   26       15.918388   0.000000
   27       20.304204   0.000000
   28       22.634108   0.000000
   29       22.634108   0.000000
   30       22.725922   0.000000
   31       24.907191   0.000000
   32       24.907191   0.000000
   33       26.529077   0.000000
   34       27.854898   0.000000
   35       29.566654   0.000000
   36       31.111615   0.000000
   37       31.130296   0.000000
   38       33.374650   0.000000
   39       33.374650   0.000000
   40       34.693441   0.000000
 
  0.4000000E+00  0.4000000E+00  0.2000000E+00  0.1920000E+00
    1        1.702278   1.000000
    2        2.576437   1.000000
    3        2.576437   1.000000
    4        2.879231   1.000000
    5        4.132860   1.000000
    6        4.333367   1.000000
    7        4.333367   1.000000
    8        4.683468   1.000000
    9        4.865848   1.000000
   10        4.865848   1.000000
   11        5.046534   1.000000
   12        5.122383   1.000000
   13        5.445949   1.000000
   14        5.756099   1.000000
   15        5.756099   1.000000
   16        5.784651   1.000000
   17        6.902476   0.053902
   18        7.446136  -0.000009
   19        7.446136  -0.000009
   20        7.496933  -0.000002
   21        7.970560  -0.000000
   22        9.503105  -0.000000
   23        9.503105  -0.000000
   24       11.141561  -0.000000
   25       15.629874   0.000000
   26       17.490334   0.000000
   27       17.490334   0.000000
   28       19.762974   0.000000
   29       23.837791   0.000000
   30       25.597744   0.000000
   31       25.597744   0.000000
   32       27.637083   0.000000
   33       28.550497   0.000000
   34       28.550497   0.000000
   35       29.815404   0.000000
   36       30.774476   0.000000
   37       32.430770   0.000000
   38       33.696085   0.000000
   39       33.696085   0.000000
   40       35.234154   0.000000
 
  0.4000000E+00  0.4000000E+00  0.4000000E+00  0.6400000E-01
    1        1.812532   1.000000
    2        2.198134   1.000000
    3        2.198134   1.000000
    4        2.198134   1.000000
    5        4.775457   1.000000
    6        4.775457   1.000000
    7        4.775457   1.000000
    8        5.138919   1.000000
    9        5.138919   1.000000
   10        5.287702   1.000000
   11        5.287702   1.000000
   12        5.287702   1.000000
   13        5.837262   1.000000
   14        5.837262   1.000000
   15        5.837262   1.000000
   16        5.931617   1.000000
   17        7.548781  -0.000000
   18        7.548781  -0.000000
   19        7.784327  -0.000000
   20        7.784327  -0.000000
   21        7.784327  -0.000000
   22        9.076817  -0.000000
   23        9.076817  -0.000000
   24        9.076817  -0.000000
   25       15.423956   0.000000
   26       15.423956   0.000000
   27       15.423956   0.000000
   28       17.023089   0.000000
   29       27.805344   0.000000
   30       27.805344   0.000000
   31       27.805344   0.000000
   32       29.093293   0.000000
   33       31.419828   0.000000
   34       31.419828   0.000000
   35       31.419828   0.000000
   36       31.868541   0.000000
   37       31.868541   0.000000
   38       31.868541   0.000000
   39       33.987257   0.000000
   40       33.987257   0.000000
