<?xml version="1.0" encoding="ISO-8859-1"?>
<modeling>
 <generator>
  <i name="program" type="string">vasp </i>
  <i name="version" type="string">6.2.0  </i>
  <i name="subversion" type="string">18Jan21 (build Mar 17 2021 09:06:54) complex                          serial </i>
  <i name="platform" type="string">LinuxIFC </i>
  <i name="date" type="string">2021 09 09 </i>
  <i name="time" type="string">09:02:24 </i>
 </generator>
 <incar>
  <i type="string" name="PREC">normal</i>
  <i type="int" name="ICHARG">     1</i>
  <i type="int" name="IBRION">    -1</i>
  <i name="EDIFF">      0.00000100</i>
  <i type="int" name="NSW">     0</i>
  <i name="ENCUT">    250.00000000</i>
  <i type="int" name="NBANDS">    40</i>
  <i type="int" name="ISMEAR">     1</i>
  <i name="SIGMA">      0.20000000</i>
  <i type="logical" name="LCHARG"> T  </i>
  <i type="int" name="KPAR">     1</i>
  <i type="int" name="NCORE">     1</i>
  <i type="string" name="GGA">PE</i>
 </incar>
 <primitive_cell>
  <structure name="primitive_cell" >
   <crystal>
    <varray name="basis" >
     <v>       1.72254150      -1.72254150       0.00000000 </v>
     <v>       1.72254150       0.00000000       1.72254150 </v>
     <v>       0.00000000      -1.72254150       1.72254150 </v>
    </varray>
    <i name="volume">     10.22207533 </i>
    <varray name="rec_basis" >
     <v>       0.29026877      -0.29026877      -0.29026877 </v>
     <v>       0.29026877       0.29026877       0.29026877 </v>
     <v>      -0.29026877      -0.29026877       0.29026877 </v>
    </varray>
   </crystal>
   <varray name="positions" >
    <v>       0.00000000       0.00000000       0.00000000 </v>
   </varray>
  </structure>
  <varray name="primitive_index" >
   <v type="int" >        1 </v>
  </varray>
 </primitive_cell>
 <kpoints>
  <generation param="Monkhorst-Pack">
   <v type="int" name="divisions">       5        5        5 </v>
   <v name="usershift">      0.00000000       0.00000000       0.00000000 </v>
   <v name="genvec1">      0.20000000       0.00000000       0.00000000 </v>
   <v name="genvec2">      0.00000000       0.20000000       0.00000000 </v>
   <v name="genvec3">      0.00000000       0.00000000       0.20000000 </v>
   <v name="shift">      0.00000000       0.00000000       0.00000000 </v>
  </generation>
  <varray name="kpointlist" >
   <v>       0.00000000       0.00000000       0.00000000 </v>
   <v>       0.20000000       0.00000000       0.00000000 </v>
   <v>       0.40000000       0.00000000       0.00000000 </v>
   <v>       0.20000000       0.20000000       0.00000000 </v>
   <v>       0.40000000       0.20000000       0.00000000 </v>
   <v>       0.40000000       0.40000000       0.00000000 </v>
   <v>       0.20000000       0.20000000       0.20000000 </v>
   <v>       0.40000000       0.20000000       0.20000000 </v>
   <v>       0.40000000       0.40000000       0.20000000 </v>
   <v>       0.40000000       0.40000000       0.40000000 </v>
  </varray>
  <varray name="weights" >
   <v>       0.00800000 </v>
   <v>       0.04800000 </v>
   <v>       0.04800000 </v>
   <v>       0.09600000 </v>
   <v>       0.19200000 </v>
   <v>       0.09600000 </v>
   <v>       0.06400000 </v>
   <v>       0.19200000 </v>
   <v>       0.19200000 </v>
   <v>       0.06400000 </v>
  </varray>
 </kpoints>
 <parameters>
  <separator name="general" >
   <i type="string" name="SYSTEM">unknown system</i>
   <i type="logical" name="LCOMPAT"> F  </i>
  </separator>
  <separator name="electronic" >
   <i type="string" name="PREC">normal</i>
   <i name="ENMAX">    250.00000000</i>
   <i name="ENAUG">    511.36800000</i>
   <i name="EDIFF">      0.00000100</i>
   <i type="int" name="IALGO">    38</i>
   <i type="int" name="IWAVPR">     0</i>
   <i type="int" name="NBANDS">    40</i>
   <i type="int" name="NBANDSLOW">    -1</i>
   <i type="int" name="NBANDSHIGH">    -1</i>
   <i name="NELECT">     32.00000000</i>
   <i type="int" name="TURBO">     0</i>
   <i type="int" name="IRESTART">     0</i>
   <i type="int" name="NREBOOT">     0</i>
   <i type="int" name="NMIN">     0</i>
   <i name="EREF">      0.00000000</i>
   <separator name="electronic smearing" >
    <i type="int" name="ISMEAR">     1</i>
    <i name="SIGMA">      0.20000000</i>
    <i name="KSPACING">      0.50000000</i>
    <i type="logical" name="KGAMMA"> T  </i>
    <i type="logical" name="KBLOWUP"> T  </i>
   </separator>
   <separator name="electronic projectors" >
    <i type="logical" name="LREAL"> F  </i>
    <v name="ROPT">      0.00000000</v>
    <i type="int" name="LMAXPAW">  -100</i>
    <i type="int" name="LMAXMIX">     2</i>
    <i type="logical" name="NLSPLINE"> F  </i>
   </separator>
   <separator name="electronic startup" >
    <i type="int" name="ISTART">     0</i>
    <i type="int" name="ICHARG">     1</i>
    <i type="int" name="INIWAV">     1</i>
   </separator>
   <separator name="electronic spin" >
    <i type="int" name="ISPIN">     1</i>
    <i type="logical" name="LNONCOLLINEAR"> F  </i>
    <v name="MAGMOM">      1.00000000      1.00000000      1.00000000      1.00000000</v>
    <i name="NUPDOWN">     -1.00000000</i>
    <i type="logical" name="LSORBIT"> F  </i>
    <v name="SAXIS">      0.00000000      0.00000000      1.00000000</v>
    <i type="logical" name="LSPIRAL"> F  </i>
    <v name="QSPIRAL">      0.00000000      0.00000000      0.00000000</v>
    <i type="logical" name="LZEROZ"> F  </i>
   </separator>
   <separator name="electronic exchange-correlation" >
    <i type="logical" name="LASPH"> F  </i>
    <i type="logical" name="LMETAGGA"> F  </i>
   </separator>
   <separator name="electronic convergence" >
    <i type="int" name="NELM">    60</i>
    <i type="int" name="NELMDL">    -5</i>
    <i type="int" name="NELMIN">     2</i>
    <i name="ENINI">    250.00000000</i>
    <separator name="electronic convergence detail" >
     <i type="logical" name="LDIAG"> T  </i>
     <i type="logical" name="LSUBROT"> F  </i>
     <i name="WEIMIN">      0.00000000</i>
     <i name="EBREAK">      0.00000001</i>
     <i name="DEPER">      0.30000000</i>
     <i type="int" name="NRMM">     4</i>
     <i name="TIME">      0.40000000</i>
    </separator>
   </separator>
   <separator name="electronic mixer" >
    <i name="AMIX">      0.40000000</i>
    <i name="BMIX">      1.00000000</i>
    <i name="AMIN">      0.10000000</i>
    <i name="AMIX_MAG">      1.60000000</i>
    <i name="BMIX_MAG">      1.00000000</i>
    <separator name="electronic mixer details" >
     <i type="int" name="IMIX">     4</i>
     <i type="logical" name="MIXFIRST"> F  </i>
     <i type="int" name="MAXMIX">   -45</i>
     <i name="WC">    100.00000000</i>
     <i type="int" name="INIMIX">     1</i>
     <i type="int" name="MIXPRE">     1</i>
     <i type="int" name="MREMOVE">     5</i>
    </separator>
   </separator>
   <separator name="electronic dipolcorrection" >
    <i type="logical" name="LDIPOL"> F  </i>
    <i type="logical" name="LMONO"> F  </i>
    <i type="int" name="IDIPOL">     0</i>
    <i name="EPSILON">      1.00000000</i>
    <v name="DIPOL">   -100.00000000   -100.00000000   -100.00000000</v>
    <i name="EFIELD">      0.00000000</i>
   </separator>
  </separator>
  <separator name="grids" >
   <i type="int" name="NGX">    14</i>
   <i type="int" name="NGY">    14</i>
   <i type="int" name="NGZ">    14</i>
   <i type="int" name="NGXF">    28</i>
   <i type="int" name="NGYF">    28</i>
   <i type="int" name="NGZF">    28</i>
   <i type="logical" name="ADDGRID"> F  </i>
  </separator>
  <separator name="ionic" >
   <i type="int" name="NSW">     0</i>
   <i type="int" name="IBRION">    -1</i>
   <i type="int" name="MDALGO">     0</i>
   <i type="int" name="ISIF">     2</i>
   <i name="PSTRESS">      0.00000000</i>
   <i name="EDIFFG">      0.00001000</i>
   <i type="int" name="NFREE">     0</i>
   <i name="POTIM">      0.50000000</i>
   <i name="SMASS">     -3.00000000</i>
   <i name="SCALEE">      1.00000000</i>
  </separator>
  <separator name="ionic md" >
   <i name="TEBEG">      0.00010000</i>
   <i name="TEEND">      0.00010000</i>
   <i type="int" name="NBLOCK">     1</i>
   <i type="int" name="KBLOCK">     1</i>
   <i type="int" name="NPACO">   256</i>
   <i name="APACO">     16.00000000</i>
  </separator>
  <separator name="symmetry" >
   <i type="int" name="ISYM">     2</i>
   <i name="SYMPREC">      0.00001000</i>
  </separator>
  <separator name="dos" >
   <i type="int" name="LORBIT">     0</i>
   <v name="RWIGS">     -1.00000000</v>
   <i type="int" name="NEDOS">   301</i>
   <i name="EMIN">     10.00000000</i>
   <i name="EMAX">    -10.00000000</i>
   <i name="EFERMI">      0.00000000</i>
  </separator>
  <separator name="writing" >
   <i type="int" name="NWRITE">     2</i>
   <i type="logical" name="LWAVE"> T  </i>
   <i type="logical" name="LDOWNSAMPLE"> F  </i>
   <i type="logical" name="LCHARG"> T  </i>
   <i type="logical" name="LPARD"> F  </i>
   <i type="logical" name="LVTOT"> F  </i>
   <i type="logical" name="LVHAR"> F  </i>
   <i type="logical" name="LELF"> F  </i>
   <i type="logical" name="LOPTICS"> F  </i>
   <v name="STM">      0.00000000      0.00000000      0.00000000      0.00000000      0.00000000      0.00000000      0.00000000</v>
  </separator>
  <separator name="performance" >
   <i type="int" name="NPAR">     1</i>
   <i type="int" name="NSIM">     4</i>
   <i type="int" name="NBLK">    -1</i>
   <i type="logical" name="LPLANE"> T  </i>
   <i type="logical" name="LSCALAPACK"> F  </i>
   <i type="logical" name="LSCAAWARE"> F  </i>
   <i type="logical" name="LSCALU"> F  </i>
   <i type="logical" name="LASYNC"> F  </i>
   <i type="logical" name="LORBITALREAL"> F  </i>
  </separator>
  <separator name="miscellaneous" >
   <i type="int" name="IDIOT">     3</i>
   <i type="int" name="PHON_NSTRUCT">    -1</i>
   <i type="logical" name="LMUSIC"> F  </i>
   <v name="POMASS">     55.84700000</v>
   <v name="DARWINR">      0.00000000</v>
   <v name="DARWINV">      1.00000000</v>
   <i type="logical" name="LCORR"> T  </i>
  </separator>
  <i type="logical" name="GGA_COMPAT"> T  </i>
  <i type="logical" name="LBERRY"> F  </i>
  <i type="int" name="ICORELEVEL">     0</i>
  <i type="logical" name="LDAU"> F  </i>
  <i type="int" name="I_CONSTRAINED_M">     0</i>
  <separator name="electronic exchange-correlation" >
   <i type="string" name="GGA">PE</i>
   <i type="int" name="VOSKOWN">     0</i>
   <i type="logical" name="LHFCALC"> F  </i>
   <i type="string" name="PRECFOCK"></i>
   <i type="logical" name="LSYMGRAD"> F  </i>
   <i type="logical" name="LHFONE"> F  </i>
   <i type="logical" name="LRHFCALC"> F  </i>
   <i type="logical" name="LTHOMAS"> F  </i>
   <i type="logical" name="LMODELHF"> F  </i>
   <i type="logical" name="LFOCKACE"> F  </i>
   <i name="ENCUT4O">     -1.00000000</i>
   <i type="int" name="EXXOEP">     0</i>
   <i type="int" name="FOURORBIT">     0</i>
   <i name="AEXX">      0.00000000</i>
   <i name="HFALPHA">      0.00000000</i>
   <i name="MCALPHA">      0.00000000</i>
   <i name="ALDAX">      1.00000000</i>
   <i name="AGGAX">      1.00000000</i>
   <i name="ALDAC">      1.00000000</i>
   <i name="AGGAC">      1.00000000</i>
   <i type="int" name="NKREDX">     1</i>
   <i type="int" name="NKREDY">     1</i>
   <i type="int" name="NKREDZ">     1</i>
   <i type="logical" name="SHIFTRED"> F  </i>
   <i type="logical" name="ODDONLY"> F  </i>
   <i type="logical" name="EVENONLY"> F  </i>
   <i type="int" name="LMAXFOCK">     0</i>
   <i type="int" name="NMAXFOCKAE">     0</i>
   <i type="logical" name="LFOCKAEDFT"> F  </i>
   <i name="HFSCREEN">      0.00000000</i>
   <i name="HFSCREENC">      0.00000000</i>
   <i type="int" name="NBANDSGWLOW">     0</i>
  </separator>
  <separator name="vdW DFT" >
   <i type="logical" name="LUSE_VDW"> F  </i>
   <i name="Zab_VDW">     -0.84910000</i>
   <i name="PARAM1">      0.12340000</i>
   <i name="PARAM2">      1.00000000</i>
   <i name="PARAM3">      0.00000000</i>
  </separator>
  <separator name="model GW" >
   <i type="int" name="MODEL_GW">     0</i>
   <i name="MODEL_EPS0">      6.13324520</i>
   <i name="MODEL_ALPHA">      1.00000000</i>
  </separator>
  <separator name="linear response parameters" >
   <i type="logical" name="LEPSILON"> F  </i>
   <i type="logical" name="LRPA"> F  </i>
   <i type="logical" name="LNABLA"> F  </i>
   <i type="logical" name="LVEL"> F  </i>
   <i type="int" name="KINTER">     0</i>
   <i name="CSHIFT">      0.10000000</i>
   <i name="OMEGAMAX">     -1.00000000</i>
   <i name="DEG_THRESHOLD">      0.00200000</i>
   <i name="RTIME">     -0.10000000</i>
   <i name="WPLASMAI">      0.00000000</i>
   <v name="DFIELD">      0.00000000      0.00000000      0.00000000</v>
   <v name="WPLASMA">      0.00000000      0.00000000      0.00000000      0.00000000      0.00000000      0.00000000      0.00000000      0.00000000      0.00000000</v>
  </separator>
  <separator name="orbital magnetization" >
   <i type="logical" name="NUCIND"> F  </i>
   <v name="MAGPOS">      0.00000000      0.00000000      0.00000000</v>
   <i type="logical" name="LNICSALL"> T  </i>
   <i type="logical" name="ORBITALMAG"> F  </i>
   <i type="logical" name="LMAGBLOCH"> F  </i>
   <i type="logical" name="LCHIMAG"> F  </i>
   <i type="logical" name="LGAUGE"> T  </i>
   <i type="int" name="MAGATOM">     0</i>
   <v name="MAGDIPOL">      0.00000000      0.00000000      0.00000000</v>
   <v name="AVECCONST">      0.00000000      0.00000000      0.00000000</v>
  </separator>
  <separator name="response functions" >
   <i type="logical" name="LFINITE_TEMPERATURE"> F  </i>
   <i type="logical" name="LADDER"> F  </i>
   <i type="logical" name="LRPAFORCE"> F  </i>
   <i type="logical" name="LFXC"> F  </i>
   <i type="logical" name="LHARTREE"> T  </i>
   <i type="int" name="IBSE">     0</i>
   <v type="int" name="KPOINT">    -1     0     0     0</v>
   <i type="logical" name="LTCTC"> F  </i>
   <i type="logical" name="LTCTE"> F  </i>
   <i type="logical" name="LTETE"> F  </i>
   <i type="logical" name="LTRIPLET"> F  </i>
   <i type="logical" name="LFXCEPS"> F  </i>
   <i type="logical" name="LFXHEG"> F  </i>
   <i type="int" name="NATURALO">     2</i>
   <i type="logical" name="LHOLEGF"> F  </i>
   <i type="logical" name="L2ORDER"> F  </i>
   <i type="logical" name="LDMP1"> F  </i>
   <i type="logical" name="LMP2LT"> F  </i>
   <i type="logical" name="LSMP2LT"> F  </i>
   <i type="logical" name="LGWLF"> F  </i>
   <i name="ENCUTGW">     -2.00000000</i>
   <i name="ENCUTGWSOFT">     -2.00000000</i>
   <i name="ENCUTLF">     -1.00000000</i>
   <i type="logical" name="LESF_SPLINES"> F  </i>
   <i type="int" name="LMAXMP2">    -1</i>
   <i name="SCISSOR">      0.00000000</i>
   <i type="int" name="NOMEGA">     0</i>
   <i type="int" name="NOMEGAR">     0</i>
   <i type="int" name="NBANDSGW">    -1</i>
   <i type="int" name="NBANDSO">    -1</i>
   <i type="int" name="NBANDSV">    -1</i>
   <i type="int" name="NELM">     1</i>
   <i type="int" name="NELMHF">     1</i>
   <i type="int" name="DIM">     3</i>
   <i type="int" name="IESPILON">     4</i>
   <i type="int" name="ANTIRES">     0</i>
   <i name="OMEGAMAX">    -30.00000000</i>
   <i name="OMEGAMIN">    -30.00000000</i>
   <i name="OMEGATL">   -200.00000000</i>
   <i type="int" name="OMEGAGRID">     0</i>
   <i name="CSHIFT">     -0.10000000</i>
   <i type="logical" name="LSELFENERGY"> F  </i>
   <i type="logical" name="LSPECTRAL"> F  </i>
   <i type="logical" name="LSPECTRALGW"> F  </i>
   <i type="logical" name="LSINGLES"> F  </i>
   <i type="logical" name="LFERMIGW"> F  </i>
   <i type="logical" name="ODDONLYGW"> F  </i>
   <i type="logical" name="EVENONLYGW"> F  </i>
   <i type="int" name="NKREDLFX">     1</i>
   <i type="int" name="NKREDLFY">     1</i>
   <i type="int" name="NKREDLFZ">     1</i>
   <i type="int" name="MAXMEM">  2800</i>
   <i type="int" name="TELESCOPE">     0</i>
   <i type="int" name="NTAUPAR">    -1</i>
   <i type="int" name="NOMEGAPAR">    -1</i>
   <i name="DAMP_NEWTON">      0.80000001</i>
   <i name="LAMBDA">      1.00000000</i>
  </separator>
  <separator name="External order field" >
   <i name="OFIELD_KAPPA">      0.00000000</i>
   <v name="OFIELD_K">      0.00000000      0.00000000      0.00000000</v>
   <i name="OFIELD_Q6_NEAR">      0.00000000</i>
   <i name="OFIELD_Q6_FAR">      0.00000000</i>
   <i name="OFIELD_A">      0.00000000</i>
  </separator>
 </parameters>
 <atominfo>
  <atoms>       4 </atoms>
  <types>       1 </types>
  <array name="atoms" >
   <dimension dim="1">ion</dimension>
   <field type="string">element</field>
   <field type="int">atomtype</field>
   <set>
    <rc><c>Fe</c><c>   1</c></rc>
    <rc><c>Fe</c><c>   1</c></rc>
    <rc><c>Fe</c><c>   1</c></rc>
    <rc><c>Fe</c><c>   1</c></rc>
   </set>
  </array>
  <array name="atomtypes" >
   <dimension dim="1">type</dimension>
   <field type="int">atomspertype</field>
   <field type="string">element</field>
   <field>mass</field>
   <field>valence</field>
   <field type="string">pseudopotential</field>
   <set>
    <rc><c>   4</c><c>Fe</c><c>     55.84700000</c><c>      8.00000000</c><c>  PAW_PBE Fe 06Sep2000                  </c></rc>
   </set>
  </array>
 </atominfo>
 <structure name="initialpos" >
  <crystal>
   <varray name="basis" >
    <v>       3.44508300       0.00000000       0.00000000 </v>
    <v>       0.00000000       3.44508300       0.00000000 </v>
    <v>       0.00000000       0.00000000       3.44508300 </v>
   </varray>
   <i name="volume">     40.88830133 </i>
   <varray name="rec_basis" >
    <v>       0.29026877       0.00000000       0.00000000 </v>
    <v>       0.00000000       0.29026877       0.00000000 </v>
    <v>       0.00000000       0.00000000       0.29026877 </v>
   </varray>
  </crystal>
  <varray name="positions" >
   <v>       0.00000000       0.00000000       0.00000000 </v>
   <v>       0.50000000       0.50000000       0.00000000 </v>
   <v>       0.50000000       0.00000000       0.50000000 </v>
   <v>       0.00000000       0.50000000       0.50000000 </v>
  </varray>
 </structure>
 <calculation>
  <scstep>
   <time name="dav">    0.14    0.16</time>
   <time name="total">    0.15    0.17</time>
   <energy>
    <i name="alphaZ">    270.44909666 </i>
    <i name="ewald">  -2452.97223925 </i>
    <i name="hartreedc">   -414.53988404 </i>
    <i name="XCdc">     16.92970068 </i>
    <i name="pawpsdc">   2219.38341365 </i>
    <i name="pawaedc">  -2250.19294531 </i>
    <i name="eentropy">     -0.01376912 </i>
    <i name="bandstr">    370.37870587 </i>
    <i name="atom">   2376.99794615 </i>
    <i name="e_fr_energy">    136.42002530 </i>
    <i name="e_wo_entrp">    136.43379442 </i>
    <i name="e_0_energy">    136.42461501 </i>
   </energy>
  </scstep>
  <scstep>
   <time name="dav">    0.11    0.11</time>
   <time name="total">    0.11    0.11</time>
   <energy>
    <i name="e_fr_energy">    -29.01516327 </i>
    <i name="e_wo_entrp">    -29.01542350 </i>
    <i name="e_0_energy">    -29.01525001 </i>
   </energy>
  </scstep>
  <scstep>
   <time name="dav">    0.12    0.12</time>
   <time name="total">    0.12    0.12</time>
   <energy>
    <i name="e_fr_energy">    -38.45743439 </i>
    <i name="e_wo_entrp">    -38.42568030 </i>
    <i name="e_0_energy">    -38.44684969 </i>
   </energy>
  </scstep>
  <scstep>
   <time name="dav">    0.12    0.12</time>
   <time name="total">    0.12    0.12</time>
   <energy>
    <i name="e_fr_energy">    -38.53826684 </i>
    <i name="e_wo_entrp">    -38.50634150 </i>
    <i name="e_0_energy">    -38.52762506 </i>
   </energy>
  </scstep>
  <scstep>
   <time name="dav">    0.11    0.11</time>
   <time name="total">    0.12    0.12</time>
   <energy>
    <i name="e_fr_energy">    -38.53896793 </i>
    <i name="e_wo_entrp">    -38.50704313 </i>
    <i name="e_0_energy">    -38.52832633 </i>
   </energy>
  </scstep>
  <scstep>
   <time name="dav">    0.11    0.11</time>
   <time name="total">    0.13    0.13</time>
   <energy>
    <i name="e_fr_energy">    -32.51834252 </i>
    <i name="e_wo_entrp">    -32.46081361 </i>
    <i name="e_0_energy">    -32.49916622 </i>
   </energy>
  </scstep>
  <scstep>
   <time name="dav">    0.13    0.13</time>
   <time name="total">    0.14    0.14</time>
   <energy>
    <i name="e_fr_energy">    -32.19530893 </i>
    <i name="e_wo_entrp">    -32.14296740 </i>
    <i name="e_0_energy">    -32.17786175 </i>
   </energy>
  </scstep>
  <scstep>
   <time name="dav">    0.13    0.13</time>
   <time name="total">    0.15    0.15</time>
   <energy>
    <i name="e_fr_energy">    -32.14808934 </i>
    <i name="e_wo_entrp">    -32.09426222 </i>
    <i name="e_0_energy">    -32.13014696 </i>
   </energy>
  </scstep>
  <scstep>
   <time name="dav">    0.13    0.13</time>
   <time name="total">    0.14    0.14</time>
   <energy>
    <i name="e_fr_energy">    -32.12724956 </i>
    <i name="e_wo_entrp">    -32.07396511 </i>
    <i name="e_0_energy">    -32.10948807 </i>
   </energy>
  </scstep>
  <scstep>
   <time name="dav">    0.11    0.11</time>
   <time name="total">    0.13    0.13</time>
   <energy>
    <i name="e_fr_energy">    -32.12727454 </i>
    <i name="e_wo_entrp">    -32.07392504 </i>
    <i name="e_0_energy">    -32.10949137 </i>
   </energy>
  </scstep>
  <scstep>
   <time name="dav">    0.13    0.13</time>
   <time name="total">    0.15    0.15</time>
   <energy>
    <i name="e_fr_energy">    -32.12725367 </i>
    <i name="e_wo_entrp">    -32.07395753 </i>
    <i name="e_0_energy">    -32.10948829 </i>
   </energy>
  </scstep>
  <scstep>
   <time name="dav">    0.11    0.11</time>
   <time name="total">    0.13    0.13</time>
   <energy>
    <i name="e_fr_energy">    -32.12724996 </i>
    <i name="e_wo_entrp">    -32.07394264 </i>
    <i name="e_0_energy">    -32.10948085 </i>
   </energy>
  </scstep>
  <scstep>
   <time name="dav">    0.08    0.08</time>
   <time name="total">    0.10    0.10</time>
   <energy>
    <i name="e_fr_energy">    -32.12725115 </i>
    <i name="e_wo_entrp">    -32.07394850 </i>
    <i name="e_0_energy">    -32.10948360 </i>
   </energy>
  </scstep>
  <scstep>
   <time name="dav">    0.07    0.07</time>
   <time name="total">    0.08    0.08</time>
   <energy>
    <i name="alphaZ">    270.44909666 </i>
    <i name="ewald">  -2452.97223925 </i>
    <i name="hartreedc">   -345.36193334 </i>
    <i name="XCdc">     13.66668897 </i>
    <i name="pawpsdc">   2940.92903160 </i>
    <i name="pawaedc">  -2974.77177322 </i>
    <i name="eentropy">     -0.05330203 </i>
    <i name="bandstr">    138.98923292 </i>
    <i name="atom">   2376.99794615 </i>
    <i name="e_fr_energy">    -32.12725153 </i>
    <i name="e_wo_entrp">    -32.07394951 </i>
    <i name="e_0_energy">    -32.10948419 </i>
   </energy>
  </scstep>
  <structure>
   <crystal>
    <varray name="basis" >
     <v>       3.44508300       0.00000000       0.00000000 </v>
     <v>       0.00000000       3.44508300       0.00000000 </v>
     <v>       0.00000000       0.00000000       3.44508300 </v>
    </varray>
    <i name="volume">     40.88830133 </i>
    <varray name="rec_basis" >
     <v>       0.29026877       0.00000000       0.00000000 </v>
     <v>       0.00000000       0.29026877       0.00000000 </v>
     <v>       0.00000000       0.00000000       0.29026877 </v>
    </varray>
   </crystal>
   <varray name="positions" >
    <v>       0.00000000       0.00000000       0.00000000 </v>
    <v>       0.50000000       0.50000000       0.00000000 </v>
    <v>       0.50000000       0.00000000       0.50000000 </v>
    <v>       0.00000000       0.50000000       0.50000000 </v>
   </varray>
  </structure>
  <varray name="forces" >
   <v>       0.00000000       0.00000000      -0.00000000 </v>
   <v>      -0.00000000       0.00000000       0.00000000 </v>
   <v>       0.00000000      -0.00000000      -0.00000000 </v>
   <v>      -0.00000000      -0.00000000      -0.00000000 </v>
  </varray>
  <varray name="stress" >
   <v>    -133.57379712      -0.00000000       0.00000000 </v>
   <v>       0.00000000    -133.57379712       0.00000000 </v>
   <v>      -0.00000000      -0.00000000    -133.57379712 </v>
  </varray>
  <energy>
   <i name="e_fr_energy">    -32.12725153 </i>
   <i name="e_wo_entrp">    -32.07394951 </i>
   <i name="e_0_energy">    -32.10948419 </i>
  </energy>
  <time name="totalsc">    1.90    1.92</time>
  <eigenvalues>
   <array>
    <dimension dim="1">band</dimension>
    <dimension dim="2">kpoint</dimension>
    <dimension dim="3">spin</dimension>
    <field>eigene</field>
    <field>occ</field>
    <set>
     <set comment="spin 1">
      <set comment="kpoint 1">
       <r>   -2.0296    1.0000 </r>
       <r>    1.8411    1.0000 </r>
       <r>    1.8411    1.0000 </r>
       <r>    1.8411    1.0000 </r>
       <r>    2.5856    1.0000 </r>
       <r>    2.5856    1.0000 </r>
       <r>    2.5856    1.0000 </r>
       <r>    5.1496    1.0000 </r>
       <r>    5.1496    1.0000 </r>
       <r>    5.1496    1.0000 </r>
       <r>    6.7318    0.6584 </r>
       <r>    6.7318    0.6584 </r>
       <r>    7.7333   -0.0000 </r>
       <r>    7.7333   -0.0000 </r>
       <r>    7.7333   -0.0000 </r>
       <r>    8.0233   -0.0000 </r>
       <r>    8.0233   -0.0000 </r>
       <r>    8.0233   -0.0000 </r>
       <r>    8.0233   -0.0000 </r>
       <r>    8.0233   -0.0000 </r>
       <r>    8.0233   -0.0000 </r>
       <r>   10.0747   -0.0000 </r>
       <r>   10.0747   -0.0000 </r>
       <r>   10.0747   -0.0000 </r>
       <r>   18.5695    0.0000 </r>
       <r>   18.5695    0.0000 </r>
       <r>   18.5695    0.0000 </r>
       <r>   23.0843    0.0000 </r>
       <r>   23.0843    0.0000 </r>
       <r>   23.0843    0.0000 </r>
       <r>   23.0843    0.0000 </r>
       <r>   23.0843    0.0000 </r>
       <r>   23.0843    0.0000 </r>
       <r>   28.7423    0.0000 </r>
       <r>   28.7423    0.0000 </r>
       <r>   28.7423    0.0000 </r>
       <r>   30.1575    0.0000 </r>
       <r>   33.4190    0.0000 </r>
       <r>   33.4190    0.0000 </r>
       <r>   33.4190    0.0000 </r>
      </set>
      <set comment="kpoint 2">
       <r>   -1.4684    1.0000 </r>
       <r>    1.9438    1.0000 </r>
       <r>    2.1742    1.0000 </r>
       <r>    2.1742    1.0000 </r>
       <r>    2.8034    1.0000 </r>
       <r>    2.8398    1.0000 </r>
       <r>    2.8398    1.0000 </r>
       <r>    4.8737    1.0000 </r>
       <r>    5.3561    1.0000 </r>
       <r>    5.3561    1.0000 </r>
       <r>    6.4496    1.0230 </r>
       <r>    6.5811    1.0183 </r>
       <r>    6.5811    1.0183 </r>
       <r>    6.8075    0.3444 </r>
       <r>    7.3922   -0.0000 </r>
       <r>    7.3922   -0.0000 </r>
       <r>    7.6307   -0.0000 </r>
       <r>    7.6452   -0.0000 </r>
       <r>    7.6452   -0.0000 </r>
       <r>    8.0253   -0.0000 </r>
       <r>    8.0253   -0.0000 </r>
       <r>    8.2356   -0.0000 </r>
       <r>   11.9081   -0.0000 </r>
       <r>   11.9081   -0.0000 </r>
       <r>   18.5582    0.0000 </r>
       <r>   18.5582    0.0000 </r>
       <r>   21.1128    0.0000 </r>
       <r>   21.1128    0.0000 </r>
       <r>   21.1359    0.0000 </r>
       <r>   22.0074    0.0000 </r>
       <r>   22.0074    0.0000 </r>
       <r>   24.0132    0.0000 </r>
       <r>   24.0132    0.0000 </r>
       <r>   28.8021    0.0000 </r>
       <r>   29.8455    0.0000 </r>
       <r>   31.1193    0.0000 </r>
       <r>   31.1193    0.0000 </r>
       <r>   33.1861    0.0000 </r>
       <r>   33.4350    0.0000 </r>
       <r>   33.4350    0.0000 </r>
      </set>
      <set comment="kpoint 3">
       <r>    0.0428    1.0000 </r>
       <r>    1.6307    1.0000 </r>
       <r>    2.8519    1.0000 </r>
       <r>    2.8519    1.0000 </r>
       <r>    3.3988    1.0000 </r>
       <r>    3.6136    1.0000 </r>
       <r>    3.6136    1.0000 </r>
       <r>    4.1951    1.0000 </r>
       <r>    4.8780    1.0000 </r>
       <r>    4.8780    1.0000 </r>
       <r>    5.9037    1.0000 </r>
       <r>    5.9439    1.0000 </r>
       <r>    5.9439    1.0000 </r>
       <r>    6.0698    1.0000 </r>
       <r>    6.6999    0.7774 </r>
       <r>    6.6999    0.7774 </r>
       <r>    6.7968    0.3875 </r>
       <r>    6.7968    0.3875 </r>
       <r>    7.0515   -0.0315 </r>
       <r>    7.3671   -0.0001 </r>
       <r>    8.0278   -0.0000 </r>
       <r>    8.0278   -0.0000 </r>
       <r>   14.7799    0.0000 </r>
       <r>   14.7799    0.0000 </r>
       <r>   17.9371    0.0000 </r>
       <r>   17.9371    0.0000 </r>
       <r>   18.5623    0.0000 </r>
       <r>   18.5623    0.0000 </r>
       <r>   20.7217    0.0000 </r>
       <r>   20.7217    0.0000 </r>
       <r>   25.7483    0.0000 </r>
       <r>   26.4706    0.0000 </r>
       <r>   26.4706    0.0000 </r>
       <r>   29.0019    0.0000 </r>
       <r>   29.3860    0.0000 </r>
       <r>   29.7799    0.0000 </r>
       <r>   29.8414    0.0000 </r>
       <r>   29.8414    0.0000 </r>
       <r>   34.9510    0.0000 </r>
       <r>   35.7868    0.0000 </r>
      </set>
      <set comment="kpoint 4">
       <r>   -0.9332    1.0000 </r>
       <r>    2.3069    1.0000 </r>
       <r>    2.3069    1.0000 </r>
       <r>    2.4713    1.0000 </r>
       <r>    3.0354    1.0000 </r>
       <r>    3.0354    1.0000 </r>
       <r>    3.0474    1.0000 </r>
       <r>    4.7495    1.0000 </r>
       <r>    5.4130    1.0000 </r>
       <r>    5.4458    1.0000 </r>
       <r>    6.0039    1.0000 </r>
       <r>    6.0181    1.0000 </r>
       <r>    6.0181    1.0000 </r>
       <r>    6.3995    1.0125 </r>
       <r>    6.8215    0.2898 </r>
       <r>    7.1344   -0.0136 </r>
       <r>    7.3571   -0.0001 </r>
       <r>    7.3571   -0.0001 </r>
       <r>    7.6467   -0.0000 </r>
       <r>    7.6467   -0.0000 </r>
       <r>    7.7766   -0.0000 </r>
       <r>   10.0704   -0.0000 </r>
       <r>   10.0704   -0.0000 </r>
       <r>   13.1292    0.0000 </r>
       <r>   17.3546    0.0000 </r>
       <r>   19.2037    0.0000 </r>
       <r>   21.1679    0.0000 </r>
       <r>   21.1679    0.0000 </r>
       <r>   21.8861    0.0000 </r>
       <r>   21.8861    0.0000 </r>
       <r>   22.9539    0.0000 </r>
       <r>   22.9539    0.0000 </r>
       <r>   24.8666    0.0000 </r>
       <r>   28.4325    0.0000 </r>
       <r>   29.6473    0.0000 </r>
       <r>   30.1461    0.0000 </r>
       <r>   31.4045    0.0000 </r>
       <r>   31.4045    0.0000 </r>
       <r>   34.3388    0.0000 </r>
       <r>   36.0847    0.0000 </r>
      </set>
      <set comment="kpoint 5">
       <r>    0.5045    1.0000 </r>
       <r>    2.0331    1.0000 </r>
       <r>    3.0834    1.0000 </r>
       <r>    3.1422    1.0000 </r>
       <r>    3.5433    1.0000 </r>
       <r>    3.5675    1.0000 </r>
       <r>    3.7157    1.0000 </r>
       <r>    4.2141    1.0000 </r>
       <r>    4.5200    1.0000 </r>
       <r>    4.7860    1.0000 </r>
       <r>    5.2111    1.0000 </r>
       <r>    5.3922    1.0000 </r>
       <r>    5.9592    1.0000 </r>
       <r>    6.2644    1.0010 </r>
       <r>    6.5943    1.0075 </r>
       <r>    6.6987    0.7813 </r>
       <r>    6.7966    0.3885 </r>
       <r>    6.8619    0.1530 </r>
       <r>    7.2835   -0.0009 </r>
       <r>    7.6420   -0.0000 </r>
       <r>    7.6517   -0.0000 </r>
       <r>    8.1334   -0.0000 </r>
       <r>   12.2526    0.0000 </r>
       <r>   14.5824    0.0000 </r>
       <r>   15.6623    0.0000 </r>
       <r>   18.6953    0.0000 </r>
       <r>   19.4543    0.0000 </r>
       <r>   20.3753    0.0000 </r>
       <r>   22.8150    0.0000 </r>
       <r>   23.7881    0.0000 </r>
       <r>   24.0498    0.0000 </r>
       <r>   24.2565    0.0000 </r>
       <r>   26.1341    0.0000 </r>
       <r>   26.6104    0.0000 </r>
       <r>   26.9971    0.0000 </r>
       <r>   32.1390    0.0000 </r>
       <r>   32.2900    0.0000 </r>
       <r>   33.3049    0.0000 </r>
       <r>   33.5285    0.0000 </r>
       <r>   36.1110    0.0000 </r>
      </set>
      <set comment="kpoint 6">
       <r>    1.6955    1.0000 </r>
       <r>    2.9452    1.0000 </r>
       <r>    2.9452    1.0000 </r>
       <r>    3.4454    1.0000 </r>
       <r>    3.8313    1.0000 </r>
       <r>    3.9649    1.0000 </r>
       <r>    3.9649    1.0000 </r>
       <r>    4.1844    1.0000 </r>
       <r>    4.3989    1.0000 </r>
       <r>    4.3989    1.0000 </r>
       <r>    4.4729    1.0000 </r>
       <r>    5.0228    1.0000 </r>
       <r>    5.9958    1.0000 </r>
       <r>    6.1965    1.0002 </r>
       <r>    6.2470    1.0007 </r>
       <r>    6.3263    1.0037 </r>
       <r>    6.3263    1.0037 </r>
       <r>    6.8433    0.2117 </r>
       <r>    6.8433    0.2117 </r>
       <r>    7.0934   -0.0223 </r>
       <r>    8.1973   -0.0000 </r>
       <r>    9.6634   -0.0000 </r>
       <r>    9.6634   -0.0000 </r>
       <r>   11.6334   -0.0000 </r>
       <r>   17.8190    0.0000 </r>
       <r>   20.2840    0.0000 </r>
       <r>   20.6060    0.0000 </r>
       <r>   20.6060    0.0000 </r>
       <r>   21.8117    0.0000 </r>
       <r>   21.8117    0.0000 </r>
       <r>   23.1495    0.0000 </r>
       <r>   23.8256    0.0000 </r>
       <r>   28.0891    0.0000 </r>
       <r>   28.0891    0.0000 </r>
       <r>   29.2859    0.0000 </r>
       <r>   30.8056    0.0000 </r>
       <r>   33.2716    0.0000 </r>
       <r>   34.8394    0.0000 </r>
       <r>   35.8583    0.0000 </r>
       <r>   35.8583    0.0000 </r>
      </set>
      <set comment="kpoint 7">
       <r>   -0.4411    1.0000 </r>
       <r>    2.5778    1.0000 </r>
       <r>    2.5778    1.0000 </r>
       <r>    2.5778    1.0000 </r>
       <r>    3.2299    1.0000 </r>
       <r>    3.2299    1.0000 </r>
       <r>    3.2299    1.0000 </r>
       <r>    4.6904    1.0000 </r>
       <r>    5.4228    1.0000 </r>
       <r>    5.4228    1.0000 </r>
       <r>    5.5974    1.0000 </r>
       <r>    5.5974    1.0000 </r>
       <r>    5.5974    1.0000 </r>
       <r>    6.6691    0.8726 </r>
       <r>    6.6691    0.8726 </r>
       <r>    6.7206    0.7020 </r>
       <r>    6.7206    0.7020 </r>
       <r>    6.7206    0.7020 </r>
       <r>    7.8586   -0.0000 </r>
       <r>    7.8586   -0.0000 </r>
       <r>    7.8586   -0.0000 </r>
       <r>   10.8936   -0.0000 </r>
       <r>   10.8936   -0.0000 </r>
       <r>   10.8936   -0.0000 </r>
       <r>   18.4552    0.0000 </r>
       <r>   18.4552    0.0000 </r>
       <r>   18.4552    0.0000 </r>
       <r>   21.8540    0.0000 </r>
       <r>   21.8540    0.0000 </r>
       <r>   21.8540    0.0000 </r>
       <r>   25.5966    0.0000 </r>
       <r>   25.6553    0.0000 </r>
       <r>   25.6553    0.0000 </r>
       <r>   25.6553    0.0000 </r>
       <r>   30.3022    0.0000 </r>
       <r>   30.3022    0.0000 </r>
       <r>   30.3022    0.0000 </r>
       <r>   31.0628    0.0000 </r>
       <r>   34.6915    0.0000 </r>
       <r>   34.6915    0.0000 </r>
      </set>
      <set comment="kpoint 8">
       <r>    0.8586    1.0000 </r>
       <r>    2.2327    1.0000 </r>
       <r>    3.1648    1.0000 </r>
       <r>    3.1648    1.0000 </r>
       <r>    3.6193    1.0000 </r>
       <r>    3.6193    1.0000 </r>
       <r>    3.7752    1.0000 </r>
       <r>    4.3605    1.0000 </r>
       <r>    4.7946    1.0000 </r>
       <r>    4.7946    1.0000 </r>
       <r>    5.0463    1.0000 </r>
       <r>    5.3166    1.0000 </r>
       <r>    5.6138    1.0000 </r>
       <r>    6.0691    1.0000 </r>
       <r>    6.2978    1.0021 </r>
       <r>    6.2978    1.0021 </r>
       <r>    6.8318    0.2518 </r>
       <r>    7.2176   -0.0034 </r>
       <r>    7.6847   -0.0000 </r>
       <r>    7.6885   -0.0000 </r>
       <r>    7.6885   -0.0000 </r>
       <r>    8.2674   -0.0000 </r>
       <r>   12.3619    0.0000 </r>
       <r>   12.3619    0.0000 </r>
       <r>   15.9184    0.0000 </r>
       <r>   15.9184    0.0000 </r>
       <r>   20.3042    0.0000 </r>
       <r>   22.6341    0.0000 </r>
       <r>   22.6341    0.0000 </r>
       <r>   22.7259    0.0000 </r>
       <r>   24.9072    0.0000 </r>
       <r>   24.9072    0.0000 </r>
       <r>   26.5291    0.0000 </r>
       <r>   27.8549    0.0000 </r>
       <r>   29.5667    0.0000 </r>
       <r>   31.1116    0.0000 </r>
       <r>   31.1303    0.0000 </r>
       <r>   33.3746    0.0000 </r>
       <r>   33.3746    0.0000 </r>
       <r>   34.6934    0.0000 </r>
      </set>
      <set comment="kpoint 9">
       <r>    1.7023    1.0000 </r>
       <r>    2.5764    1.0000 </r>
       <r>    2.5764    1.0000 </r>
       <r>    2.8792    1.0000 </r>
       <r>    4.1329    1.0000 </r>
       <r>    4.3334    1.0000 </r>
       <r>    4.3334    1.0000 </r>
       <r>    4.6835    1.0000 </r>
       <r>    4.8658    1.0000 </r>
       <r>    4.8658    1.0000 </r>
       <r>    5.0465    1.0000 </r>
       <r>    5.1224    1.0000 </r>
       <r>    5.4459    1.0000 </r>
       <r>    5.7561    1.0000 </r>
       <r>    5.7561    1.0000 </r>
       <r>    5.7847    1.0000 </r>
       <r>    6.9025    0.0539 </r>
       <r>    7.4461   -0.0000 </r>
       <r>    7.4461   -0.0000 </r>
       <r>    7.4969   -0.0000 </r>
       <r>    7.9706   -0.0000 </r>
       <r>    9.5031   -0.0000 </r>
       <r>    9.5031   -0.0000 </r>
       <r>   11.1416   -0.0000 </r>
       <r>   15.6299    0.0000 </r>
       <r>   17.4903    0.0000 </r>
       <r>   17.4903    0.0000 </r>
       <r>   19.7630    0.0000 </r>
       <r>   23.8378    0.0000 </r>
       <r>   25.5977    0.0000 </r>
       <r>   25.5977    0.0000 </r>
       <r>   27.6371    0.0000 </r>
       <r>   28.5505    0.0000 </r>
       <r>   28.5505    0.0000 </r>
       <r>   29.8154    0.0000 </r>
       <r>   30.7745    0.0000 </r>
       <r>   32.4308    0.0000 </r>
       <r>   33.6961    0.0000 </r>
       <r>   33.6961    0.0000 </r>
       <r>   35.2342    0.0000 </r>
      </set>
      <set comment="kpoint 10">
       <r>    1.8125    1.0000 </r>
       <r>    2.1981    1.0000 </r>
       <r>    2.1981    1.0000 </r>
       <r>    2.1981    1.0000 </r>
       <r>    4.7755    1.0000 </r>
       <r>    4.7755    1.0000 </r>
       <r>    4.7755    1.0000 </r>
       <r>    5.1389    1.0000 </r>
       <r>    5.1389    1.0000 </r>
       <r>    5.2877    1.0000 </r>
       <r>    5.2877    1.0000 </r>
       <r>    5.2877    1.0000 </r>
       <r>    5.8373    1.0000 </r>
       <r>    5.8373    1.0000 </r>
       <r>    5.8373    1.0000 </r>
       <r>    5.9316    1.0000 </r>
       <r>    7.5488   -0.0000 </r>
       <r>    7.5488   -0.0000 </r>
       <r>    7.7843   -0.0000 </r>
       <r>    7.7843   -0.0000 </r>
       <r>    7.7843   -0.0000 </r>
       <r>    9.0768   -0.0000 </r>
       <r>    9.0768   -0.0000 </r>
       <r>    9.0768   -0.0000 </r>
       <r>   15.4240    0.0000 </r>
       <r>   15.4240    0.0000 </r>
       <r>   15.4240    0.0000 </r>
       <r>   17.0231    0.0000 </r>
       <r>   27.8053    0.0000 </r>
       <r>   27.8053    0.0000 </r>
       <r>   27.8053    0.0000 </r>
       <r>   29.0933    0.0000 </r>
       <r>   31.4198    0.0000 </r>
       <r>   31.4198    0.0000 </r>
       <r>   31.4198    0.0000 </r>
       <r>   31.8685    0.0000 </r>
       <r>   31.8685    0.0000 </r>
       <r>   31.8685    0.0000 </r>
       <r>   33.9873    0.0000 </r>
       <r>   33.9873    0.0000 </r>
      </set>
     </set>
    </set>
   </array>
  </eigenvalues>
  <separator name="orbital magnetization" >
   <v name="MAGDIPOLOUT">      0.00000000      0.00000000      0.00000000</v>
  </separator>
  <dos>
   <i name="efermi">      6.76997370 </i>
   <total>
    <array>
     <dimension dim="1">gridpoints</dimension>
     <dimension dim="2">spin</dimension>
     <field>energy</field>
     <field>total</field>
     <field>integrated</field>
     <set>
      <set comment="spin 1">
       <r>    -4.0296     0.0000     0.0000 </r>
       <r>    -3.8891     0.0000     0.0000 </r>
       <r>    -3.7487    -0.0000    -0.0000 </r>
       <r>    -3.6082    -0.0000    -0.0000 </r>
       <r>    -3.4677    -0.0000    -0.0000 </r>
       <r>    -3.3272    -0.0000    -0.0000 </r>
       <r>    -3.1868    -0.0000    -0.0000 </r>
       <r>    -3.0463    -0.0000    -0.0000 </r>
       <r>    -2.9058    -0.0000    -0.0000 </r>
       <r>    -2.7654    -0.0000    -0.0000 </r>
       <r>    -2.6249    -0.0000    -0.0000 </r>
       <r>    -2.4844    -0.0003    -0.0000 </r>
       <r>    -2.3440    -0.0024    -0.0004 </r>
       <r>    -2.2035     0.0021    -0.0001 </r>
       <r>    -2.0630     0.0417     0.0058 </r>
       <r>    -1.9226     0.0582     0.0139 </r>
       <r>    -1.7821     0.0020     0.0142 </r>
       <r>    -1.6416     0.0103     0.0157 </r>
       <r>    -1.5012     0.2505     0.0508 </r>
       <r>    -1.3607     0.3537     0.1005 </r>
       <r>    -1.2202     0.0643     0.1096 </r>
       <r>    -1.0798     0.0638     0.1185 </r>
       <r>    -0.9393     0.6011     0.2030 </r>
       <r>    -0.7988     0.6370     0.2924 </r>
       <r>    -0.6583     0.0979     0.3062 </r>
       <r>    -0.5179     0.1752     0.3308 </r>
       <r>    -0.3774     0.4938     0.4002 </r>
       <r>    -0.2369     0.2297     0.4324 </r>
       <r>    -0.0965     0.0410     0.4382 </r>
       <r>     0.0440     0.2952     0.4797 </r>
       <r>     0.1845     0.2557     0.5156 </r>
       <r>     0.3249     0.0783     0.5266 </r>
       <r>     0.4654     0.9133     0.6549 </r>
       <r>     0.6059     1.3894     0.8500 </r>
       <r>     0.7463     0.8063     0.9633 </r>
       <r>     0.8868     1.3533     1.1534 </r>
       <r>     1.0273     1.0180     1.2964 </r>
       <r>     1.1677     0.0633     1.3053 </r>
       <r>     1.3082    -0.1108     1.2897 </r>
       <r>     1.4487    -0.1252     1.2721 </r>
       <r>     1.5892     0.7480     1.3772 </r>
       <r>     1.7296     2.6617     1.7511 </r>
       <r>     1.8701     2.4719     2.0983 </r>
       <r>     2.0106     1.8759     2.3618 </r>
       <r>     2.1510     3.5536     2.8610 </r>
       <r>     2.2915     4.9246     3.5527 </r>
       <r>     2.4320     3.6918     4.0713 </r>
       <r>     2.5724     4.5129     4.7052 </r>
       <r>     2.7129     4.3370     5.3144 </r>
       <r>     2.8534     3.6308     5.8244 </r>
       <r>     2.9938     6.1641     6.6903 </r>
       <r>     3.1343     8.7030     7.9128 </r>
       <r>     3.2748     6.9345     8.8869 </r>
       <r>     3.4152     2.8058     9.2810 </r>
       <r>     3.5557     5.0984     9.9972 </r>
       <r>     3.6962     8.1381    11.1403 </r>
       <r>     3.8367     5.5585    11.9211 </r>
       <r>     3.9771     2.6509    12.2935 </r>
       <r>     4.1176     2.9103    12.7023 </r>
       <r>     4.2581     5.7968    13.5166 </r>
       <r>     4.3985     7.7886    14.6106 </r>
       <r>     4.5390     5.5021    15.3835 </r>
       <r>     4.6795     5.0106    16.0873 </r>
       <r>     4.8199    10.2253    17.5237 </r>
       <r>     4.9604    10.0900    18.9410 </r>
       <r>     5.1009     7.2389    19.9578 </r>
       <r>     5.2413     7.2789    20.9803 </r>
       <r>     5.3818     8.4882    22.1726 </r>
       <r>     5.5223     7.7394    23.2598 </r>
       <r>     5.6627     5.6486    24.0532 </r>
       <r>     5.8032     6.8475    25.0151 </r>
       <r>     5.9437     8.3667    26.1903 </r>
       <r>     6.0841     7.8256    27.2896 </r>
       <r>     6.2246     6.8316    28.2492 </r>
       <r>     6.3651     7.4230    29.2919 </r>
       <r>     6.5056     4.4937    29.9231 </r>
       <r>     6.6460     5.2888    30.6660 </r>
       <r>     6.7865    10.9746    32.2076 </r>
       <r>     6.9270    10.7174    33.7131 </r>
       <r>     7.0674     4.4384    34.3365 </r>
       <r>     7.2079     3.1388    34.7774 </r>
       <r>     7.3484     5.7548    35.5858 </r>
       <r>     7.4888     8.2055    36.7384 </r>
       <r>     7.6293    11.3646    38.3348 </r>
       <r>     7.7698    12.4492    40.0835 </r>
       <r>     7.9102     7.2704    41.1048 </r>
       <r>     8.0507     4.6515    41.7582 </r>
       <r>     8.1912     4.6353    42.4093 </r>
       <r>     8.3316     3.2931    42.8719 </r>
       <r>     8.4721     0.8376    42.9895 </r>
       <r>     8.6126    -0.1475    42.9688 </r>
       <r>     8.7531    -0.1179    42.9522 </r>
       <r>     8.8935     0.0163    42.9545 </r>
       <r>     9.0340     0.9104    43.0824 </r>
       <r>     9.1745     1.3699    43.2748 </r>
       <r>     9.3149     0.4453    43.3374 </r>
       <r>     9.4554     1.6626    43.5709 </r>
       <r>     9.5959     3.6585    44.0848 </r>
       <r>     9.7363     2.4752    44.4325 </r>
       <r>     9.8768     0.5344    44.5076 </r>
       <r>    10.0173     0.8321    44.6245 </r>
       <r>    10.1577     1.6476    44.8559 </r>
       <r>    10.2982     0.6179    44.9427 </r>
       <r>    10.4387    -0.0730    44.9325 </r>
       <r>    10.5791    -0.0961    44.9190 </r>
       <r>    10.7196     0.0334    44.9237 </r>
       <r>    10.8601     0.9302    45.0543 </r>
       <r>    11.0006     1.6349    45.2840 </r>
       <r>    11.1410     1.6552    45.5165 </r>
       <r>    11.2815     1.1726    45.6812 </r>
       <r>    11.4220     0.1506    45.7023 </r>
       <r>    11.5624     0.2467    45.7370 </r>
       <r>    11.7029     0.7297    45.8395 </r>
       <r>    11.8434     0.6926    45.9368 </r>
       <r>    11.9838     0.6104    46.0225 </r>
       <r>    12.1243     0.4321    46.0832 </r>
       <r>    12.2648     2.2600    46.4007 </r>
       <r>    12.4052     4.1094    46.9779 </r>
       <r>    12.5457     1.9681    47.2544 </r>
       <r>    12.6862    -0.0314    47.2500 </r>
       <r>    12.8266    -0.1509    47.2288 </r>
       <r>    12.9671     0.0335    47.2335 </r>
       <r>    13.1076     0.5486    47.3105 </r>
       <r>    13.2480     0.6948    47.4081 </r>
       <r>    13.3885     0.1604    47.4307 </r>
       <r>    13.5290    -0.0365    47.4255 </r>
       <r>    13.6695    -0.0104    47.4241 </r>
       <r>    13.8099    -0.0006    47.4240 </r>
       <r>    13.9504    -0.0001    47.4240 </r>
       <r>    14.0909    -0.0037    47.4235 </r>
       <r>    14.2313    -0.0410    47.4177 </r>
       <r>    14.3718    -0.0463    47.4112 </r>
       <r>    14.5123     0.6529    47.5029 </r>
       <r>    14.6527     1.6536    47.7352 </r>
       <r>    14.7932     1.3602    47.9263 </r>
       <r>    14.9337     0.5402    48.0021 </r>
       <r>    15.0741    -0.0181    47.9996 </r>
       <r>    15.2146    -0.0976    47.9859 </r>
       <r>    15.3551     0.5589    48.0644 </r>
       <r>    15.4955     1.7939    48.3164 </r>
       <r>    15.6360     2.8971    48.7233 </r>
       <r>    15.7765     2.9619    49.1394 </r>
       <r>    15.9170     2.9731    49.5570 </r>
       <r>    16.0574     2.3928    49.8931 </r>
       <r>    16.1979     0.3675    49.9447 </r>
       <r>    16.3384    -0.1449    49.9244 </r>
       <r>    16.4788    -0.0302    49.9202 </r>
       <r>    16.6193    -0.0079    49.9190 </r>
       <r>    16.7598    -0.0246    49.9156 </r>
       <r>    16.9002     0.0938    49.9288 </r>
       <r>    17.0407     0.4093    49.9863 </r>
       <r>    17.1812     0.2811    50.0257 </r>
       <r>    17.3216     0.6759    50.1207 </r>
       <r>    17.4621     2.7673    50.5094 </r>
       <r>    17.6026     2.9910    50.9296 </r>
       <r>    17.7430     1.0115    51.0716 </r>
       <r>    17.8835     1.0172    51.2145 </r>
       <r>    18.0240     1.0601    51.3634 </r>
       <r>    18.1645     0.1652    51.3867 </r>
       <r>    18.3049    -0.0109    51.3851 </r>
       <r>    18.4454     1.4827    51.5934 </r>
       <r>    18.5859     3.2846    52.0548 </r>
       <r>    18.7263     2.8880    52.4604 </r>
       <r>    18.8668     1.0182    52.6035 </r>
       <r>    19.0073    -0.0429    52.5974 </r>
       <r>    19.1477     0.2717    52.6356 </r>
       <r>    19.2882     0.8183    52.7505 </r>
       <r>    19.4287     1.3028    52.9336 </r>
       <r>    19.5691     1.3768    53.1270 </r>
       <r>    19.7096     1.1621    53.2902 </r>
       <r>    19.8501     1.4136    53.4888 </r>
       <r>    19.9905     0.4102    53.5464 </r>
       <r>    20.1310    -0.0144    53.5444 </r>
       <r>    20.2715     1.9301    53.8155 </r>
       <r>    20.4119     3.5281    54.3111 </r>
       <r>    20.5524     2.3665    54.6435 </r>
       <r>    20.6929     1.9414    54.9162 </r>
       <r>    20.8334     1.0739    55.0670 </r>
       <r>    20.9738     0.2360    55.1002 </r>
       <r>    21.1143     1.6704    55.3348 </r>
       <r>    21.2548     2.4600    55.6804 </r>
       <r>    21.3952     0.6984    55.7785 </r>
       <r>    21.5357    -0.2838    55.7386 </r>
       <r>    21.6762     0.1524    55.7600 </r>
       <r>    21.8166     2.9545    56.1751 </r>
       <r>    21.9571     4.6320    56.8257 </r>
       <r>    22.0976     2.0254    57.1102 </r>
       <r>    22.2380     0.0377    57.1155 </r>
       <r>    22.3785    -0.3089    57.0721 </r>
       <r>    22.5190     0.5594    57.1507 </r>
       <r>    22.6594     3.5843    57.6542 </r>
       <r>    22.7999     4.8949    58.3417 </r>
       <r>    22.9404     3.3591    58.8136 </r>
       <r>    23.0809     2.1175    59.1110 </r>
       <r>    23.2213     1.2189    59.2823 </r>
       <r>    23.3618     0.2729    59.3206 </r>
       <r>    23.5023    -0.2043    59.2919 </r>
       <r>    23.6427     0.1133    59.3078 </r>
       <r>    23.7832     2.3988    59.6448 </r>
       <r>    23.9237     4.0267    60.2104 </r>
       <r>    24.0641     3.1118    60.6475 </r>
       <r>    24.2046     2.2650    60.9657 </r>
       <r>    24.3451     1.5595    61.1847 </r>
       <r>    24.4855     0.4003    61.2410 </r>
       <r>    24.6260    -0.2494    61.2059 </r>
       <r>    24.7665     0.5780    61.2871 </r>
       <r>    24.9069     3.2474    61.7433 </r>
       <r>    25.0474     2.9914    62.1635 </r>
       <r>    25.1879     0.3573    62.2136 </r>
       <r>    25.3284    -0.3965    62.1580 </r>
       <r>    25.4688     0.5678    62.2377 </r>
       <r>    25.6093     4.0563    62.8075 </r>
       <r>    25.7498     4.5192    63.4423 </r>
       <r>    25.8902     1.0548    63.5905 </r>
       <r>    26.0307     0.2425    63.6245 </r>
       <r>    26.1712     1.3021    63.8074 </r>
       <r>    26.3116     0.9060    63.9347 </r>
       <r>    26.4521     1.3417    64.1232 </r>
       <r>    26.5926     3.2555    64.5805 </r>
       <r>    26.7330     2.1853    64.8874 </r>
       <r>    26.8735     0.5243    64.9611 </r>
       <r>    27.0140     1.2371    65.1348 </r>
       <r>    27.1544     1.1070    65.2903 </r>
       <r>    27.2949     0.0645    65.2994 </r>
       <r>    27.4354    -0.1343    65.2805 </r>
       <r>    27.5758     0.6207    65.3677 </r>
       <r>    27.7163     2.2228    65.6800 </r>
       <r>    27.8568     3.3232    66.1468 </r>
       <r>    27.9973     2.5514    66.5052 </r>
       <r>    28.1377     1.5729    66.7261 </r>
       <r>    28.2782     0.6667    66.8198 </r>
       <r>    28.4187     1.0357    66.9652 </r>
       <r>    28.5591     3.2357    67.4198 </r>
       <r>    28.6996     2.7264    67.8027 </r>
       <r>    28.8401     0.8092    67.9164 </r>
       <r>    28.9805     0.5120    67.9883 </r>
       <r>    29.1210     0.8085    68.1019 </r>
       <r>    29.2615     0.9429    68.2343 </r>
       <r>    29.4019     1.0623    68.3836 </r>
       <r>    29.5424     1.5774    68.6051 </r>
       <r>    29.6829     2.5481    68.9631 </r>
       <r>    29.8233     3.2861    69.4247 </r>
       <r>    29.9638     2.3773    69.7586 </r>
       <r>    30.1043     0.8252    69.8745 </r>
       <r>    30.2448     1.4528    70.0786 </r>
       <r>    30.3852     1.7023    70.3177 </r>
       <r>    30.5257     0.4383    70.3793 </r>
       <r>    30.6662     0.3949    70.4347 </r>
       <r>    30.8066     1.8652    70.6967 </r>
       <r>    30.9471     1.8718    70.9597 </r>
       <r>    31.0876     3.0211    71.3840 </r>
       <r>    31.2280     3.9019    71.9321 </r>
       <r>    31.3685     2.8386    72.3309 </r>
       <r>    31.5090     2.7202    72.7130 </r>
       <r>    31.6494     0.8362    72.8304 </r>
       <r>    31.7899     0.4411    72.8924 </r>
       <r>    31.9304     1.3838    73.0868 </r>
       <r>    32.0708     1.3767    73.2802 </r>
       <r>    32.2113     2.0656    73.5703 </r>
       <r>    32.3518     2.7584    73.9578 </r>
       <r>    32.4923     2.2300    74.2710 </r>
       <r>    32.6327     0.7003    74.3694 </r>
       <r>    32.7732    -0.0779    74.3584 </r>
       <r>    32.9137    -0.1250    74.3409 </r>
       <r>    33.0541    -0.1739    74.3165 </r>
       <r>    33.1946     0.9901    74.4555 </r>
       <r>    33.3351     4.6104    75.1031 </r>
       <r>    33.4755     6.0293    75.9501 </r>
       <r>    33.6160     4.1902    76.5387 </r>
       <r>    33.7565     3.3262    77.0059 </r>
       <r>    33.8969     1.7333    77.2494 </r>
       <r>    34.0374     0.8847    77.3736 </r>
       <r>    34.1779     0.5257    77.4475 </r>
       <r>    34.3183     0.4951    77.5170 </r>
       <r>    34.4588     0.5380    77.5926 </r>
       <r>    34.5993     0.9455    77.7254 </r>
       <r>    34.7397     2.6589    78.0989 </r>
       <r>    34.8802     2.3340    78.4268 </r>
       <r>    35.0207     0.8249    78.5426 </r>
       <r>    35.1612     0.7666    78.6503 </r>
       <r>    35.3016     1.4702    78.8569 </r>
       <r>    35.4421     0.6714    78.9512 </r>
       <r>    35.5826    -0.1158    78.9349 </r>
       <r>    35.7230     0.3235    78.9803 </r>
       <r>    35.8635     1.5731    79.2013 </r>
       <r>    36.0040     2.0833    79.4940 </r>
       <r>    36.1444     2.3558    79.8249 </r>
       <r>    36.2849     1.3117    80.0091 </r>
       <r>    36.4254     0.0275    80.0130 </r>
       <r>    36.5658    -0.0818    80.0015 </r>
       <r>    36.7063    -0.0102    80.0001 </r>
       <r>    36.8468    -0.0004    80.0000 </r>
       <r>    36.9872    -0.0000    80.0000 </r>
       <r>    37.1277    -0.0000    80.0000 </r>
       <r>    37.2682    -0.0000    80.0000 </r>
       <r>    37.4087    -0.0000    80.0000 </r>
       <r>    37.5491     0.0000    80.0000 </r>
       <r>    37.6896     0.0000    80.0000 </r>
       <r>    37.8301     0.0000    80.0000 </r>
       <r>    37.9705     0.0000    80.0000 </r>
       <r>    38.1110     0.0000    80.0000 </r>
      </set>
     </set>
    </array>
   </total>
  </dos>
 </calculation>
 <structure name="finalpos" >
  <crystal>
   <varray name="basis" >
    <v>       3.44508300       0.00000000       0.00000000 </v>
    <v>       0.00000000       3.44508300       0.00000000 </v>
    <v>       0.00000000       0.00000000       3.44508300 </v>
   </varray>
   <i name="volume">     40.88830133 </i>
   <varray name="rec_basis" >
    <v>       0.29026877       0.00000000       0.00000000 </v>
    <v>       0.00000000       0.29026877       0.00000000 </v>
    <v>       0.00000000       0.00000000       0.29026877 </v>
   </varray>
  </crystal>
  <varray name="positions" >
   <v>       0.00000000       0.00000000       0.00000000 </v>
   <v>       0.50000000       0.50000000       0.00000000 </v>
   <v>       0.50000000       0.00000000       0.50000000 </v>
   <v>       0.00000000       0.50000000       0.50000000 </v>
  </varray>
 </structure>
</modeling>
