unknown system                          
   1.00000000000000     
     2.399900    0.000000    0.000000
    -1.199950    2.078374    0.000000
     0.000000    0.000000    4.096310
   Fe
     2
Direct
  0.000000  0.000000  0.000000
  0.333333  0.666667  0.500000
 
   20   20   36
  171.53      162.02      136.57      102.75      68.912      41.226      22.603      12.880      9.4256      8.3905    
  8.0476      8.3911      9.4261      12.880      22.603      41.226      68.913      102.75      136.57      162.02    
  162.03      162.02      144.58      115.17      81.827      51.779      29.462      16.160      10.389      8.6999    
  8.0329      8.0320      8.6988      10.390      16.162      29.460      51.777      81.833      115.19      144.61    
  136.59      144.56      136.57      115.17      86.633      58.032      34.743      19.349      11.610      8.9825    
  8.0513      7.7340      8.0491      8.9818      11.612      19.349      34.737      58.028      86.637      115.19    
  102.75      115.09      115.09      102.75      81.827      58.032      36.726      21.316      12.665      9.2555    
  8.0921      7.5245      7.5238      8.0913      9.2562      12.667      21.315      36.720      58.022      81.817    
  68.893      81.708      86.477      81.724      68.912      51.778      34.743      21.316      13.083      9.4455    
  8.1335      7.4027      7.1656      7.4034      8.1338      9.4462      13.087      21.321      34.743      51.767    
  41.224      51.695      57.883      57.888      51.705      41.226      29.461      19.349      12.665      9.4454    
  8.1510      7.3503      6.9671      6.9680      7.3510      8.1493      9.4446      12.671      19.362      29.471    
  22.617      29.460      34.693      36.649      34.688      29.449      22.603      16.161      11.610      9.2551    
  8.1336      7.3504      6.9045      6.7665      6.9058      7.3493      8.1284      9.2501      11.612      16.171    
  12.879      16.209      19.408      21.362      21.356      19.395      16.199      12.880      10.389      8.9821    
  8.0921      7.4029      6.9668      6.7665      6.7675      6.9686      7.4024      8.0862      8.9713      10.380    
  9.4103      10.439      11.714      12.798      13.220      12.793      11.714      10.449      9.4258      8.6997    
  8.0511      7.5248      7.1655      6.9678      6.9062      6.9687      7.1693      7.5299      8.0508      8.6893    
  8.3903      8.7523      9.0905      9.4120      9.6301      9.6319      9.4183      9.1009      8.7614      8.3907    
  8.0327      7.7343      7.5240      7.4031      7.3512      7.3495      7.4019      7.5297      7.7463      8.0423    
  8.0617      8.1063      8.1757      8.2617      8.3387      8.3721      8.3439      8.2668      8.1743      8.0964    
  8.0475      8.0319      8.0494      8.0911      8.1336      8.1494      8.1281      8.0859      8.0513      8.0425    
  8.3898      8.1061      7.8737      7.7146      7.6308      7.6021      7.6036      7.6314      7.7085      7.8619    
  8.0972      8.3908      8.6989      8.9818      9.2558      9.4463      9.4448      9.2501      8.9717      8.6896    
  9.4099      8.7521      8.1762      7.7148      7.4048      7.2390      7.1891      7.2385      7.4012      7.7092    
  8.1759      8.7623      9.4259      10.390      11.612      12.667      13.087      12.671      11.612      10.380    
  12.879      10.439      9.0909      8.2619      7.6304      7.2390      7.0619      7.0611      7.2375      7.6312    
  8.2677      9.1011      10.448      12.880      16.162      19.349      21.315      21.321      19.361      16.171    
  22.618      16.209      11.714      9.4118      8.3383      7.6022      7.1894      7.0610      7.1875      7.6028    
  8.3439      9.4175      11.713      16.198      22.603      29.460      34.737      36.720      34.743      29.471    
  41.224      29.460      19.408      12.797      9.6303      8.3723      7.6038      7.2383      7.2373      7.6030    
  8.3738      9.6311      12.792      19.396      29.451      41.226      51.776      58.027      58.022      51.768    
  68.893      51.695      34.693      21.362      13.221      9.6320      8.3437      7.6313      7.4011      7.6315    
  8.3440      9.6309      13.217      21.357      34.693      51.706      68.913      81.833      86.638      81.817    
  102.75      81.708      57.883      36.650      21.356      12.793      9.4179      8.2670      7.7087      7.7093    
  8.2677      9.4172      12.792      21.357      36.656      57.893      81.718      102.75      115.19      115.19    
  136.59      115.09      86.478      57.888      34.687      19.394      11.714      9.1013      8.1746      7.8616    
  8.1757      9.1011      11.713      19.396      34.693      57.893      86.472      115.07      136.57      144.61    
  162.03      144.56      115.09      81.723      51.704      29.449      16.200      10.449      8.7615      8.0959    
  8.0969      8.7626      10.448      16.198      29.450      51.706      81.718      115.07      144.54      162.02    
  162.88      153.86      129.71      97.573      65.401      39.115      21.527      12.447      9.2693      8.2732    
  7.9395      8.2738      9.2698      12.447      21.526      39.115      65.401      97.574      129.71      153.86    
  153.87      153.86      137.31      109.37      77.668      49.111      27.973      15.480      10.141      8.5674    
  7.9179      7.9170      8.5664      10.142      15.482      27.972      49.109      77.674      109.39      137.33    
  129.72      137.30      129.71      109.37      82.234      55.042      32.953      18.448      11.249      8.8332    
  7.9301      7.6226      7.9279      8.8326      11.251      18.448      32.948      55.038      82.239      109.39    
  97.568      109.31      109.31      97.574      77.668      55.042      34.826      20.286      12.213      9.0775    
  7.9657      7.4162      7.4156      7.9649      9.0781      12.214      20.285      34.820      55.033      77.659    
  65.383      77.577      82.115      77.591      65.401      49.110      32.953      20.286      12.596      9.2460    
  8.0034      7.2963      7.0679      7.2970      8.0038      9.2465      12.599      20.290      32.953      49.100    
  39.113      49.058      54.942      54.947      49.067      39.114      27.973      18.449      12.213      9.2458    
  8.0197      7.2447      6.8758      6.8767      7.2454      8.0181      9.2451      12.219      18.460      27.982    
  21.539      27.998      32.953      34.808      32.948      27.988      21.527      15.481      11.249      9.0771    
  8.0036      7.2447      6.8153      6.6828      6.8166      7.2438      7.9988      9.0726      11.251      15.490    
  12.446      15.550      18.550      20.389      20.383      18.538      15.542      12.447      10.141      8.8328    
  7.9657      7.2965      6.8756      6.6828      6.6837      6.8772      7.2960      7.9602      8.8229      10.132    
  9.2551      10.209      11.389      12.394      12.787      12.390      11.389      10.219      9.2695      8.5672    
  7.9299      7.4165      7.0678      6.8766      6.8170      6.8773      7.0712      7.4212      7.9296      8.5576    
  8.2730      8.6359      8.9720      9.2762      9.4791      9.4807      9.2820      8.9816      8.6443      8.2734    
  7.9177      7.6229      7.4158      7.2968      7.2456      7.2440      7.2956      7.4211      7.6340      7.9266    
  7.9526      8.0047      8.0813      8.1726      8.2524      8.2866      8.2572      8.1773      8.0799      7.9955    
  7.9395      7.9170      7.9283      7.9647      8.0036      8.0182      7.9985      7.9600      7.9301      7.9268    
  8.2725      8.0045      7.7870      7.6399      7.5638      7.5386      7.5400      7.5645      7.6342      7.7760    
  7.9962      8.2734      8.5665      8.8325      9.0777      9.2466      9.2453      9.0726      8.8233      8.5579    
  9.2547      8.6356      8.0818      7.6400      7.3446      7.1870      7.1398      7.1867      7.3413      7.6350    
  8.0815      8.6451      9.2696      10.142      11.251      12.214      12.600      12.219      11.251      10.132    
  12.446      10.209      8.9724      8.1728      7.5634      7.1870      7.0171      7.0164      7.1858      7.5642    
  8.1782      8.9818      10.218      12.447      15.482      18.448      20.285      20.290      18.460      15.490    
  21.540      15.551      11.389      9.2761      8.2521      7.5387      7.1401      7.0163      7.1382      7.5392    
  8.2572      9.2813      11.387      15.541      21.527      27.972      32.948      34.820      32.953      27.982    
  39.113      27.998      18.550      12.394      9.4793      8.2867      7.5402      7.1865      7.1856      7.5394    
  8.2881      9.4800      12.389      18.539      27.989      39.114      49.109      55.038      55.033      49.101    
  65.383      49.057      32.953      20.389      12.788      9.4808      8.2570      7.5644      7.3412      7.5645    
  8.2573      9.4798      12.784      20.384      32.953      49.068      65.401      77.674      82.239      77.660    
  97.567      77.576      54.942      34.809      20.383      12.390      9.2816      8.1774      7.6344      7.6350    
  8.1782      9.2811      12.389      20.384      34.814      54.951      77.586      97.574      109.39      109.39    
  129.72      109.31      82.116      54.947      32.948      18.538      11.389      8.9820      8.0802      7.7757    
  8.0813      8.9818      11.387      18.539      32.953      54.951      82.110      109.29      129.71      137.33    
  153.87      137.30      109.31      77.591      49.066      27.988      15.542      10.219      8.6444      7.9950    
  7.9960      8.6455      10.218      15.540      27.989      49.068      77.586      109.29      137.28      153.86    
  139.52      131.81      111.12      83.527      55.887      33.437      18.679      11.331      8.8580      7.9528    
  7.6463      7.9533      8.8585      11.331      18.679      33.436      55.887      83.528      111.12      131.81    
  131.81      131.81      117.64      93.648      66.390      41.907      24.002      13.706      9.5044      8.2018    
  7.6039      7.6031      8.2009      9.5053      13.707      24.002      41.906      66.394      93.661      117.65    
  111.13      117.63      111.12      93.648      70.303      46.954      28.157      16.078      10.321      8.4274    
  7.5968      7.3176      7.5948      8.4267      10.322      16.078      28.153      46.950      70.306      93.659    
  83.523      93.630      93.632      83.528      66.390      46.953      29.726      17.563      11.044      8.6072    
  7.6157      7.1183      7.1177      7.6150      8.6075      11.045      17.562      29.722      46.946      66.383    
  55.873      66.373      70.284      66.384      55.887      41.907      28.157      17.563      11.335      8.7236    
  7.6417      7.0020      6.7979      7.0027      7.6420      8.7238      11.337      17.567      28.157      41.899    
  33.435      41.937      46.989      46.992      41.943      33.436      24.002      16.078      11.044      8.7235    
  7.6536      6.9514      6.6224      6.6232      6.9522      7.6524      8.7228      11.048      16.088      24.010    
  18.689      24.100      28.293      29.871      28.289      24.092      18.679      13.706      10.321      8.6068    
  7.6418      6.9515      6.5673      6.4495      6.5684      6.9509      7.6382      8.6034      10.322      13.714    
  11.330      13.836      16.299      17.823      17.818      16.289      13.829      11.331      9.5046      8.4270    
  7.6158      7.0022      6.6222      6.4495      6.4502      6.6233      7.0017      7.6115      8.4192      9.4974    
  8.8466      9.6252      10.562      11.363      11.678      11.360      10.561      9.6329      8.8582      8.2016    
  7.5966      7.1186      6.7978      6.6231      6.5687      6.6234      6.8002      7.1221      7.5963      8.1939    
  7.9527      8.3171      8.6560      8.9292      9.0985      9.0996      8.9335      8.6635      8.3238      7.9529    
  7.6037      7.3179      7.1179      7.0024      6.9524      6.9510      7.0013      7.1220      7.3267      7.6108    
  7.6568      7.7308      7.8282      7.9351      8.0233      8.0595      8.0270      7.9386      7.8269      7.7235    
  7.6463      7.6031      7.5951      7.6148      7.6418      7.6526      7.6379      7.6113      7.5968      7.6110    
  7.9522      7.7307      7.5570      7.4454      7.3925      7.3780      7.3791      7.3931      7.4409      7.5483    
  7.7241      7.9530      8.2010      8.4267      8.6072      8.7239      8.7230      8.6034      8.4196      8.1941    
  8.8462      8.3169      7.8286      7.4455      7.1932      7.0608      7.0217      7.0609      7.1910      7.4415    
  7.8284      8.3244      8.8583      9.5055      10.322      11.045      11.337      11.048      10.322      9.4974    
  11.330      9.6253      8.6564      7.9352      7.3921      7.0608      6.9125      6.9120      7.0600      7.3929    
  7.9394      8.6637      9.6320      11.331      13.707      16.078      17.563      17.567      16.087      13.714    
  18.690      13.836      10.561      8.9291      8.0230      7.3780      7.0219      6.9119      7.0203      7.3782    
  8.0270      8.9332      10.560      13.828      18.679      24.001      28.153      29.721      28.157      24.010    
  33.436      24.099      16.298      11.363      9.0987      8.0596      7.3793      7.0607      7.0598      7.3784    
  8.0605      9.0993      11.359      16.289      24.092      33.436      41.906      46.950      46.946      41.899    
  55.873      41.936      28.293      17.823      11.679      9.0997      8.0268      7.3930      7.1909      7.3931    
  8.0270      9.0991      11.676      17.819      28.293      41.944      55.887      66.395      70.307      66.383    
  83.523      66.373      46.989      29.871      17.819      11.360      8.9332      7.9387      7.4411      7.4416    
  7.9394      8.9329      11.359      17.819      29.875      46.996      66.380      83.528      93.661      93.659    
  111.13      93.631      70.285      46.993      28.289      16.289      10.561      8.6639      7.8272      7.5480    
  7.8282      8.6637      10.560      16.289      28.293      46.996      70.281      93.619      111.12      117.65    
  131.81      117.63      93.632      66.384      41.943      24.091      13.829      9.6332      8.3238      7.7231    
  7.7239      8.3248      9.6322      13.828      24.092      41.945      66.380      93.619      117.62      131.81    
  107.84      101.88      85.832      64.395      42.997      25.881      15.031      9.9759      8.3037      7.5083    
  7.2446      7.5088      8.3040      9.9757      15.031      25.881      42.997      64.395      85.832      101.88    
  101.88      101.88      90.875      72.227      51.059      32.228      18.813      11.496      8.7190      7.6852    
  7.1692      7.1686      7.6845      8.7198      11.497      18.813      32.227      51.061      72.235      90.886    
  85.839      90.896      85.832      72.227      54.070      36.044      21.825      13.072      9.1880      7.8504    
  7.1297      6.8934      7.1281      7.8498      9.1893      13.073      21.823      36.041      54.072      72.234    
  64.392      72.274      72.275      64.395      51.059      36.043      22.974      14.081      9.6102      7.9750    
  7.1195      6.6999      6.6995      7.1189      7.9751      9.6107      14.080      22.970      36.038      51.054    
  42.988      51.144      54.191      51.151      42.997      32.228      21.825      14.081      9.7831      8.0420    
  7.1243      6.5846      6.4154      6.5852      7.1246      8.0418      9.7839      14.083      21.825      32.223    
  25.880      32.371      36.263      36.266      32.375      25.880      18.813      13.072      9.6102      8.0419    
  7.1283      6.5329      6.2601      6.2608      6.5338      7.1277      8.0413      9.6130      13.079      18.818    
  15.038      19.010      22.149      23.340      22.147      19.005      15.031      11.496      9.1880      7.9747    
  7.1244      6.5329      6.2113      6.1137      6.2123      6.5328      7.1223      7.9727      9.1893      11.501    
  9.9749      11.710      13.458      14.558      14.555      13.452      11.705      9.9759      8.7192      7.8501    
  7.1195      6.5847      6.2599      6.1137      6.1140      6.2605      6.5844      7.1168      7.8451      8.7144    
  8.2959      8.9164      9.5745      10.127      10.345      10.125      9.5744      8.9216      8.3038      7.6851    
  7.1295      6.7002      6.4154      6.2607      6.2125      6.2606      6.4166      6.7023      7.1293      7.6799    
  7.5082      7.8708      8.2136      8.4813      8.6284      8.6290      8.4838      8.2183      7.8751      7.5084    
  7.1691      6.8936      6.6996      6.5850      6.5340      6.5329      6.5840      6.7022      6.8994      7.1738    
  7.2515      7.3581      7.4846      7.6126      7.7118      7.7506      7.7140      7.6146      7.4836      7.3532    
  7.2446      7.1686      7.1283      7.1187      7.1244      7.1279      7.1220      7.1166      7.1297      7.1739    
  7.5078      7.3580      7.2501      7.1910      7.1726      7.1739      7.1748      7.1732      7.1882      7.2444    
  7.3537      7.5085      7.6846      7.8498      7.9747      8.0419      8.0415      7.9727      7.8454      7.6801    
  8.2956      7.8706      7.4850      7.1911      7.0042      6.9098      6.8829      6.9102      7.0031      7.1887    
  7.4848      7.8757      8.3039      8.7200      9.1892      9.6107      9.7843      9.6131      9.1891      8.7144    
  9.9751      8.9165      8.2139      7.6127      7.1723      6.9097      6.7944      6.7942      6.9094      7.1729    
  7.6154      8.2186      8.9208      9.9759      11.497      13.073      14.080      14.083      13.078      11.501    
  15.038      11.710      9.5743      8.4812      7.7116      7.1739      6.8831      6.7941      6.8817      7.1738    
  7.7140      8.4838      9.5732      11.704      15.031      18.813      21.823      22.970      21.825      18.818    
  25.880      19.010      13.457      10.127      8.6286      7.7507      7.1749      6.9100      6.9093      7.1739    
  7.7511      8.6291      10.125      13.451      19.005      25.880      32.227      36.041      36.039      32.223    
  42.987      32.370      22.149      14.558      10.345      8.6291      7.7139      7.1731      7.0030      7.1731    
  7.7141      8.6289      10.344      14.556      22.149      32.376      42.997      51.062      54.073      51.054    
  64.392      51.143      36.264      23.341      14.555      10.125      8.4835      7.6147      7.1883      7.1887    
  7.6154      8.4836      10.124      14.556      23.344      36.268      51.148      64.395      72.235      72.234    
  85.839      72.274      54.191      36.266      22.147      13.451      9.5743      8.2186      7.4838      7.2441    
  7.4846      8.2186      9.5733      13.451      22.149      36.268      54.189      72.267      85.832      90.886    
  101.88      90.897      72.275      51.151      32.375      19.005      11.706      8.9219      7.8752      7.3528    
  7.3535      7.8760      8.9210      11.704      19.005      32.376      51.148      72.266      90.886      101.87    
  75.129      70.938      59.674      44.680      29.915      18.484      11.690      8.8093      7.6874      7.0316    
  6.8203      7.0319      7.6877      8.8091      11.689      18.484      29.915      44.681      59.674      70.938    
  70.940      70.937      63.198      50.106      35.377      22.579      13.899      9.5559      7.9651      7.1203    
  6.7058      6.7054      7.1197      7.9658      9.5573      13.899      22.579      35.378      50.110      63.204    
  59.678      63.243      59.674      50.106      37.431      25.082      15.722      10.366      8.1851      7.2069    
  6.6246      6.4388      6.6234      7.2064      8.1861      10.367      15.721      25.081      37.432      50.110    
  44.679      50.218      50.219      44.681      35.377      25.082      16.429      10.903      8.3585      7.2732    
  6.5750      6.2459      6.2456      6.5745      7.2730      8.3585      10.903      16.427      25.079      35.374    
  29.911      35.564      37.690      35.568      29.915      22.579      15.722      10.903      8.4292      7.3082    
  6.5507      6.1255      5.9950      6.1260      6.5509      7.3078      8.4290      10.904      15.722      22.576    
  18.484      22.833      25.485      25.487      22.836      18.484      13.899      10.366      8.3584      7.3081    
  6.5438      6.0689      5.8565      5.8571      6.0697      6.5436      7.3077      8.3598      10.370      13.902    
  11.693      14.196      16.232      17.016      16.231      14.193      11.689      9.5562      8.1851      7.2729    
  6.5507      6.0689      5.8126      5.7354      5.8133      6.0691      6.5499      7.2722      8.1861      9.5592    
  8.8085      9.8563      10.919      11.600      11.599      10.916      9.8545      8.8093      7.9653      7.2067    
  6.5750      6.1256      5.8564      5.7354      5.7355      5.8565      6.1254      6.5737      7.2042      7.9627    
  7.6831      8.2446      8.7258      9.0837      9.2201      9.0824      8.7258      8.2475      7.6875      7.1201    
  6.6244      6.2461      5.9949      5.8570      5.8135      5.8565      5.9951      6.2470      6.6242      7.1173    
  7.0315      7.3833      7.7184      7.9822      8.1273      8.1274      7.9831      7.7205      7.3855      7.0317    
  6.7057      6.4389      6.2458      6.1259      6.0698      6.0692      6.1251      6.2469      6.4420      6.7082    
  6.8240      6.9650      7.1189      7.2643      7.3711      7.4111      7.3720      7.2650      7.1182      6.9624    
  6.8203      6.7054      6.6236      6.5743      6.5507      6.5437      6.5497      6.5736      6.6246      6.7083    
  7.0312      6.9649      6.9298      6.9260      6.9423      6.9591      6.9596      6.9427      6.9246      6.9268    
  6.9628      7.0317      7.1198      7.2064      7.2727      7.3078      7.3079      7.2721      7.2044      7.1175    
  7.6829      7.3832      7.1193      6.9261      6.8099      6.7556      6.7413      6.7563      6.8099      6.9249    
  7.1191      7.3859      7.6876      7.9659      8.1860      8.3585      8.4293      8.3599      8.1859      7.9627    
  8.8086      8.2446      7.7186      7.2644      6.9420      6.7556      6.6759      6.6759      6.7557      6.9425    
  7.2656      7.7208      8.2468      8.8093      9.5574      10.367      10.903      10.904      10.369      9.5590    
  11.693      9.8564      8.7257      7.9821      7.3709      6.9591      6.7415      6.6758      6.7405      6.9587    
  7.3720      7.9833      8.7249      9.8532      11.689      13.899      15.721      16.427      15.722      13.902    
  18.484      14.196      10.919      9.0835      8.1274      7.4112      6.9597      6.7562      6.7556      6.9588    
  7.4112      8.1278      9.0823      10.916      14.193      18.484      22.579      25.080      25.079      22.577    
  29.911      22.833      16.232      11.600      9.2204      8.1275      7.3719      6.9427      6.8098      6.9426    
  7.3721      8.1277      9.2200      11.599      16.232      22.836      29.915      35.379      37.432      35.375    
  44.679      35.563      25.486      17.017      11.599      9.0822      7.9829      7.2651      6.9247      6.9250    
  7.2656      7.9832      9.0823      11.599      17.018      25.488      35.566      44.681      50.110      50.110    
  59.678      50.219      37.690      25.487      16.231      10.916      8.7257      7.7208      7.1184      6.9266    
  7.1189      7.7208      8.7250      10.916      16.232      25.488      37.689      50.215      59.674      63.204    
  70.940      63.244      50.219      35.567      22.835      14.193      9.8546      8.2477      7.3856      6.9621    
  6.9626      7.3861      8.2470      9.8532      14.193      22.836      35.566      50.214      63.238      70.937    
  47.050      44.411      37.360      28.110      19.285      12.852      9.3900      7.9590      7.0996      6.5985    
  6.4413      6.5988      7.0998      7.9589      9.3897      12.852      19.285      28.110      37.360      44.411    
  44.412      44.411      39.542      31.388      22.428      14.997      10.356      8.2550      7.2560      6.5973    
  6.2882      6.2879      6.5969      7.2565      8.2561      10.356      14.997      22.429      31.390      39.544    
  37.362      39.604      37.360      31.388      23.627      16.348      11.198      8.5355      7.3712      6.6003    
  6.1628      6.0267      6.1620      6.5999      7.3719      8.5364      11.198      16.347      23.627      31.390    
  28.110      31.549      31.549      28.111      22.428      16.348      11.533      8.7258      7.4357      6.6020    
  6.0703      5.8287      5.8285      6.0699      6.6017      7.4354      8.7254      11.532      16.346      22.427    
  19.283      22.689      23.987      22.690      19.285      14.996      11.198      8.7259      7.4554      6.6019    
  6.0138      5.6975      5.6020      5.6979      6.0139      6.6014      7.4548      8.7258      11.198      14.996    
  12.853      15.333      16.886      16.886      15.334      12.852      10.355      8.5358      7.4357      6.6019    
  5.9948      5.6324      5.4732      5.4736      5.6331      5.9949      6.6016      7.4360      8.5372      10.357    
  9.3910      10.728      11.847      12.286      11.847      10.727      9.3898      8.2552      7.3713      6.6018    
  6.0138      5.6325      5.4316      5.3709      5.4320      5.6328      6.0138      6.6019      7.3719      8.2564    
  7.9585      8.6256      9.2223      9.5952      9.5948      9.2216      8.6253      7.9590      7.2561      6.6001    
  6.0703      5.6976      5.4731      5.3709      5.3708      5.4730      5.6974      6.0700      6.5994      7.2552    
  7.0980      7.6072      8.0445      8.3372      8.4394      8.3367      8.0444      7.6083      7.0997      6.5972    
  6.1627      5.8288      5.6020      5.4736      5.4321      5.4730      5.6016      5.8289      6.1625      6.5961    
  6.5986      6.9310      7.2459      7.4937      7.6303      7.6302      7.4936      7.2463      6.9317      6.5986    
  6.2881      6.0269      5.8286      5.6978      5.6332      5.6329      5.6972      5.8288      6.0279      6.2889    
  6.4426      6.6139      6.7882      6.9433      7.0523      7.0918      7.0523      6.9432      6.7877      6.6129    
  6.4413      6.2879      6.1621      6.0698      6.0138      5.9950      6.0137      6.0699      6.1628      6.2890    
  6.5983      6.6138      6.6459      6.6903      6.7349      6.7635      6.7638      6.7352      6.6899      6.6450    
  6.6132      6.5986      6.5969      6.5999      6.6015      6.6015      6.6017      6.6018      6.5996      6.5962    
  7.0978      6.9309      6.7884      6.6904      6.6379      6.6178      6.6140      6.6185      6.6383      6.6902    
  6.7883      6.9319      7.0997      7.2566      7.3718      7.4355      7.4550      7.4360      7.3718      7.2552    
  7.9586      7.6072      7.2460      6.9434      6.7347      6.6178      6.5694      6.5696      6.6181      6.7350    
  6.9436      7.2465      7.6079      7.9590      8.2562      8.5364      8.7255      8.7258      8.5369      8.2563    
  9.3912      8.6257      8.0444      7.4937      7.0522      6.7635      6.6141      6.5695      6.6134      6.7630    
  7.0523      7.4940      8.0439      8.6243      9.3898      10.356      11.198      11.532      11.198      10.357    
  12.853      10.728      9.2221      8.3371      7.6304      7.0918      6.7638      6.6185      6.6180      6.7631    
  7.0916      7.6306      8.3369      9.2209      10.726      12.852      14.997      16.347      16.347      14.996    
  19.283      15.333      11.847      9.5952      8.4396      7.6302      7.0522      6.7352      6.6383      6.7351    
  7.0523      7.6305      8.4399      9.5952      11.847      15.334      19.285      22.429      23.627      22.427    
  28.110      22.689      16.886      12.286      9.5949      8.3365      7.4935      6.9433      6.6900      6.6902    
  6.9436      7.4939      8.3369      9.5952      12.287      16.887      22.690      28.111      31.390      31.389    
  37.362      31.549      23.987      16.886      11.847      9.2214      8.0444      7.2465      6.7878      6.6448    
  6.7882      7.2465      8.0439      9.2210      11.847      16.887      23.987      31.548      37.360      39.544    
  44.412      39.605      31.549      22.690      15.334      10.727      8.6254      7.6085      6.9317      6.6127    
  6.6131      6.9321      7.6080      8.6243      10.726      15.334      22.690      31.547      39.603      44.411    
  26.733      25.304      21.538      16.752      12.449      9.5943      8.1522      7.2563      6.6147      6.2592    
  6.1497      6.2593      6.6148      7.2562      8.1520      9.5942      12.449      16.752      21.538      25.304    
  25.304      25.304      22.675      18.374      13.858      10.394      8.4350      7.4088      6.6522      6.1759    
  5.9597      5.9595      6.1757      6.6524      7.4095      8.4357      10.395      13.858      18.374      22.676    
  21.538      22.745      21.538      18.374      14.410      10.925      8.6770      7.5016      6.6749      6.1033    