unknown system                          
   1.00000000000000     
     2.399900    0.000000    0.000000
    -1.199950    2.078374    0.000000
     0.000000    0.000000    4.096310
   Fe
     2
Direct
  0.000000  0.000000  0.000000
  0.333333  0.666667  0.500000
 
   20   20   36
 0.17153112003E+03 0.16201981850E+03 0.13657288354E+03 0.10275114153E+03 0.68912336045E+02
 0.41226027278E+02 0.22603484378E+02 0.12880426633E+02 0.94256231891E+01 0.83905164454E+01
 0.80475527367E+01 0.83911491181E+01 0.94261123459E+01 0.12880196685E+02 0.22602851764E+02
 0.41225750553E+02 0.68912669822E+02 0.10275162397E+03 0.13657303288E+03 0.16201971505E+03
 0.16202921087E+03 0.16201927620E+03 0.14458415568E+03 0.11517064061E+03 0.81826756680E+02
 0.51778677628E+02 0.29461599955E+02 0.16160480317E+02 0.10389046911E+02 0.86998619531E+01
 0.80329101301E+01 0.80319612750E+01 0.86988281929E+01 0.10390073148E+02 0.16161729367E+02
 0.29459926353E+02 0.51776566000E+02 0.81832519704E+02 0.11518856799E+03 0.14460595458E+03
 0.13658714429E+03 0.14456003163E+03 0.13657295155E+03 0.11517116446E+03 0.86632562803E+02
 0.58032234192E+02 0.34742508713E+02 0.19348690783E+02 0.11610096056E+02 0.89824902068E+01
 0.80513132582E+01 0.77340074329E+01 0.80490532406E+01 0.89818360539E+01 0.11611991187E+02
 0.19348605369E+02 0.34737398783E+02 0.58027503267E+02 0.86637490501E+02 0.11518658231E+03
 0.10274552089E+03 0.11509022230E+03 0.11509247230E+03 0.10275215225E+03 0.81826702702E+02
 0.58031810768E+02 0.36725862338E+02 0.21315572992E+02 0.12665220584E+02 0.92554540433E+01
 0.80920948730E+01 0.75244502644E+01 0.75237906194E+01 0.80912970532E+01 0.92562226311E+01
 0.12666772178E+02 0.21314633703E+02 0.36719992838E+02 0.58022124851E+02 0.81816920801E+02
 0.68893160689E+02 0.81708256742E+02 0.86477202967E+02 0.81723852121E+02 0.68912478848E+02
 0.51777828353E+02 0.34742561622E+02 0.21315856385E+02 0.13083413177E+02 0.94455442925E+01
 0.81335034237E+01 0.74027248891E+01 0.71656190581E+01 0.74033750091E+01 0.81338369208E+01
 0.94462375878E+01 0.13086625317E+02 0.21320736786E+02 0.34742796504E+02 0.51767070180E+02
 0.41224090298E+02 0.51695339729E+02 0.57882830492E+02 0.57888100376E+02 0.51704596230E+02
 0.41225546586E+02 0.29461494565E+02 0.19349307609E+02 0.12665148754E+02 0.94453954071E+01
 0.81510472127E+01 0.73503405709E+01 0.69670512497E+01 0.69679671073E+01 0.73509990353E+01
 0.81492874754E+01 0.94445773333E+01 0.12671215007E+02 0.19361747123E+02 0.29471082427E+02
 0.22616963176E+02 0.29459951919E+02 0.34692967112E+02 0.36649431759E+02 0.34687584641E+02
 0.29448966909E+02 0.22603175471E+02 0.16160945026E+02 0.11610149226E+02 0.92550705305E+01
 0.81336279048E+01 0.73503997349E+01 0.69044753681E+01 0.67664907234E+01 0.69058499716E+01
 0.73493135147E+01 0.81284391997E+01 0.92501448140E+01 0.11611991187E+02 0.16171199921E+02
 0.12879202698E+02 0.16208809541E+02 0.19408171946E+02 0.21362306360E+02 0.21356179616E+02
 0.19395019950E+02 0.16199446188E+02 0.12880428883E+02 0.10389293405E+02 0.89820682122E+01
 0.80921125981E+01 0.74029360563E+01 0.69668312726E+01 0.67664530545E+01 0.67674594438E+01
 0.69686333753E+01 0.74023810225E+01 0.80861879567E+01 0.89713485415E+01 0.10379583342E+02
 0.94102830682E+01 0.10438506393E+02 0.11714371906E+02 0.12797595721E+02 0.13220379196E+02
 0.12793220941E+02 0.11714286312E+02 0.10448682806E+02 0.94258351060E+01 0.86996729751E+01
 0.80511020653E+01 0.75247968043E+01 0.71655031357E+01 0.69678252592E+01 0.69061932342E+01
 0.69687115042E+01 0.71692989131E+01 0.75298937025E+01 0.80507711067E+01 0.86893323730E+01
 0.83903445296E+01 0.87523191098E+01 0.90904783792E+01 0.94119749939E+01 0.96300976625E+01
 0.96318970392E+01 0.94182803616E+01 0.91009401018E+01 0.87614485637E+01 0.83907128284E+01
 0.80326612945E+01 0.77342815425E+01 0.75239922159E+01 0.74031254544E+01 0.73512295895E+01
 0.73494849048E+01 0.74019203006E+01 0.75297487591E+01 0.77462935202E+01 0.80422616834E+01
 0.80616641482E+01 0.81063376380E+01 0.81757163799E+01 0.82617242016E+01 0.83386560154E+01
 0.83721407697E+01 0.83438963157E+01 0.82668231173E+01 0.81742887245E+01 0.80963629327E+01
 0.80475450675E+01 0.80319057469E+01 0.80493841991E+01 0.80910695706E+01 0.81336279048E+01
 0.81494359990E+01 0.81281057025E+01 0.80859427490E+01 0.80513132582E+01 0.80424549909E+01
 0.83897754646E+01 0.81061469446E+01 0.78737472662E+01 0.77146280345E+01 0.76307907148E+01
 0.76021187667E+01 0.76036118518E+01 0.76314487811E+01 0.77084916816E+01 0.78618752295E+01
 0.80971529544E+01 0.83907764361E+01 0.86989319943E+01 0.89818152065E+01 0.92557862452E+01
 0.94463146809E+01 0.94448033117E+01 0.92500919409E+01 0.89717496886E+01 0.86896251524E+01
 0.94098611943E+01 0.87520544712E+01 0.81762490438E+01 0.77147546402E+01 0.74047927556E+01
 0.72389736828E+01 0.71891077191E+01 0.72385040472E+01 0.74011929888E+01 0.77092326624E+01
 0.81759393079E+01 0.87622531521E+01 0.94259023888E+01 0.10390287391E+02 0.11611799810E+02
 0.12666809009E+02 0.13087160315E+02 0.12671323667E+02 0.11611746639E+02 0.10379551091E+02
 0.12879457268E+02 0.10438605360E+02 0.90908689504E+01 0.82618706977E+01 0.76303507768E+01
 0.72389572199E+01 0.70619455245E+01 0.70611014204E+01 0.72375346820E+01 0.76312203967E+01
 0.82677434416E+01 0.91011048786E+01 0.10447713441E+02 0.12880453504E+02 0.16161939658E+02
 0.19348616719E+02 0.21314887019E+02 0.21320706710E+02 0.19361141647E+02 0.16170945502E+02
 0.22617595790E+02 0.16209113941E+02 0.11714123150E+02 0.94118351849E+01 0.83383438244E+01
 0.76021543137E+01 0.71894254815E+01 0.70610020907E+01 0.71874571357E+01 0.76028449397E+01
 0.83438963157E+01 0.94175017045E+01 0.11712568446E+02 0.16198426270E+02 0.22603175471E+02
 0.29459860242E+02 0.34737163901E+02 0.36719733323E+02 0.34742508713E+02 0.29471121707E+02
 0.41224389550E+02 0.29459867853E+02 0.19407568608E+02 0.12797359925E+02 0.96303265603E+01
 0.83722914690E+01 0.76038179728E+01 0.72382888574E+01 0.72373359551E+01 0.76030155137E+01
 0.83738275383E+01 0.96310638999E+01 0.12791583213E+02 0.19395663691E+02 0.29450579370E+02
 0.41225569113E+02 0.51776190625E+02 0.58027345413E+02 0.58022390421E+02 0.51767544080E+02
 0.68892879392E+02 0.51694740253E+02 0.34692683986E+02 0.21362475906E+02 0.13220898940E+02
 0.96319642880E+01 0.83436890652E+01 0.76313201420E+01 0.74010980982E+01 0.76315316955E+01
 0.83440012562E+01 0.96309022510E+01 0.13216751821E+02 0.21357173602E+02 0.34692929882E+02
 0.51706256485E+02 0.68912531328E+02 0.81832805785E+02 0.86637908044E+02 0.81817260860E+02
 0.10274507991E+03 0.81707835944E+02 0.57883103139E+02 0.36650042255E+02 0.21356414294E+02
 0.12792936041E+02 0.94178708652E+01 0.82669629442E+01 0.77086930284E+01 0.77093074035E+01
 0.82677367725E+01 0.94172320172E+01 0.12791534109E+02 0.21357238735E+02 0.36655518637E+02
 0.57892501733E+02 0.81717790509E+02 0.10275219372E+03 0.11518870757E+03 0.11518619804E+03
 0.13658699495E+03 0.11509067329E+03 0.86477633284E+02 0.57888473320E+02 0.34687338745E+02
 0.19394499087E+02 0.11714123150E+02 0.91013313779E+01 0.81745984605E+01 0.78615744927E+01
 0.81757163799E+01 0.91011055835E+01 0.11712654040E+02 0.19395746167E+02 0.34692967112E+02
 0.57892602031E+02 0.86471805246E+02 0.11507493743E+03 0.13657295155E+03 0.14460508329E+03
 0.16202929428E+03 0.14456106179E+03 0.11509262931E+03 0.81723373334E+02 0.51704216031E+02
 0.29448754347E+02 0.16199664095E+02 0.10449050503E+02 0.87615302493E+01 0.80959301857E+01
 0.80969109007E+01 0.87625994764E+01 0.10447982172E+02 0.16198339776E+02 0.29450450875E+02
 0.51706475762E+02 0.81717732520E+02 0.11507464344E+03 0.14453907435E+03 0.16201925616E+03
 0.16288145999E+03 0.15386149841E+03 0.12971004679E+03 0.97573035355E+02 0.65400684324E+02
 0.39114860419E+02 0.21526844634E+02 0.12446927801E+02 0.92693425696E+01 0.82731763230E+01
 0.79394771382E+01 0.82737878262E+01 0.92698146725E+01 0.12446703725E+02 0.21526230741E+02
 0.39114590985E+02 0.65401006153E+02 0.97573501894E+02 0.12971019171E+03 0.15386139880E+03
 0.15387021020E+03 0.15386097135E+03 0.13731406330E+03 0.10937178652E+03 0.77668360016E+02
 0.49111238693E+02 0.27973469153E+02 0.15480423937E+02 0.10141143826E+02 0.85674173055E+01
 0.79179230216E+01 0.79170112406E+01 0.85664224656E+01 0.10142151484E+02 0.15481728866E+02
 0.27972047506E+02 0.49109311225E+02 0.77673668874E+02 0.10938839976E+03 0.13733431492E+03
 0.12972329143E+03 0.13729572090E+03 0.12971011163E+03 0.10937229516E+03 0.82234198138E+02
 0.55042123072E+02 0.32953160518E+02 0.18448207218E+02 0.11249228685E+02 0.88332223540E+01
 0.79301118014E+01 0.76226378647E+01 0.79279322068E+01 0.88325676021E+01 0.11251057592E+02
 0.18448259898E+02 0.32948487515E+02 0.55037694400E+02 0.82238696464E+02 0.10938657206E+03
 0.97567863870E+02 0.10930808610E+03 0.10931017169E+03 0.97574016724E+02 0.77668309093E+02
 0.55041712304E+02 0.34825960753E+02 0.20285564174E+02 0.12213042286E+02 0.90774891075E+01
 0.79656827294E+01 0.74162057054E+01 0.74155763405E+01 0.79648980256E+01 0.90781462362E+01
 0.12214425767E+02 0.20284640247E+02 0.34820469215E+02 0.55032693331E+02 0.77659219456E+02
 0.65382954895E+02 0.77576838119E+02 0.82115290582E+02 0.77591287876E+02 0.65400824382E+02
 0.49110414841E+02 0.32953210568E+02 0.20285839005E+02 0.12596387884E+02 0.92459838896E+01
 0.80034463356E+01 0.72963447780E+01 0.70679375541E+01 0.72969980256E+01 0.80037689391E+01
 0.92465416339E+01 0.12599229175E+02 0.20290278272E+02 0.32953439056E+02 0.49100499831E+02
 0.39113102725E+02 0.49057989209E+02 0.54941836520E+02 0.54946732954E+02 0.49066569783E+02
 0.39114394176E+02 0.27973365915E+02 0.18448805599E+02 0.12212974181E+02 0.92458397601E+01
 0.80196524352E+01 0.72446910652E+01 0.68757910939E+01 0.68766924428E+01 0.72454002297E+01
 0.80180656089E+01 0.92450533734E+01 0.12218575532E+02 0.18460387252E+02 0.27982347161E+02
 0.21539330458E+02 0.27998140549E+02 0.32953227212E+02 0.34808453898E+02 0.32948287731E+02
 0.27988004682E+02 0.21526545280E+02 0.15480875177E+02 0.11249281497E+02 0.90771172638E+01
 0.80035651882E+01 0.72447477500E+01 0.68153223951E+01 0.66827896531E+01 0.68166442560E+01
 0.72438069502E+01 0.79988173981E+01 0.90726132304E+01 0.11251057592E+02 0.15490435241E+02
 0.12445726890E+02 0.15550208253E+02 0.18550340978E+02 0.20388710388E+02 0.20383047181E+02
 0.18538199894E+02 0.15541605017E+02 0.12446930570E+02 0.10141382412E+02 0.88328120570E+01
 0.79656981014E+01 0.72965486934E+01 0.68755791078E+01 0.66827538742E+01 0.66836614689E+01
 0.68772038685E+01 0.72960211907E+01 0.79602368357E+01 0.88229053429E+01 0.10132363255E+02
 0.92550607236E+01 0.10209131834E+02 0.11389125386E+02 0.12394220584E+02 0.12787356798E+02
 0.12390136044E+02 0.11389042022E+02 0.10218616796E+02 0.92695465962E+01 0.85672323078E+01
 0.79299069345E+01 0.74165426350E+01 0.70678267216E+01 0.68765559427E+01 0.68169766270E+01
 0.68772793544E+01 0.70712348632E+01 0.74212143652E+01 0.79295864387E+01 0.85576110716E+01
 0.82730177269E+01 0.86358940142E+01 0.89719804281E+01 0.92762367498E+01 0.94790725136E+01
 0.94806973313E+01 0.92819931853E+01 0.89816182641E+01 0.86443490822E+01 0.82733660545E+01
 0.79176832142E+01 0.76229061796E+01 0.74157725356E+01 0.72967554289E+01 0.72456228684E+01
 0.72439729040E+01 0.72955746786E+01 0.74210736307E+01 0.76340470582E+01 0.79265927341E+01
 0.79525768551E+01 0.80047198731E+01 0.80812662641E+01 0.81726426534E+01 0.82524415289E+01
 0.82865812838E+01 0.82572433365E+01 0.81772957358E+01 0.80798918360E+01 0.79954521911E+01
 0.79394712584E+01 0.79169592673E+01 0.79282527026E+01 0.79646751141E+01 0.80035651882E+01
 0.80182103271E+01 0.79984947946E+01 0.79599985522E+01 0.79301118014E+01 0.79267805680E+01
 0.82724661362E+01 0.80045343624E+01 0.77870375977E+01 0.76399157351E+01 0.75638241724E+01
 0.75386203383E+01 0.75400272461E+01 0.75644754433E+01 0.76342446483E+01 0.77760279501E+01
 0.79962085304E+01 0.82734259670E+01 0.85665221209E+01 0.88325454090E+01 0.90777224316E+01
 0.92466178338E+01 0.92452737027E+01 0.90725612696E+01 0.88232934468E+01 0.85578957245E+01
 0.92546522127E+01 0.86356363001E+01 0.80817825510E+01 0.76400392837E+01 0.73445590593E+01
 0.71870412697E+01 0.71398196123E+01 0.71867186769E+01 0.73413379540E+01 0.76349548352E+01
 0.80814824759E+01 0.86451191816E+01 0.92696101882E+01 0.10142359247E+02 0.11250872137E+02
 0.12214462442E+02 0.12599748785E+02 0.12218680311E+02 0.11250819325E+02 0.10132332431E+02
 0.12445974526E+02 0.10209227322E+02 0.89723588403E+01 0.81727862259E+01 0.75633983312E+01
 0.71870247722E+01 0.70171471301E+01 0.70163950096E+01 0.71857654023E+01 0.75642323555E+01
 0.81782028580E+01 0.89818014394E+01 0.10217663521E+02 0.12446954130E+02 0.15481933471E+02
 0.18448270613E+02 0.20284885730E+02 0.20290248924E+02 0.18459799586E+02 0.15490188605E+02
 0.21539944351E+02 0.15550503659E+02 0.11388883876E+02 0.92761019979E+01 0.82521394337E+01
 0.75386536481E+01 0.71401266123E+01 0.70162986632E+01 0.71382289725E+01 0.75392122514E+01
 0.82572433365E+01 0.92813278937E+01 0.11387387790E+02 0.15540523374E+02 0.21526545280E+02
 0.27971982462E+02 0.32948259027E+02 0.34820217921E+02 0.32953160518E+02 0.27982385355E+02
 0.39113392609E+02 0.27998059120E+02 0.18549755690E+02 0.12393991693E+02 0.94792943684E+01
 0.82867264588E+01 0.75402262653E+01 0.71865102374E+01 0.71855734603E+01 0.75393779609E+01
 0.82880952457E+01 0.94799996212E+01 0.12388668235E+02 0.18538690869E+02 0.27989367473E+02
 0.39114414627E+02 0.49108947031E+02 0.55037542089E+02 0.55032951788E+02 0.49100959489E+02
 0.65382681303E+02 0.49057407570E+02 0.32952952616E+02 0.20388874379E+02 0.12787860346E+02
 0.94807621778E+01 0.82570427379E+01 0.75643516059E+01 0.73412463950E+01 0.75645343593E+01
 0.82573448331E+01 0.94798426130E+01 0.12784107726E+02 0.20384024016E+02 0.32953191036E+02
 0.49068058043E+02 0.65400872619E+02 0.77673947118E+02 0.82239101442E+02 0.77659548622E+02
 0.97567435596E+02 0.77576430311E+02 0.54942101334E+02 0.34809045993E+02 0.20383274619E+02
 0.12389859743E+02 0.92815969496E+01 0.81774327107E+01 0.76344395243E+01 0.76350261625E+01
 0.81781962604E+01 0.92810664099E+01 0.12388620824E+02 0.20384087464E+02 0.34814158677E+02
 0.54950844453E+02 0.77585688116E+02 0.97574054990E+02 0.10938853401E+03 0.10938619767E+03
 0.12972314651E+03 0.10930852515E+03 0.82115708977E+02 0.54947094727E+02 0.32948049311E+02
 0.18537694727E+02 0.11388883876E+02 0.89819987185E+01 0.80801919111E+01 0.77757342579E+01
 0.80812662641E+01 0.89818034816E+01 0.11387471154E+02 0.18538770990E+02 0.32953227212E+02
 0.54950941413E+02 0.82110339041E+02 0.10929394052E+03 0.12971011163E+03 0.13733346785E+03
 0.15387029126E+03 0.13729672232E+03 0.10931032545E+03 0.77590822926E+02 0.49066200426E+02
 0.27987798455E+02 0.15541815611E+02 0.10218973452E+02 0.86444291561E+01 0.79950313194E+01
 0.79959731695E+01 0.86454569696E+01 0.10217924690E+02 0.15540438562E+02 0.27989242674E+02
 0.49068270326E+02 0.77585630975E+02 0.10929365522E+03 0.13727628895E+03 0.15386095282E+03
 0.13951771681E+03 0.13180788470E+03 0.11112348208E+03 0.83527185411E+02 0.55886785458E+02
 0.33436576624E+02 0.18679485169E+02 0.11331110023E+02 0.88580346797E+01 0.79527785447E+01
 0.76463402674E+01 0.79533301178E+01 0.88584582501E+01 0.11330902284E+02 0.18678924769E+02
 0.33436329596E+02 0.55887075760E+02 0.83527608298E+02 0.11112361437E+03 0.13180779530E+03
 0.13181479199E+03 0.13180740146E+03 0.11763509454E+03 0.93647622749E+02 0.66390179883E+02
 0.41907298685E+02 0.24002318270E+02 0.13705853231E+02 0.95043824918E+01 0.82017511137E+01
 0.76039270035E+01 0.76031199891E+01 0.82008663041E+01 0.95053275706E+01 0.13707272955E+02
 0.24001534234E+02 0.41905851082E+02 0.66394292893E+02 0.93660758009E+02 0.11765124059E+03
 0.11113403002E+03 0.11763298728E+03 0.11112353812E+03 0.93648087879E+02 0.70302775808E+02
 0.46953780448E+02 0.28156593233E+02 0.16077840764E+02 0.10320527474E+02 0.84273606816E+01
 0.75967981477E+01 0.73176257391E+01 0.75948491375E+01 0.84267144215E+01 0.10322165893E+02
 0.16078231222E+02 0.28153062973E+02 0.46950159715E+02 0.70306150065E+02 0.93659345411E+02
 0.83523197118E+02 0.93630306653E+02 0.93631957501E+02 0.83528082846E+02 0.66390137605E+02
 0.46953405750E+02 0.29726090439E+02 0.17563201042E+02 0.11043807135E+02 0.86071684058E+01
 0.76157497158E+01 0.71182596350E+01 0.71177150498E+01 0.76150111834E+01 0.86075439812E+01
 0.11044758413E+02 0.17562330075E+02 0.29721611275E+02 0.46946161616E+02 0.66382885032E+02
 0.55872877677E+02 0.66372938366E+02 0.70284445173E+02 0.66384354885E+02 0.55886917440E+02
 0.41906547240E+02 0.28156634917E+02 0.17563451397E+02 0.11334668642E+02 0.87236314706E+01
 0.76417152473E+01 0.70020002649E+01 0.67979159219E+01 0.70026515276E+01 0.76420068217E+01
 0.87238488977E+01 0.11336557375E+02 0.17566741255E+02 0.28156845402E+02 0.41898854400E+02
 0.33435284784E+02 0.41936663473E+02 0.46988509380E+02 0.46992413663E+02 0.41943452589E+02
 0.33436151396E+02 0.24002220995E+02 0.16078386404E+02 0.11043749786E+02 0.87235009823E+01
 0.76535682622E+01 0.69514101466E+01 0.66223567313E+01 0.66232073109E+01 0.69522300265E+01
 0.76524280669E+01 0.87228040856E+01 0.11048124781E+02 0.16087685313E+02 0.24009575728E+02
 0.18689340423E+02 0.24099533758E+02 0.28293171171E+02 0.29870674770E+02 0.28289394226E+02
 0.24091637542E+02 0.18679213087E+02 0.13706265996E+02 0.10320579433E+02 0.86068300695E+01
 0.76418182163E+01 0.69514598136E+01 0.65672611484E+01 0.64495310031E+01 0.65684313068E+01
 0.69508881538E+01 0.76382243922E+01 0.86034298620E+01 0.10322165893E+02 0.13713972576E+02
 0.11329983780E+02 0.13835549845E+02 0.16298505685E+02 0.17822809999E+02 0.17818371163E+02
 0.16289031626E+02 0.13828944164E+02 0.11331114452E+02 0.95045986493E+01 0.84269840280E+01
 0.76157585558E+01 0.70021835245E+01 0.66221673808E+01 0.64495005091E+01 0.64501524466E+01
 0.66233336188E+01 0.70017330235E+01 0.76115185077E+01 0.84192236467E+01 0.94974123851E+01
 0.88465711540E+01 0.96252096023E+01 0.10561553828E+02 0.11363130159E+02 0.11678331222E+02
 0.11359821208E+02 0.10561476907E+02 0.96328502280E+01 0.88582163299E+01 0.82015776152E+01
 0.75966113176E+01 0.71185689641E+01 0.67978194166E+01 0.66230858850E+01 0.65687325904E+01
 0.66234015434E+01 0.68002269094E+01 0.71221262296E+01 0.75963205795E+01 0.81938696227E+01
 0.79526568918E+01 0.83171014601E+01 0.86560367626E+01 0.89292234181E+01 0.90984512344E+01
 0.90996236113E+01 0.89335457550E+01 0.86635045359E+01 0.83237697592E+01 0.79529491518E+01
 0.76037126319E+01 0.73178771305E+01 0.71178957381E+01 0.70024288027E+01 0.69524301003E+01
 0.69510385605E+01 0.70013270389E+01 0.71219975888E+01 0.73267082440E+01 0.76107898965E+01
 0.76567559215E+01 0.77308493928E+01 0.78281535773E+01 0.79350815312E+01 0.80233000861E+01
 0.80594575126E+01 0.80269522098E+01 0.79385698472E+01 0.78269323390E+01 0.77234603318E+01
 0.76463389746E+01 0.76030778275E+01 0.75951398756E+01 0.76148016301E+01 0.76418182163E+01
 0.76525618717E+01 0.76379328178E+01 0.76113001145E+01 0.75967981477E+01 0.76109621064E+01
 0.79521552540E+01 0.77306786507E+01 0.75570110016E+01 0.74453554365E+01 0.73925181532E+01
 0.73779647816E+01 0.73791376670E+01 0.73931413533E+01 0.74409136588E+01 0.75482889903E+01
 0.77241220440E+01 0.79529990871E+01 0.82009543245E+01 0.84266888145E+01 0.86071562995E+01
 0.87239225037E+01 0.87230081800E+01 0.86033805166E+01 0.84195746932E+01 0.81941311416E+01
 0.88462008348E+01 0.83168633846E+01 0.78286228000E+01 0.74454701943E+01 0.71932090845E+01
 0.70608116267E+01 0.70216727880E+01 0.70608538655E+01 0.71909656360E+01 0.74415369494E+01
 0.78283505298E+01 0.83244429852E+01 0.88582695811E+01 0.95055171534E+01 0.10321997624E+02
 0.11044794598E+02 0.11337032881E+02 0.11048218314E+02 0.10321945664E+02 0.94973858104E+01
 0.11330211578E+02 0.96252949544E+01 0.86563801513E+01 0.79352166733E+01 0.73921328043E+01
 0.70607950802E+01 0.69125073839E+01 0.69119925895E+01 0.70599554203E+01 0.73928661987E+01
 0.79394298708E+01 0.86637297551E+01 0.96319517828E+01 0.11331134511E+02 0.13707461502E+02
 0.16078240037E+02 0.17562552952E+02 0.17566713777E+02 0.16087148488E+02 0.13713748357E+02
 0.18689900823E+02 0.13835819423E+02 0.10561332958E+02 0.89291031273E+01 0.80230270409E+01
 0.73779917984E+01 0.70219489762E+01 0.69119048651E+01 0.70202545972E+01 0.73782184499E+01
 0.80269522098E+01 0.89331684555E+01 0.10560005465E+02 0.13827729734E+02 0.18679213087E+02
 0.24001472109E+02 0.28152852488E+02 0.29721383333E+02 0.28156593233E+02 0.24009610877E+02
 0.33435547980E+02 0.24099459905E+02 0.16297972097E+02 0.11362921094E+02 0.90986530014E+01
 0.80595869937E+01 0.73793163688E+01 0.70606648815E+01 0.70597829827E+01 0.73783701348E+01
 0.80605245781E+01 0.90992681933E+01 0.11358792564E+02 0.16289141766E+02 0.24092369125E+02
 0.33436167564E+02 0.41905518596E+02 0.46950023215E+02 0.46946399813E+02 0.41899273360E+02
 0.55872626212E+02 0.41936132925E+02 0.28292921001E+02 0.17822958170E+02 0.11678788433E+02
 0.90996816454E+01 0.80267706327E+01 0.73930312495E+01 0.71908836834E+01 0.73931414439E+01
 0.80270436780E+01 0.90991244604E+01 0.11676059072E+02 0.17819289668E+02 0.28293137818E+02
 0.41944497401E+02 0.55886956278E+02 0.66394548785E+02 0.70306519400E+02 0.66383183201E+02
 0.83522805212E+02 0.66372567613E+02 0.46988751613E+02 0.29871214224E+02 0.17818577972E+02
 0.11359569540E+02 0.89331873990E+01 0.79386984262E+01 0.74410899961E+01 0.74415985291E+01
 0.79394233078E+01 0.89329303903E+01 0.11358749961E+02 0.17819348305E+02 0.29875352029E+02
 0.46995749049E+02 0.66379974686E+02 0.83528113827E+02 0.93660877357E+02 0.93658999629E+02
 0.11113389773E+03 0.93630711184E+02 0.70284829094E+02 0.46992743406E+02 0.28289177409E+02
 0.16288571462E+02 0.10561332958E+02 0.86638536978E+01 0.78272046092E+01 0.75480157193E+01
 0.78281535773E+01 0.86637355283E+01 0.10560082386E+02 0.16289215190E+02 0.28293171171E+02
 0.46995836560E+02 0.70280662744E+02 0.93619174329E+02 0.11112353812E+03 0.11765046321E+03
 0.13181486632E+03 0.11763390600E+03 0.93632101558E+02 0.66383929430E+02 0.41943114544E+02
 0.24091449642E+02 0.13829133731E+02 0.96331750182E+01 0.83238450033E+01 0.77230737414E+01
 0.77239061958E+01 0.83247563047E+01 0.96321912209E+01 0.13827649723E+02 0.24092255078E+02
 0.41944689904E+02 0.66379919985E+02 0.93618913854E+02 0.11761759638E+03 0.13180738640E+03
 0.10784384139E+03 0.10187542214E+03 0.85832245536E+02 0.64394700574E+02 0.42996558720E+02
 0.25880801958E+02 0.15031125205E+02 0.99758563766E+01 0.83036657827E+01 0.75083065344E+01
 0.72446052023E+01 0.75087696116E+01 0.83040173446E+01 0.99756726647E+01 0.15030645630E+02
 0.25880592524E+02 0.42996807765E+02 0.64395061969E+02 0.85832358749E+02 0.10187534618E+03
 0.10187999573E+03 0.10187500579E+03 0.90875475153E+02 0.72226654891E+02 0.51058833125E+02
 0.32228350137E+02 0.18813024426E+02 0.11495703642E+02 0.87190015947E+01 0.76852254620E+01
 0.71692319321E+01 0.71685790136E+01 0.76845028524E+01 0.87198282603E+01 0.11497177283E+02
 0.18812978893E+02 0.32227499664E+02 0.51061423301E+02 0.72235309434E+02 0.90886301801E+02
 0.85839298388E+02 0.90896404832E+02 0.85832288964E+02 0.72227054186E+02 0.54070477443E+02
 0.36043646894E+02 0.21825200476E+02 0.13071998986E+02 0.91879767814E+01 0.78504049174E+01
 0.71296866735E+01 0.68933576485E+01 0.71280852954E+01 0.78497981948E+01 0.91893261046E+01
 0.13072745372E+02 0.21823103611E+02 0.36041090286E+02 0.54072439328E+02 0.72234423161E+02
 0.64392220089E+02 0.72273919589E+02 0.72275011249E+02 0.64395471055E+02 0.51058803622E+02
 0.36043326457E+02 0.22973589009E+02 0.14081042034E+02 0.96102348602E+01 0.79750195107E+01
 0.71195132795E+01 0.66998883923E+01 0.66994657940E+01 0.71188658760E+01 0.79750698761E+01
 0.96106653335E+01 0.14080274332E+02 0.22970448336E+02 0.36038396342E+02 0.51053931870E+02
 0.42987558722E+02 0.51143702560E+02 0.54190879794E+02 0.51151208374E+02 0.42996677841E+02
 0.32227707485E+02 0.21825229026E+02 0.14081255385E+02 0.97831354086E+01 0.80419767255E+01
 0.71243462447E+01 0.65845597913E+01 0.64154432224E+01 0.65851789194E+01 0.71245912517E+01
 0.80418082353E+01 0.97838796645E+01 0.14083116213E+02 0.21825413015E+02 0.32222850113E+02
 0.25880085877E+02 0.32370692140E+02 0.36263377342E+02 0.36265992958E+02 0.32375166618E+02
 0.25880437949E+02 0.18812935672E+02 0.13072464902E+02 0.96101939837E+01 0.80418669665E+01
 0.71283451539E+01 0.65328960920E+01 0.62600797645E+01 0.62608301892E+01 0.65337928201E+01
 0.71277498084E+01 0.80413015891E+01 0.96130005675E+01 0.13078787842E+02 0.18818135091E+02
 0.15037585269E+02 0.19010000416E+02 0.22149032977E+02 0.23340406345E+02 0.22146725292E+02
 0.19004966998E+02 0.15030894296E+02 0.11496058304E+02 0.91880278205E+01 0.79747322203E+01
 0.71244258045E+01 0.65329353750E+01 0.62113182490E+01 0.61136919299E+01 0.62122593421E+01
 0.65327953416E+01 0.71222818483E+01 0.79727188281E+01 0.91893261046E+01 0.11501336002E+02
 0.99748657402E+01 0.11709501013E+02 0.13457753480E+02 0.14557880168E+02 0.14555011574E+02
 0.13451690807E+02 0.11705427881E+02 0.99758636916E+01 0.87191843344E+01 0.78500797213E+01
 0.71195128271E+01 0.65847120821E+01 0.62599240256E+01 0.61136690756E+01 0.61140080221E+01
 0.62605299109E+01 0.65843719950E+01 0.71168309201E+01 0.78450692953E+01 0.87143717847E+01
 0.82958821640E+01 0.89163990558E+01 0.95744783750E+01 0.10127299165E+02 0.10344967347E+02
 0.10125010408E+02 0.95744114112E+01 0.89216233751E+01 0.83038141616E+01 0.76850697564E+01
 0.71295269712E+01 0.67001556242E+01 0.64153677086E+01 0.62607309501E+01 0.62125137900E+01
 0.62605864107E+01 0.64165570847E+01 0.67023076742E+01 0.71292808364E+01 0.76798533012E+01
 0.75082368227E+01 0.78707828255E+01 0.82136151604E+01 0.84812864148E+01 0.86283958314E+01
 0.86290124884E+01 0.84838145797E+01 0.82183175292E+01 0.78751444724E+01 0.75084479613E+01
 0.71690549672E+01 0.68935824203E+01 0.66996228353E+01 0.65849862176E+01 0.65339589962E+01
 0.65329222347E+01 0.65840270023E+01 0.67021974836E+01 0.68994262614E+01 0.71737613537E+01
 0.72515448419E+01 0.73581260749E+01 0.74845935585E+01 0.76125707462E+01 0.77118402371E+01
 0.77505911419E+01 0.77140424796E+01 0.76146020439E+01 0.74836045887E+01 0.73531778798E+01
 0.72446094118E+01 0.71685506878E+01 0.71283314302E+01 0.71186773931E+01 0.71244258045E+01
 0.71278670172E+01 0.71220368414E+01 0.71166428898E+01 0.71296866735E+01 0.71739099928E+01
 0.75078106869E+01 0.73579775657E+01 0.72501264045E+01 0.71910361561E+01 0.71726114326E+01
 0.71739267766E+01 0.71747814411E+01 0.71731700230E+01 0.71881719912E+01 0.72443657813E+01
 0.73537022368E+01 0.75084849027E+01 0.76845739090E+01 0.78497686444E+01 0.79747372355E+01
 0.80418777652E+01 0.80414808780E+01 0.79726734779E+01 0.78453649408E+01 0.76800800633E+01
 0.82955695231E+01 0.78705741287E+01 0.74849909884E+01 0.71911374667E+01 0.70041543621E+01
 0.69097537512E+01 0.68828559647E+01 0.69101962833E+01 0.70031000816E+01 0.71886678387E+01
 0.74847612088E+01 0.78756772614E+01 0.83038530826E+01 0.87199912588E+01 0.91891844406E+01
 0.96107006299E+01 0.97842881919E+01 0.96130767405E+01 0.91891334014E+01 0.87143520435E+01
 0.99750634891E+01 0.89164686097E+01 0.82139049294E+01 0.76126928806E+01 0.71722877725E+01
 0.69097372619E+01 0.67944102496E+01 0.67941836227E+01 0.69094033958E+01 0.71728729830E+01
 0.76153664219E+01 0.82185776278E+01 0.89208304876E+01 0.99758777285E+01 0.11497342024E+02
 0.13072751143E+02 0.14080462498E+02 0.14083091027E+02 0.13078327698E+02 0.11501146081E+02
 0.15038064845E+02 0.11709731202E+02 0.95742885698E+01 0.84811879539E+01 0.77116115921E+01
 0.71739445593E+01 0.68830854989E+01 0.67941091762E+01 0.68816993446E+01 0.71737937795E+01
 0.77140424796E+01 0.84837736049E+01 0.95732158702E+01 0.11704129143E+02 0.15030894296E+02
 0.18812920840E+02 0.21822919623E+02 0.22970255315E+02 0.21825200476E+02 0.18818165791E+02
 0.25880308940E+02 0.19009938103E+02 0.13457298345E+02 0.10127120316E+02 0.86285673429E+01
 0.77506971548E+01 0.71749293915E+01 0.69100371313E+01 0.69092607331E+01 0.71739239473E+01
 0.77511126696E+01 0.86290522592E+01 0.10124517390E+02 0.13451376901E+02 0.19004969184E+02
 0.25880451577E+02 0.32227214467E+02 0.36040977595E+02 0.36038604088E+02 0.32223207568E+02
 0.42987341005E+02 0.32370239093E+02 0.22148819862E+02 0.14558004619E+02 0.10345354428E+02
 0.86290603610E+01 0.77138896673E+01 0.71730806600E+01 0.70030329070E+01 0.71731072801E+01
 0.77141183123E+01 0.86289286203E+01 0.10343884813E+02 0.14555818498E+02 0.22149003367E+02
 0.32375673265E+02 0.42996709170E+02 0.51061645502E+02 0.54072755518E+02 0.51054183574E+02
 0.64391883346E+02 0.51143387591E+02 0.36263584923E+02 0.23340866127E+02 0.14555187391E+02
 0.10124796106E+02 0.84835133683E+01 0.76147172217E+01 0.71883202381E+01 0.71887147750E+01
 0.76153594652E+01 0.84835708544E+01 0.10124481937E+02 0.14555869864E+02 0.23343714406E+02
 0.36268303540E+02 0.51148391145E+02 0.64395495706E+02 0.72235407239E+02 0.72234121671E+02
 0.85839185176E+02 0.72274270843E+02 0.54191210516E+02 0.36266274027E+02 0.22146541787E+02
 0.13451298994E+02 0.95742885698E+01 0.82186183745E+01 0.74838343683E+01 0.72441242244E+01
 0.74845935585E+01 0.82185887041E+01 0.95732828340E+01 0.13451440223E+02 0.22149032977E+02
 0.36268377029E+02 0.54188570391E+02 0.72266663036E+02 0.85832288964E+02 0.90885631037E+02
 0.10188005981E+03 0.90897197114E+02 0.72275139505E+02 0.51150842490E+02 0.32374876763E+02
 0.19004807414E+02 0.11705585346E+02 0.89218991676E+01 0.78752117990E+01 0.73528440479E+01
 0.73535169141E+01 0.78759532847E+01 0.89210367262E+01 0.11704056418E+02 0.19004871914E+02
 0.32375836457E+02 0.51148340230E+02 0.72266440038E+02 0.90886231338E+02 0.10187499391E+03
 0.75129205326E+02 0.70937650796E+02 0.59674255266E+02 0.44680479848E+02 0.29915242911E+02
 0.18484359399E+02 0.11689665821E+02 0.88092793803E+01 0.76874180711E+01 0.70315574550E+01
 0.68203121340E+01 0.70319171856E+01 0.76876853650E+01 0.88091242767E+01 0.11689283763E+02
 0.18484200090E+02 0.29915450549E+02 0.44680772980E+02 0.59674345458E+02 0.70937588402E+02
 0.70940033178E+02 0.70937316218E+02 0.63198260441E+02 0.50105779328E+02 0.35377124438E+02
 0.22579094656E+02 0.13898977842E+02 0.95559406912E+01 0.79651070892E+01 0.71202599938E+01