   2   2   0   0
  0.1021597E+02  0.2399900E-09  0.2399900E-09  0.4096310E-09  0.5000000E-15
  1.000000000000000E-004
  CAR 
 unknown system                          
     72.23781972     -5.55836805  301      6.84283450      1.00000000
     -5.558  0.0000E+00  0.0000E+00
     -5.299  0.0000E+00  0.0000E+00
     -5.040  0.0000E+00  0.0000E+00
     -4.780  0.0000E+00  0.0000E+00
     -4.521  0.0000E+00  0.0000E+00
     -4.262  0.0000E+00  0.0000E+00
     -4.002  0.0000E+00  0.0000E+00
     -3.743 -0.9840E-34 -0.2552E-34
     -3.484 -0.7654E-25 -0.1985E-25
     -3.224 -0.2009E-17 -0.5209E-18
     -2.965 -0.1692E-11 -0.4388E-12
     -2.706 -0.4802E-07 -0.1245E-07
     -2.447 -0.4199E-04 -0.1090E-04
     -2.187 -0.4305E-03 -0.1225E-03
     -1.928  0.8364E-02  0.2046E-02
     -1.669  0.5734E-01  0.1692E-01
     -1.409  0.9677E-01  0.4201E-01
     -1.150  0.6324E-01  0.5841E-01
     -0.891  0.1573E+00  0.9919E-01
     -0.631  0.1781E+00  0.1454E+00
     -0.372  0.1815E+00  0.1924E+00
     -0.113  0.8432E-01  0.2143E+00
      0.147  0.2733E+00  0.2852E+00
      0.406  0.2920E+00  0.3609E+00
      0.665  0.2856E+00  0.4350E+00
      0.925  0.2967E+00  0.5119E+00
      1.184  0.2033E+00  0.5646E+00
      1.443  0.5276E+00  0.7014E+00
      1.703  0.6830E+00  0.8786E+00
      1.962  0.8735E+00  0.1105E+01
      2.221  0.1629E+01  0.1528E+01
      2.481  0.2057E+01  0.2061E+01
      2.740  0.2708E+01  0.2763E+01
      2.999  0.2424E+01  0.3392E+01
      3.259  0.2858E+01  0.4133E+01
      3.518  0.2260E+01  0.4719E+01
      3.777  0.3207E+01  0.5551E+01
      4.036  0.3254E+01  0.6395E+01
      4.296  0.3014E+01  0.7176E+01
      4.555  0.2120E+01  0.7726E+01
      4.814  0.2894E+01  0.8476E+01
      5.074  0.4142E+01  0.9550E+01
      5.333  0.4018E+01  0.1059E+02
      5.592  0.4242E+01  0.1169E+02
      5.852  0.4311E+01  0.1281E+02
      6.111  0.3692E+01  0.1377E+02
      6.370  0.2906E+01  0.1452E+02
      6.630  0.3122E+01  0.1533E+02
      6.889  0.3032E+01  0.1612E+02
      7.148  0.2342E+01  0.1672E+02
      7.408  0.4306E+01  0.1784E+02
      7.667  0.5429E+01  0.1925E+02
      7.926  0.5272E+01  0.2062E+02
      8.186  0.2291E+01  0.2121E+02
      8.445  0.1537E+00  0.2125E+02
      8.704  0.3515E+00  0.2134E+02
      8.964  0.1176E+01  0.2165E+02
      9.223  0.7184E+00  0.2183E+02
      9.482  0.3222E+00  0.2192E+02
      9.742  0.6770E+00  0.2209E+02
     10.001  0.4800E+00  0.2222E+02
     10.260  0.2659E+00  0.2229E+02
     10.520  0.4003E+00  0.2239E+02
     10.779  0.9206E+00  0.2263E+02
     11.038  0.5339E+00  0.2277E+02
     11.297  0.3026E+00  0.2284E+02
     11.557  0.2901E+00  0.2292E+02
     11.816  0.4924E+00  0.2305E+02
     12.075  0.4846E+00  0.2317E+02
     12.335  0.4034E+00  0.2328E+02
     12.594  0.2310E+00  0.2334E+02
     12.853  0.3408E+00  0.2343E+02
     13.113  0.3507E+00  0.2352E+02
     13.372  0.3976E+00  0.2362E+02
     13.631  0.6397E+00  0.2379E+02
     13.891  0.2795E+00  0.2386E+02
     14.150  0.9335E-01  0.2388E+02
     14.409  0.8894E-01  0.2391E+02
     14.669  0.2465E+00  0.2397E+02
     14.928  0.1742E+00  0.2401E+02
     15.187  0.2448E+00  0.2408E+02
     15.447  0.1879E+00  0.2413E+02
     15.706  0.2929E+00  0.2420E+02
     15.965  0.2810E+00  0.2428E+02
     16.225  0.4617E+00  0.2440E+02
     16.484  0.1002E+01  0.2466E+02
     16.743  0.8429E+00  0.2487E+02
     17.003  0.7050E+00  0.2506E+02
     17.262  0.7306E+00  0.2525E+02
     17.521  0.2724E+00  0.2532E+02
     17.780  0.7826E+00  0.2552E+02
     18.040  0.6894E+00  0.2570E+02
     18.299  0.9342E+00  0.2594E+02
     18.558  0.6827E+00  0.2612E+02
     18.818  0.5988E+00  0.2627E+02
     19.077  0.6445E+00  0.2644E+02
     19.336  0.8879E+00  0.2667E+02
     19.596  0.7546E+00  0.2687E+02
     19.855  0.5666E+00  0.2701E+02
     20.114  0.8005E+00  0.2722E+02
     20.374  0.5121E+00  0.2735E+02
     20.633  0.7450E+00  0.2755E+02
     20.892  0.5158E+00  0.2768E+02
     21.152  0.3496E+00  0.2777E+02
     21.411  0.6903E+00  0.2795E+02
     21.670  0.4681E+00  0.2807E+02
     21.930  0.6927E+00  0.2825E+02
     22.189  0.7715E+00  0.2845E+02
     22.448  0.4802E+00  0.2858E+02
     22.708  0.7207E+00  0.2876E+02
     22.967  0.9483E+00  0.2901E+02
     23.226  0.7952E+00  0.2921E+02
     23.486  0.8231E+00  0.2943E+02
     23.745  0.9829E+00  0.2968E+02
     24.004  0.8169E+00  0.2989E+02
     24.264  0.7598E+00  0.3009E+02
     24.523  0.9133E+00  0.3033E+02
     24.782  0.1073E+01  0.3061E+02
     25.041  0.4212E+00  0.3072E+02
     25.301  0.8702E+00  0.3094E+02
     25.560  0.1248E+01  0.3127E+02
     25.819  0.1362E+01  0.3162E+02
     26.079  0.6657E+00  0.3179E+02
     26.338  0.7383E+00  0.3198E+02
     26.597  0.5994E+00  0.3214E+02
     26.857  0.8328E+00  0.3235E+02
     27.116  0.1362E+01  0.3271E+02
     27.375  0.9039E+00  0.3294E+02
     27.635  0.7756E+00  0.3314E+02
     27.894  0.8084E+00  0.3335E+02
     28.153  0.7998E+00  0.3356E+02
     28.413  0.1019E+01  0.3382E+02
     28.672  0.9111E+00  0.3406E+02
     28.931  0.6182E+00  0.3422E+02
     29.191  0.5647E+00  0.3437E+02
     29.450  0.6466E+00  0.3453E+02
     29.709  0.1091E+01  0.3482E+02
     29.969  0.6079E+00  0.3498E+02
     30.228  0.7763E+00  0.3518E+02
     30.487  0.5445E+00  0.3532E+02
     30.747  0.1004E+01  0.3558E+02
     31.006  0.7032E+00  0.3576E+02
     31.265  0.6272E+00  0.3592E+02
     31.524  0.5908E+00  0.3608E+02
     31.784  0.7696E+00  0.3628E+02
     32.043  0.9694E+00  0.3653E+02
     32.302  0.1027E+01  0.3679E+02
     32.562  0.6063E+00  0.3695E+02
     32.821  0.9347E+00  0.3719E+02
     33.080  0.7025E+00  0.3738E+02
     33.340  0.8745E+00  0.3760E+02
     33.599  0.9425E+00  0.3785E+02
     33.858  0.8591E+00  0.3807E+02
     34.118  0.9479E+00  0.3832E+02
     34.377  0.8845E+00  0.3854E+02
     34.636  0.1024E+01  0.3881E+02
     34.896  0.7850E+00  0.3901E+02
     35.155  0.6863E+00  0.3919E+02
     35.414  0.1121E+01  0.3948E+02
     35.674  0.1380E+01  0.3984E+02
     35.933  0.9198E+00  0.4008E+02
     36.192  0.7754E+00  0.4028E+02
     36.452  0.6405E+00  0.4045E+02
     36.711  0.6255E+00  0.4061E+02
     36.970  0.1031E+01  0.4088E+02
     37.230  0.6182E+00  0.4104E+02
     37.489  0.7956E+00  0.4124E+02
     37.748  0.7385E+00  0.4143E+02
     38.007  0.1019E+01  0.4170E+02
     38.267  0.8793E+00  0.4193E+02
     38.526  0.8785E+00  0.4215E+02
     38.785  0.1133E+01  0.4245E+02
     39.045  0.8764E+00  0.4267E+02
     39.304  0.7488E+00  0.4287E+02
     39.563  0.1009E+01  0.4313E+02
     39.823  0.1071E+01  0.4341E+02
     40.082  0.7764E+00  0.4361E+02
     40.341  0.7811E+00  0.4381E+02
     40.601  0.5900E+00  0.4397E+02
     40.860  0.7237E+00  0.4415E+02
     41.119  0.9537E+00  0.4440E+02
     41.379  0.9937E+00  0.4466E+02
     41.638  0.9638E+00  0.4491E+02
     41.897  0.1459E+01  0.4529E+02
     42.157  0.1169E+01  0.4559E+02
     42.416  0.6435E+00  0.4576E+02
     42.675  0.1234E+01  0.4608E+02
     42.935  0.9168E+00  0.4631E+02
     43.194  0.7939E+00  0.4652E+02
     43.453  0.1274E+01  0.4685E+02
     43.713  0.1536E+01  0.4725E+02
     43.972  0.8982E+00  0.4748E+02
     44.231  0.7624E+00  0.4768E+02
     44.491  0.1759E+01  0.4814E+02
     44.750  0.9048E+00  0.4837E+02
     45.009  0.7827E+00  0.4857E+02
     45.268  0.8408E+00  0.4879E+02
     45.528  0.9545E+00  0.4904E+02
     45.787  0.4722E+00  0.4916E+02
     46.046  0.6930E+00  0.4934E+02
     46.306  0.1199E+01  0.4965E+02
     46.565  0.5988E+00  0.4981E+02
     46.824  0.4724E+00  0.4993E+02
     47.084  0.1225E+01  0.5025E+02
     47.343  0.1430E+01  0.5062E+02
     47.602  0.9829E+00  0.5087E+02
     47.862  0.8409E+00  0.5109E+02
     48.121  0.1107E+01  0.5138E+02
     48.380  0.1489E+01  0.5176E+02
     48.640  0.1382E+01  0.5212E+02
     48.899  0.1026E+01  0.5239E+02
     49.158  0.6852E+00  0.5257E+02
     49.418  0.7005E+00  0.5275E+02
     49.677  0.8806E+00  0.5298E+02
     49.936  0.1507E+01  0.5337E+02
     50.196  0.1118E+01  0.5366E+02
     50.455  0.1193E+01  0.5397E+02
     50.714  0.1130E+01  0.5426E+02
     50.974  0.1128E+01  0.5455E+02
     51.233  0.1181E+01  0.5486E+02
     51.492  0.1049E+01  0.5513E+02
     51.751  0.1146E+01  0.5543E+02
     52.011  0.1455E+01  0.5580E+02
     52.270  0.1041E+01  0.5607E+02
     52.529  0.1060E+01  0.5635E+02
     52.789  0.1076E+01  0.5663E+02
     53.048  0.1210E+01  0.5694E+02
     53.307  0.1269E+01  0.5727E+02
     53.567  0.8378E+00  0.5749E+02
     53.826  0.1057E+01  0.5776E+02
     54.085  0.1172E+01  0.5807E+02
     54.345  0.1568E+01  0.5847E+02
     54.604  0.1581E+01  0.5888E+02
     54.863  0.8591E+00  0.5911E+02
     55.123  0.9775E+00  0.5936E+02
     55.382  0.1355E+01  0.5971E+02
     55.641  0.1525E+01  0.6011E+02
     55.901  0.1426E+01  0.6048E+02
     56.160  0.1590E+01  0.6089E+02
     56.419  0.1812E+01  0.6136E+02
     56.679  0.1530E+01  0.6176E+02
     56.938  0.1416E+01  0.6212E+02
     57.197  0.1134E+01  0.6242E+02
     57.457  0.1324E+01  0.6276E+02
     57.716  0.1317E+01  0.6310E+02
     57.975  0.1875E+01  0.6359E+02
     58.235  0.1843E+01  0.6407E+02
     58.494  0.1542E+01  0.6447E+02
     58.753  0.1793E+01  0.6493E+02
     59.012  0.1930E+01  0.6543E+02
     59.272  0.1959E+01  0.6594E+02
     59.531  0.1898E+01  0.6643E+02
     59.790  0.1397E+01  0.6679E+02
     60.050  0.1760E+01  0.6725E+02
     60.309  0.1305E+01  0.6759E+02
     60.568  0.1128E+01  0.6788E+02
     60.828  0.1162E+01  0.6818E+02
     61.087  0.1666E+01  0.6861E+02
     61.346  0.1241E+01  0.6894E+02
     61.606  0.1945E+01  0.6944E+02
     61.865  0.1894E+01  0.6993E+02
     62.124  0.1530E+01  0.7033E+02
     62.384  0.1610E+01  0.7075E+02
     62.643  0.1828E+01  0.7122E+02
     62.902  0.1689E+01  0.7166E+02
     63.162  0.1391E+01  0.7202E+02
     63.421  0.1845E+01  0.7250E+02
     63.680  0.1785E+01  0.7296E+02
     63.940  0.1161E+01  0.7326E+02
     64.199  0.1878E+01  0.7375E+02
     64.458  0.2500E+01  0.7440E+02
     64.718  0.1695E+01  0.7484E+02
     64.977  0.1920E+01  0.7533E+02
     65.236  0.1959E+01  0.7584E+02
     65.495  0.1980E+01  0.7636E+02
     65.755  0.1811E+01  0.7682E+02
     66.014  0.1906E+01  0.7732E+02
     66.273  0.1787E+01  0.7778E+02
     66.533  0.1841E+01  0.7826E+02
     66.792  0.1493E+01  0.7865E+02
     67.051  0.1402E+01  0.7901E+02
     67.311  0.1454E+01  0.7939E+02
     67.570  0.9251E+00  0.7963E+02
     67.829  0.1048E+01  0.7990E+02
     68.089  0.2413E+00  0.7996E+02
     68.348  0.7327E-01  0.7998E+02
     68.607  0.1487E-01  0.7998E+02
     68.867  0.5834E-01  0.8000E+02
     69.126  0.6309E-03  0.8000E+02
     69.385 -0.3673E-03  0.8000E+02
     69.645 -0.5181E-06  0.8000E+02
     69.904 -0.1959E-10  0.8000E+02
     70.163 -0.3088E-16  0.8000E+02
     70.423  0.0000E+00  0.8000E+02
     70.682  0.0000E+00  0.8000E+02
     70.941  0.0000E+00  0.8000E+02
     71.201  0.0000E+00  0.8000E+02
     71.460  0.0000E+00  0.8000E+02
     71.719  0.0000E+00  0.8000E+02
     71.978  0.0000E+00  0.8000E+02
     72.238  0.0000E+00  0.8000E+02
