 vasp.6.2.0 18Jan21 (build Mar 17 2021 09:06:54) complex                        
  
 executed on             LinuxIFC date 2021.09.09  12:08:28
 serial version


--------------------------------------------------------------------------------------------------------


 INCAR:
   ENCUT = 280.000000
   SIGMA = 0.200000
   EDIFF = 1.00e-06
   GGA = PE
   PREC = normal
   IBRION = 1
   ICHARG = 1
   ISIF = 2
   ISMEAR = 1
   KPAR = 1
   NBANDS = 40
   NSW = 0
   NCORE = 1
   LCHARG = .TRUE.

 POTCAR:    PAW_PBE Fe 06Sep2000                  
 POTCAR:    PAW_PBE Fe 06Sep2000                  
   SHA256 =  cd5a22d9368cc8b5cc476bea79732366149640da08ac9009b0e1b7fc627eea28 Fe/POTCAR             
   COPYR  = (c) Copyright 06Sep2000 Georg Kresse                                                    
   COPYR  = This file is part of the software VASP. Any use, copying, and all other rights are regul
   COPYR  = If you do not have a valid VASP license, you may not use, copy or distribute this file. 
   VRHFIN =Fe:  d7 s1                                                                               
   LEXCH  = PE                                                                                      
   EATOM  =   594.3153 eV,   43.6809 Ry                                                             
                                                                                                    
   TITEL  = PAW_PBE Fe 06Sep2000                                                                    
   LULTRA =        F    use ultrasoft PP ?                                                          
   IUNSCR =        1    unscreen: 0-lin 1-nonlin 2-no                                               
   RPACOR =    2.000    partial core radius                                                         
   POMASS =   55.847; ZVAL   =    8.000    mass and valenz                                          
   RCORE  =    2.300    outmost cutoff radius                                                       
   RWIGS  =    2.460; RWIGS  =    1.302    wigner-seitz radius (au A)                               
   ENMAX  =  267.882; ENMIN  =  200.911 eV                                                          
   RCLOC  =    1.701    cutoff for local pot                                                        
   LCOR   =        T    correct aug charges                                                         
   LPAW   =        T    paw PP                                                                      
   EAUG   =  511.368                                                                                
   DEXC   =    0.000                                                                                
   RMAX   =    2.356    core radius for proj-oper                                                   
   RAUG   =    1.300    factor for augmentation sphere                                              
   RDEP   =    2.442    radius for radial grids                                                     
   RDEPT  =    1.890    core radius for aug-charge                                                  
                                                                                                    
   Atomic configuration                                                                             
    9 entries                                                                                       
     n  l   j            E        occ.                                                              
     1  0  0.50     -6993.8440   2.0000                                                             
     2  0  0.50      -814.6047   2.0000                                                             
     2  1  1.50      -693.3689   6.0000                                                             
     3  0  0.50       -89.4732   2.0000                                                             
     3  1  1.50       -55.6373   6.0000                                                             
     3  2  2.50        -3.8151   7.0000                                                             
     4  0  0.50        -4.2551   1.0000                                                             
     4  1  1.50        -3.4015   0.0000                                                             
     4  3  2.50        -1.3606   0.0000                                                             
   Description                                                                                      
     l       E           TYP  RCUT    TYP  RCUT                                                     
     2     -3.8151135     23  2.300                                                                 
     2     -5.1756961     23  2.300                                                                 
     0     -4.2550963     23  2.300                                                                 
     0      7.2035603     23  2.300                                                                 
     1     -2.7211652     23  2.300                                                                 
     1     18.4316424     23  2.300                                                                 
  local pseudopotential read in
  partial core-charges read in
  partial kinetic energy density read in
  atomic valenz-charges read in
  non local Contribution for L=           2  read in
    real space projection operators read in
  non local Contribution for L=           2  read in
    real space projection operators read in
  non local Contribution for L=           0  read in
    real space projection operators read in
  non local Contribution for L=           0  read in
    real space projection operators read in
  non local Contribution for L=           1  read in
    real space projection operators read in
  non local Contribution for L=           1  read in
    real space projection operators read in
    PAW grid and wavefunctions read in
 
   number of l-projection  operators is LMAX  =           6
   number of lm-projection operators is LMMAX =          18
 
  PAW_PBE Fe 06Sep2000                  :
 energy of atom  1       EATOM= -594.3153
 kinetic energy error for atom=    0.0278 (will be added to EATOM!!)
 
 
 POSCAR: Fe
  positions in cartesian coordinates
  No initial velocities read in
 exchange correlation table for  LEXCH =        8
   RHO(1)=    0.500       N(1)  =     2000
   RHO(2)=  100.500       N(2)  =     4000
 


--------------------------------------------------------------------------------------------------------


 ion  position               nearest neighbor table
   1  0.000  0.000  0.000-   2 2.47   2 2.47   2 2.47   2 2.47   2 2.47   2 2.47
   2  0.333  0.667  0.500-   1 2.47   1 2.47   1 2.47   1 2.47   1 2.47   1 2.47
 
  LATTYP: Found a hexagonal cell.
 ALAT       =     2.3999000000
 C/A-ratio  =     1.7068669528
  
  Lattice vectors:
  
 A1 = (   2.3999000000,   0.0000000000,   0.0000000000)
 A2 = (  -1.1999500000,   2.0783743665,   0.0000000000)
 A3 = (   0.0000000000,   0.0000000000,   4.0963100000)


Analysis of symmetry for initial positions (statically):
=====================================================================
 Subroutine PRICEL returns:
 Original cell was already a primitive cell.
 

 Routine SETGRP: Setting up the symmetry group for a 
 hexagonal supercell.


 Subroutine GETGRP returns: Found 24 space group operations
 (whereof 12 operations were pure point group operations)
 out of a pool of 24 trial point group operations.


The static configuration has the point symmetry D_3h.
 The point group associated with its full space group is D_6h.


Analysis of symmetry for dynamics (positions and initial velocities):
=====================================================================
 Subroutine PRICEL returns:
 Original cell was already a primitive cell.
 

 Routine SETGRP: Setting up the symmetry group for a 
 hexagonal supercell.


 Subroutine GETGRP returns: Found 24 space group operations
 (whereof 12 operations were pure point group operations)
 out of a pool of 24 trial point group operations.


The dynamic configuration has the point symmetry D_3h.
 The point group associated with its full space group is D_6h.


 Subroutine INISYM returns: Found 24 space group operations
 (whereof 12 operations are pure point group operations),
 and found     1 'primitive' translations


----------------------------------------------------------------------------------------

                                     Primitive cell                                     

  volume of cell :      20.4319

  direct lattice vectors                    reciprocal lattice vectors
     2.399900000  0.000000000  0.000000000     0.416684029  0.240572636  0.000000000
    -1.199950000  2.078374367  0.000000000     0.000000000  0.481145272  0.000000000
     0.000000000  0.000000000  4.096310000     0.000000000  0.000000000  0.244122149

  length of vectors
     2.399900000  2.399900000  4.096310000     0.481145272  0.481145272  0.244122149

  position of ions in fractional coordinates (direct lattice)
     0.000000000  0.000000000  0.000000000
     0.333333333  0.666666667  0.500000000

  ion indices of the primitive-cell ions
   primitive index   ion index
                 1           1
                 2           2

----------------------------------------------------------------------------------------

 
 
 KPOINTS: KPOINTS created by Atomic Simulation Env

Automatic generation of k-mesh.
 Grid dimensions read from file:
 generate k-points for:   11   11   11

 Generating k-lattice:

  Cartesian coordinates                     Fractional coordinates (reciprocal lattice)
     0.037880366  0.021870240  0.000000000     0.090909091  0.000000000  0.000000000
     0.000000000  0.043740479  0.000000000     0.000000000  0.090909091  0.000000000
     0.000000000  0.000000000  0.022192923     0.000000000  0.000000000  0.090909091

  Length of vectors
     0.043740479  0.043740479  0.022192923

  Shift w.r.t. Gamma in fractional coordinates (k-lattice)
     0.000000000  0.000000000  0.000000000

 
 Subroutine IBZKPT returns following result:
 ===========================================
 
 Found     96 irreducible k-points:
 
 Following reciprocal coordinates:
            Coordinates               Weight
  0.000000  0.000000  0.000000      1.000000
  0.090909 -0.000000  0.000000      6.000000
  0.181818 -0.000000  0.000000      6.000000
  0.272727 -0.000000  0.000000      6.000000
  0.363636 -0.000000  0.000000      6.000000
  0.454545 -0.000000  0.000000      6.000000
  0.090909  0.090909  0.000000      6.000000
  0.181818  0.090909  0.000000     12.000000
  0.272727  0.090909  0.000000     12.000000
  0.363636  0.090909  0.000000     12.000000
  0.454545  0.090909  0.000000      6.000000
  0.181818  0.181818  0.000000      6.000000
  0.272727  0.181818  0.000000     12.000000
  0.363636  0.181818  0.000000     12.000000
  0.272727  0.272727  0.000000      6.000000
  0.363636  0.272727  0.000000      6.000000
  0.000000  0.000000  0.090909      2.000000
  0.090909 -0.000000  0.090909     12.000000
  0.181818 -0.000000  0.090909     12.000000
  0.272727 -0.000000  0.090909     12.000000
  0.363636 -0.000000  0.090909     12.000000
  0.454545 -0.000000  0.090909     12.000000
  0.090909  0.090909  0.090909     12.000000
  0.181818  0.090909  0.090909     24.000000
  0.272727  0.090909  0.090909     24.000000
  0.363636  0.090909  0.090909     24.000000
  0.454545  0.090909  0.090909     12.000000
  0.181818  0.181818  0.090909     12.000000
  0.272727  0.181818  0.090909     24.000000
  0.363636  0.181818  0.090909     24.000000
  0.272727  0.272727  0.090909     12.000000
  0.363636  0.272727  0.090909     12.000000
  0.000000  0.000000  0.181818      2.000000
  0.090909 -0.000000  0.181818     12.000000
  0.181818 -0.000000  0.181818     12.000000
  0.272727 -0.000000  0.181818     12.000000
  0.363636 -0.000000  0.181818     12.000000
  0.454545 -0.000000  0.181818     12.000000
  0.090909  0.090909  0.181818     12.000000
  0.181818  0.090909  0.181818     24.000000
  0.272727  0.090909  0.181818     24.000000
  0.363636  0.090909  0.181818     24.000000
  0.454545  0.090909  0.181818     12.000000
  0.181818  0.181818  0.181818     12.000000
  0.272727  0.181818  0.181818     24.000000
  0.363636  0.181818  0.181818     24.000000
  0.272727  0.272727  0.181818     12.000000
  0.363636  0.272727  0.181818     12.000000
  0.000000  0.000000  0.272727      2.000000
  0.090909 -0.000000  0.272727     12.000000
  0.181818 -0.000000  0.272727     12.000000
  0.272727 -0.000000  0.272727     12.000000
  0.363636 -0.000000  0.272727     12.000000
  0.454545 -0.000000  0.272727     12.000000
  0.090909  0.090909  0.272727     12.000000
  0.181818  0.090909  0.272727     24.000000
  0.272727  0.090909  0.272727     24.000000
  0.363636  0.090909  0.272727     24.000000
  0.454545  0.090909  0.272727     12.000000
  0.181818  0.181818  0.272727     12.000000
  0.272727  0.181818  0.272727     24.000000
  0.363636  0.181818  0.272727     24.000000
  0.272727  0.272727  0.272727     12.000000
  0.363636  0.272727  0.272727     12.000000
  0.000000  0.000000  0.363636      2.000000
  0.090909 -0.000000  0.363636     12.000000
  0.181818 -0.000000  0.363636     12.000000
  0.272727 -0.000000  0.363636     12.000000
  0.363636 -0.000000  0.363636     12.000000
  0.454545 -0.000000  0.363636     12.000000
  0.090909  0.090909  0.363636     12.000000
  0.181818  0.090909  0.363636     24.000000
  0.272727  0.090909  0.363636     24.000000
  0.363636  0.090909  0.363636     24.000000
  0.454545  0.090909  0.363636     12.000000
  0.181818  0.181818  0.363636     12.000000
  0.272727  0.181818  0.363636     24.000000
  0.363636  0.181818  0.363636     24.000000
  0.272727  0.272727  0.363636     12.000000
  0.363636  0.272727  0.363636     12.000000
  0.000000  0.000000  0.454545      2.000000
  0.090909 -0.000000  0.454545     12.000000
  0.181818 -0.000000  0.454545     12.000000
  0.272727 -0.000000  0.454545     12.000000
  0.363636 -0.000000  0.454545     12.000000
  0.454545 -0.000000  0.454545     12.000000
  0.090909  0.090909  0.454545     12.000000
  0.181818  0.090909  0.454545     24.000000
  0.272727  0.090909  0.454545     24.000000
  0.363636  0.090909  0.454545     24.000000
  0.454545  0.090909  0.454545     12.000000
  0.181818  0.181818  0.454545     12.000000
  0.272727  0.181818  0.454545     24.000000
  0.363636  0.181818  0.454545     24.000000
  0.272727  0.272727  0.454545     12.000000
  0.363636  0.272727  0.454545     12.000000
 
 Following cartesian coordinates:
            Coordinates               Weight
  0.000000  0.000000  0.000000      1.000000
  0.037880  0.021870  0.000000      6.000000
  0.075761  0.043740  0.000000      6.000000
  0.113641  0.065611  0.000000      6.000000
  0.151521  0.087481  0.000000      6.000000
  0.189402  0.109351  0.000000      6.000000
  0.037880  0.065611  0.000000      6.000000
  0.075761  0.087481  0.000000     12.000000
  0.113641  0.109351  0.000000     12.000000
  0.151521  0.131221  0.000000     12.000000
  0.189402  0.153092  0.000000      6.000000
  0.075761  0.131221  0.000000      6.000000
  0.113641  0.153092  0.000000     12.000000
  0.151521  0.174962  0.000000     12.000000
  0.113641  0.196832  0.000000      6.000000
  0.151521  0.218702  0.000000      6.000000
  0.000000  0.000000  0.022193      2.000000
  0.037880  0.021870  0.022193     12.000000
  0.075761  0.043740  0.022193     12.000000
  0.113641  0.065611  0.022193     12.000000
  0.151521  0.087481  0.022193     12.000000
  0.189402  0.109351  0.022193     12.000000
  0.037880  0.065611  0.022193     12.000000
  0.075761  0.087481  0.022193     24.000000
  0.113641  0.109351  0.022193     24.000000
  0.151521  0.131221  0.022193     24.000000
  0.189402  0.153092  0.022193     12.000000
  0.075761  0.131221  0.022193     12.000000
  0.113641  0.153092  0.022193     24.000000
  0.151521  0.174962  0.022193     24.000000
  0.113641  0.196832  0.022193     12.000000
  0.151521  0.218702  0.022193     12.000000
  0.000000  0.000000  0.044386      2.000000
  0.037880  0.021870  0.044386     12.000000
  0.075761  0.043740  0.044386     12.000000
  0.113641  0.065611  0.044386     12.000000
  0.151521  0.087481  0.044386     12.000000
  0.189402  0.109351  0.044386     12.000000
  0.037880  0.065611  0.044386     12.000000
  0.075761  0.087481  0.044386     24.000000
  0.113641  0.109351  0.044386     24.000000
  0.151521  0.131221  0.044386     24.000000
  0.189402  0.153092  0.044386     12.000000
  0.075761  0.131221  0.044386     12.000000
  0.113641  0.153092  0.044386     24.000000
  0.151521  0.174962  0.044386     24.000000
  0.113641  0.196832  0.044386     12.000000
  0.151521  0.218702  0.044386     12.000000
  0.000000  0.000000  0.066579      2.000000
  0.037880  0.021870  0.066579     12.000000
  0.075761  0.043740  0.066579     12.000000
  0.113641  0.065611  0.066579     12.000000
  0.151521  0.087481  0.066579     12.000000
  0.189402  0.109351  0.066579     12.000000
  0.037880  0.065611  0.066579     12.000000
  0.075761  0.087481  0.066579     24.000000
  0.113641  0.109351  0.066579     24.000000
  0.151521  0.131221  0.066579     24.000000
  0.189402  0.153092  0.066579     12.000000
  0.075761  0.131221  0.066579     12.000000
  0.113641  0.153092  0.066579     24.000000
  0.151521  0.174962  0.066579     24.000000
  0.113641  0.196832  0.066579     12.000000
  0.151521  0.218702  0.066579     12.000000
  0.000000  0.000000  0.088772      2.000000
  0.037880  0.021870  0.088772     12.000000
  0.075761  0.043740  0.088772     12.000000
  0.113641  0.065611  0.088772     12.000000
  0.151521  0.087481  0.088772     12.000000
  0.189402  0.109351  0.088772     12.000000
  0.037880  0.065611  0.088772     12.000000
  0.075761  0.087481  0.088772     24.000000
  0.113641  0.109351  0.088772     24.000000
  0.151521  0.131221  0.088772     24.000000
  0.189402  0.153092  0.088772     12.000000
  0.075761  0.131221  0.088772     12.000000
  0.113641  0.153092  0.088772     24.000000
  0.151521  0.174962  0.088772     24.000000
  0.113641  0.196832  0.088772     12.000000
  0.151521  0.218702  0.088772     12.000000
  0.000000  0.000000  0.110965      2.000000
  0.037880  0.021870  0.110965     12.000000
  0.075761  0.043740  0.110965     12.000000
  0.113641  0.065611  0.110965     12.000000
  0.151521  0.087481  0.110965     12.000000
  0.189402  0.109351  0.110965     12.000000
  0.037880  0.065611  0.110965     12.000000
  0.075761  0.087481  0.110965     24.000000
  0.113641  0.109351  0.110965     24.000000
  0.151521  0.131221  0.110965     24.000000
  0.189402  0.153092  0.110965     12.000000
  0.075761  0.131221  0.110965     12.000000
  0.113641  0.153092  0.110965     24.000000
  0.151521  0.174962  0.110965     24.000000
  0.113641  0.196832  0.110965     12.000000
  0.151521  0.218702  0.110965     12.000000
 


--------------------------------------------------------------------------------------------------------




 Dimension of arrays:
   k-points           NKPTS =     96   k-points in BZ     NKDIM =     96   number of bands    NBANDS=     40
   number of dos      NEDOS =    301   number of ions     NIONS =      2
   non local maximal  LDIM  =      6   non local SUM 2l+1 LMDIM =     18
   total plane-waves  NPLWV =   1800
   max r-space proj   IRMAX =      1   max aug-charges    IRDMAX=   3337
   dimension x,y,z NGX =    10 NGY =   10 NGZ =   18
   dimension x,y,z NGXF=    20 NGYF=   20 NGZF=   36
   support grid    NGXF=    20 NGYF=   20 NGZF=   36
   ions per type =               2
   NGX,Y,Z   is equivalent  to a cutoff of   6.93,  6.93,  7.31 a.u.
   NGXF,Y,Z  is equivalent  to a cutoff of  13.85, 13.85, 14.61 a.u.

 SYSTEM =  unknown system                          
 POSCAR =  Fe                                      

 Startparameter for this run:
   NWRITE =      2    write-flag & timer
   PREC   = normal    normal or accurate (medium, high low for compatibility)
   ISTART =      0    job   : 0-new  1-cont  2-samecut
   ICHARG =      1    charge: 1-file 2-atom 10-const
   ISPIN  =      1    spin polarized calculation?
   LNONCOLLINEAR =      F non collinear calculations
   LSORBIT =      F    spin-orbit coupling
   INIWAV =      1    electr: 0-lowe 1-rand  2-diag
   LASPH  =      F    aspherical Exc in radial PAW
   METAGGA=      F    non-selfconsistent MetaGGA calc.

 Electronic Relaxation 1
   ENCUT  =  280.0 eV  20.58 Ry    4.54 a.u.   3.27  3.27  5.59*2*pi/ulx,y,z
   ENINI  =  280.0     initial cutoff
   ENAUG  =  511.4 eV  augmentation charge cutoff
   NELM   =     60;   NELMIN=  2; NELMDL= -5     # of ELM steps 
   EDIFF  = 0.1E-05   stopping-criterion for ELM
   LREAL  =      F    real-space projection
   NLSPLINE    = F    spline interpolate recip. space projectors
   LCOMPAT=      F    compatible to vasp.4.4
   GGA_COMPAT  = T    GGA compatible to vasp.4.4-vasp.4.6
   LMAXPAW     = -100 max onsite density
   LMAXMIX     =    2 max onsite mixed and CHGCAR
   VOSKOWN=      0    Vosko Wilk Nusair interpolation
   ROPT   =    0.00000
 Ionic relaxation
   EDIFFG = 0.1E-04   stopping-criterion for IOM
   NSW    =      0    number of steps for IOM
   NBLOCK =      1;   KBLOCK =      1    inner block; outer block 
   IBRION =     -1    ionic relax: 0-MD 1-quasi-New 2-CG
   NFREE  =      0    steps in history (QN), initial steepest desc. (CG)
   ISIF   =      2    stress and relaxation
   IWAVPR =      0    prediction:  0-non 1-charg 2-wave 3-comb
   ISYM   =      2    0-nonsym 1-usesym 2-fastsym
   LCORR  =      T    Harris-Foulkes like correction to forces

   POTIM  = 0.5000    time-step for ionic-motion
   TEIN   =    0.0    initial temperature
   TEBEG  =    0.0;   TEEND  =   0.0 temperature during run
   SMASS  =  -3.00    Nose mass-parameter (am)
   estimated Nose-frequenzy (Omega)   =  0.10E-29 period in steps = 0.13E+47 mass=  -0.132E-27a.u.
   SCALEE = 1.0000    scale energy and forces
   NPACO  =    256;   APACO  = 16.0  distance and # of slots for P.C.
   PSTRESS=    0.0 pullay stress

  Mass of Ions in am
   POMASS =  55.85
  Ionic Valenz
   ZVAL   =   8.00
  Atomic Wigner-Seitz radii
   RWIGS  =  -1.00
  virtual crystal weights 
   VCA    =   1.00
   NELECT =      16.0000    total number of electrons
   NUPDOWN=      -1.0000    fix difference up-down

 DOS related values:
   EMIN   =  10.00;   EMAX   =-10.00  energy-range for DOS
   EFERMI =   0.00
   ISMEAR =     1;   SIGMA  =   0.20  broadening in eV -4-tet -1-fermi 0-gaus

 Electronic relaxation 2 (details)
   IALGO  =     38    algorithm
   LDIAG  =      T    sub-space diagonalisation (order eigenvalues)
   LSUBROT=      F    optimize rotation matrix (better conditioning)
   TURBO    =      0    0=normal 1=particle mesh
   IRESTART =      0    0=no restart 2=restart with 2 vectors
   NREBOOT  =      0    no. of reboots
   NMIN     =      0    reboot dimension
   EREF     =   0.00    reference energy to select bands
   IMIX   =      4    mixing-type and parameters
     AMIX     =   0.40;   BMIX     =  1.00
     AMIX_MAG =   1.60;   BMIX_MAG =  1.00
     AMIN     =   0.10
     WC   =   100.;   INIMIX=   1;  MIXPRE=   1;  MAXMIX= -45

 Intra band minimization:
   WEIMIN = 0.0000     energy-eigenvalue tresh-hold
   EBREAK =  0.62E-08  absolut break condition
   DEPER  =   0.30     relativ break condition  

   TIME   =   0.40     timestep for ELM

  volume/ion in A,a.u.               =      10.22        68.94
  Fermi-wavevector in a.u.,A,eV,Ry     =   1.508962  2.851524 30.979999  2.276966
  Thomas-Fermi vector in A             =   2.619347
 
 Write flags
   LWAVE        =      T    write WAVECAR
   LDOWNSAMPLE  =      F    k-point downsampling of WAVECAR
   LCHARG       =      T    write CHGCAR
   LVTOT        =      F    write LOCPOT, total local potential
   LVHAR        =      F    write LOCPOT, Hartree potential only
   LELF         =      F    write electronic localiz. function (ELF)
   LORBIT       =      0    0 simple, 1 ext, 2 COOP (PROOUT), +10 PAW based schemes


 Dipole corrections
   LMONO  =      F    monopole corrections only (constant potential shift)
   LDIPOL =      F    correct potential (dipole corrections)
   IDIPOL =      0    1-x, 2-y, 3-z, 4-all directions 
   EPSILON=  1.0000000 bulk dielectric constant

 Exchange correlation treatment:
   GGA     =    PE    GGA type
   LEXCH   =     8    internal setting for exchange type
   VOSKOWN=      0    Vosko Wilk Nusair interpolation
   LHFCALC =     F    Hartree Fock is set to
   LHFONE  =     F    Hartree Fock one center treatment
   AEXX    =    0.0000 exact exchange contribution

 Linear response parameters
   LEPSILON=     F    determine dielectric tensor
   LRPA    =     F    only Hartree local field effects (RPA)
   LNABLA  =     F    use nabla operator in PAW spheres
   LVEL    =     F    velocity operator in full k-point grid
   LINTERFAST=   F  fast interpolation
   KINTER  =     0    interpolate to denser k-point grid
   CSHIFT  =0.1000    complex shift for real part using Kramers Kronig
   OMEGAMAX=  -1.0    maximum frequency
   DEG_THRESHOLD= 0.2000000E-02 threshold for treating states as degnerate
   RTIME   =   -0.100 relaxation time in fs
  (WPLASMAI=    0.000 imaginary part of plasma frequency in eV, 0.658/RTIME)
   DFIELD  = 0.0000000 0.0000000 0.0000000 field for delta impulse in time
 
 Orbital magnetization related:
   ORBITALMAG=     F  switch on orbital magnetization
   LCHIMAG   =     F  perturbation theory with respect to B field
   DQ        =  0.001000  dq finite difference perturbation B field
   LLRAUG    =     F  two centre corrections for induced B field



--------------------------------------------------------------------------------------------------------


 Static calculation
 charge density and potential will be updated during run
 non-spin polarized calculation
 Variant of blocked Davidson
 Davidson routine will perform the subspace rotation
 perform sub-space diagonalisation
    after iterative eigenvector-optimisation
 modified Broyden-mixing scheme, WC =      100.0
 initial mixing is a Kerker type mixing with AMIX =  0.4000 and BMIX =      1.0000
 Hartree-type preconditioning will be used
 using additional bands           32
 reciprocal scheme for non local part
 use partial core corrections
 calculate Harris-corrections to forces 
   (improved forces if not selfconsistent)
 use gradient corrections 
 use of overlap-Matrix (Vanderbilt PP)
 Methfessel and Paxton  Order N= 1 SIGMA  =   0.20


--------------------------------------------------------------------------------------------------------


  energy-cutoff  :      280.00
  volume of cell :       20.43
      direct lattice vectors                 reciprocal lattice vectors
     2.399900000  0.000000000  0.000000000     0.416684029  0.240572636  0.000000000
    -1.199950000  2.078374367  0.000000000     0.000000000  0.481145272  0.000000000
     0.000000000  0.000000000  4.096310000     0.000000000  0.000000000  0.244122149

  length of vectors
     2.399900000  2.399900000  4.096310000     0.481145272  0.481145272  0.244122149


 
 k-points in units of 2pi/SCALE and weight: KPOINTS created by Atomic Simulation Env
   0.00000000  0.00000000  0.00000000       0.001
   0.03788037  0.02187024  0.00000000       0.005
   0.07576073  0.04374048  0.00000000       0.005
   0.11364110  0.06561072  0.00000000       0.005
   0.15152146  0.08748096  0.00000000       0.005
   0.18940183  0.10935120  0.00000000       0.005
   0.03788037  0.06561072  0.00000000       0.005
   0.07576073  0.08748096  0.00000000       0.009
   0.11364110  0.10935120  0.00000000       0.009
   0.15152146  0.13122144  0.00000000       0.009
   0.18940183  0.15309168  0.00000000       0.005
   0.07576073  0.13122144  0.00000000       0.005
   0.11364110  0.15309168  0.00000000       0.009
   0.15152146  0.17496192  0.00000000       0.009
   0.11364110  0.19683216  0.00000000       0.005
   0.15152146  0.21870240  0.00000000       0.005
   0.00000000  0.00000000  0.02219292       0.002
   0.03788037  0.02187024  0.02219292       0.009
   0.07576073  0.04374048  0.02219292       0.009
   0.11364110  0.06561072  0.02219292       0.009
   0.15152146  0.08748096  0.02219292       0.009
   0.18940183  0.10935120  0.02219292       0.009
   0.03788037  0.06561072  0.02219292       0.009
   0.07576073  0.08748096  0.02219292       0.018
   0.11364110  0.10935120  0.02219292       0.018
   0.15152146  0.13122144  0.02219292       0.018
   0.18940183  0.15309168  0.02219292       0.009
   0.07576073  0.13122144  0.02219292       0.009
   0.11364110  0.15309168  0.02219292       0.018
   0.15152146  0.17496192  0.02219292       0.018
   0.11364110  0.19683216  0.02219292       0.009
   0.15152146  0.21870240  0.02219292       0.009
   0.00000000  0.00000000  0.04438585       0.002
   0.03788037  0.02187024  0.04438585       0.009
   0.07576073  0.04374048  0.04438585       0.009
   0.11364110  0.06561072  0.04438585       0.009
   0.15152146  0.08748096  0.04438585       0.009
   0.18940183  0.10935120  0.04438585       0.009
   0.03788037  0.06561072  0.04438585       0.009
   0.07576073  0.08748096  0.04438585       0.018
   0.11364110  0.10935120  0.04438585       0.018
   0.15152146  0.13122144  0.04438585       0.018
   0.18940183  0.15309168  0.04438585       0.009
   0.07576073  0.13122144  0.04438585       0.009
   0.11364110  0.15309168  0.04438585       0.018
   0.15152146  0.17496192  0.04438585       0.018
   0.11364110  0.19683216  0.04438585       0.009
   0.15152146  0.21870240  0.04438585       0.009
   0.00000000  0.00000000  0.06657877       0.002
   0.03788037  0.02187024  0.06657877       0.009
   0.07576073  0.04374048  0.06657877       0.009
   0.11364110  0.06561072  0.06657877       0.009
   0.15152146  0.08748096  0.06657877       0.009
   0.18940183  0.10935120  0.06657877       0.009
   0.03788037  0.06561072  0.06657877       0.009
   0.07576073  0.08748096  0.06657877       0.018
   0.11364110  0.10935120  0.06657877       0.018
   0.15152146  0.13122144  0.06657877       0.018
   0.18940183  0.15309168  0.06657877       0.009
   0.07576073  0.13122144  0.06657877       0.009
   0.11364110  0.15309168  0.06657877       0.018
   0.15152146  0.17496192  0.06657877       0.018
   0.11364110  0.19683216  0.06657877       0.009
   0.15152146  0.21870240  0.06657877       0.009
   0.00000000  0.00000000  0.08877169       0.002
   0.03788037  0.02187024  0.08877169       0.009
   0.07576073  0.04374048  0.08877169       0.009
   0.11364110  0.06561072  0.08877169       0.009
   0.15152146  0.08748096  0.08877169       0.009
   0.18940183  0.10935120  0.08877169       0.009
   0.03788037  0.06561072  0.08877169       0.009
   0.07576073  0.08748096  0.08877169       0.018
   0.11364110  0.10935120  0.08877169       0.018
   0.15152146  0.13122144  0.08877169       0.018
   0.18940183  0.15309168  0.08877169       0.009
   0.07576073  0.13122144  0.08877169       0.009
   0.11364110  0.15309168  0.08877169       0.018
   0.15152146  0.17496192  0.08877169       0.018
   0.11364110  0.19683216  0.08877169       0.009
   0.15152146  0.21870240  0.08877169       0.009
   0.00000000  0.00000000  0.11096461       0.002
   0.03788037  0.02187024  0.11096461       0.009
   0.07576073  0.04374048  0.11096461       0.009
   0.11364110  0.06561072  0.11096461       0.009
   0.15152146  0.08748096  0.11096461       0.009
   0.18940183  0.10935120  0.11096461       0.009
   0.03788037  0.06561072  0.11096461       0.009
   0.07576073  0.08748096  0.11096461       0.018
   0.11364110  0.10935120  0.11096461       0.018
   0.15152146  0.13122144  0.11096461       0.018
   0.18940183  0.15309168  0.11096461       0.009
   0.07576073  0.13122144  0.11096461       0.009
   0.11364110  0.15309168  0.11096461       0.018
   0.15152146  0.17496192  0.11096461       0.018
   0.11364110  0.19683216  0.11096461       0.009
   0.15152146  0.21870240  0.11096461       0.009
 
 k-points in reciprocal lattice and weights: KPOINTS created by Atomic Simulation Env
   0.00000000  0.00000000  0.00000000       0.001
   0.09090909 -0.00000000  0.00000000       0.005
   0.18181818 -0.00000000  0.00000000       0.005
   0.27272727 -0.00000000  0.00000000       0.005
   0.36363636 -0.00000000  0.00000000       0.005
   0.45454545 -0.00000000  0.00000000       0.005
   0.09090909  0.09090909  0.00000000       0.005
   0.18181818  0.09090909  0.00000000       0.009
   0.27272727  0.09090909  0.00000000       0.009
   0.36363636  0.09090909  0.00000000       0.009
   0.45454545  0.09090909  0.00000000       0.005
   0.18181818  0.18181818  0.00000000       0.005
   0.27272727  0.18181818  0.00000000       0.009
   0.36363636  0.18181818  0.00000000       0.009
   0.27272727  0.27272727  0.00000000       0.005
   0.36363636  0.27272727  0.00000000       0.005
   0.00000000  0.00000000  0.09090909       0.002
   0.09090909 -0.00000000  0.09090909       0.009
   0.18181818 -0.00000000  0.09090909       0.009
   0.27272727 -0.00000000  0.09090909       0.009
   0.36363636 -0.00000000  0.09090909       0.009
   0.45454545 -0.00000000  0.09090909       0.009
   0.09090909  0.09090909  0.09090909       0.009
   0.18181818  0.09090909  0.09090909       0.018
   0.27272727  0.09090909  0.09090909       0.018
   0.36363636  0.09090909  0.09090909       0.018
   0.45454545  0.09090909  0.09090909       0.009
   0.18181818  0.18181818  0.09090909       0.009
   0.27272727  0.18181818  0.09090909       0.018
   0.36363636  0.18181818  0.09090909       0.018
   0.27272727  0.27272727  0.09090909       0.009
   0.36363636  0.27272727  0.09090909       0.009
   0.00000000  0.00000000  0.18181818       0.002
   0.09090909 -0.00000000  0.18181818       0.009
   0.18181818 -0.00000000  0.18181818       0.009
   0.27272727 -0.00000000  0.18181818       0.009
   0.36363636 -0.00000000  0.18181818       0.009
   0.45454545 -0.00000000  0.18181818       0.009
   0.09090909  0.09090909  0.18181818       0.009
   0.18181818  0.09090909  0.18181818       0.018
   0.27272727  0.09090909  0.18181818       0.018
   0.36363636  0.09090909  0.18181818       0.018
   0.45454545  0.09090909  0.18181818       0.009
   0.18181818  0.18181818  0.18181818       0.009
   0.27272727  0.18181818  0.18181818       0.018
   0.36363636  0.18181818  0.18181818       0.018
   0.27272727  0.27272727  0.18181818       0.009
   0.36363636  0.27272727  0.18181818       0.009
   0.00000000  0.00000000  0.27272727       0.002
   0.09090909 -0.00000000  0.27272727       0.009
   0.18181818 -0.00000000  0.27272727       0.009
   0.27272727 -0.00000000  0.27272727       0.009
   0.36363636 -0.00000000  0.27272727       0.009
   0.45454545 -0.00000000  0.27272727       0.009
   0.09090909  0.09090909  0.27272727       0.009
   0.18181818  0.09090909  0.27272727       0.018
   0.27272727  0.09090909  0.27272727       0.018
   0.36363636  0.09090909  0.27272727       0.018
   0.45454545  0.09090909  0.27272727       0.009
   0.18181818  0.18181818  0.27272727       0.009
   0.27272727  0.18181818  0.27272727       0.018
   0.36363636  0.18181818  0.27272727       0.018
   0.27272727  0.27272727  0.27272727       0.009
   0.36363636  0.27272727  0.27272727       0.009
   0.00000000  0.00000000  0.36363636       0.002
   0.09090909 -0.00000000  0.36363636       0.009
   0.18181818 -0.00000000  0.36363636       0.009
   0.27272727 -0.00000000  0.36363636       0.009
   0.36363636 -0.00000000  0.36363636       0.009
   0.45454545 -0.00000000  0.36363636       0.009
   0.09090909  0.09090909  0.36363636       0.009
   0.18181818  0.09090909  0.36363636       0.018
   0.27272727  0.09090909  0.36363636       0.018
   0.36363636  0.09090909  0.36363636       0.018
   0.45454545  0.09090909  0.36363636       0.009
   0.18181818  0.18181818  0.36363636       0.009
   0.27272727  0.18181818  0.36363636       0.018
   0.36363636  0.18181818  0.36363636       0.018
   0.27272727  0.27272727  0.36363636       0.009
   0.36363636  0.27272727  0.36363636       0.009
   0.00000000  0.00000000  0.45454545       0.002
   0.09090909 -0.00000000  0.45454545       0.009
   0.18181818 -0.00000000  0.45454545       0.009
   0.27272727 -0.00000000  0.45454545       0.009
   0.36363636 -0.00000000  0.45454545       0.009
   0.45454545 -0.00000000  0.45454545       0.009
   0.09090909  0.09090909  0.45454545       0.009
   0.18181818  0.09090909  0.45454545       0.018
   0.27272727  0.09090909  0.45454545       0.018
   0.36363636  0.09090909  0.45454545       0.018
   0.45454545  0.09090909  0.45454545       0.009
   0.18181818  0.18181818  0.45454545       0.009
   0.27272727  0.18181818  0.45454545       0.018
   0.36363636  0.18181818  0.45454545       0.018
   0.27272727  0.27272727  0.45454545       0.009
   0.36363636  0.27272727  0.45454545       0.009
 
 position of ions in fractional coordinates (direct lattice) 
   0.00000000  0.00000000  0.00000000
   0.33333333  0.66666667  0.50000000
 
 position of ions in cartesian coordinates  (Angst):
   0.00000000  0.00000000  0.00000000
   0.00000000  1.38558291  2.04815500
 


--------------------------------------------------------------------------------------------------------


 k-point   1 :   0.0000 0.0000 0.0000  plane waves:     233
 k-point   2 :   0.0909-0.0000 0.0000  plane waves:     227
 k-point   3 :   0.1818-0.0000 0.0000  plane waves:     224
 k-point   4 :   0.2727-0.0000 0.0000  plane waves:     220
 k-point   5 :   0.3636-0.0000 0.0000  plane waves:     222
 k-point   6 :   0.4545-0.0000 0.0000  plane waves:     218
 k-point   7 :   0.0909 0.0909 0.0000  plane waves:     221
 k-point   8 :   0.1818 0.0909 0.0000  plane waves:     222
 k-point   9 :   0.2727 0.0909 0.0000  plane waves:     217
 k-point  10 :   0.3636 0.0909 0.0000  plane waves:     215
 k-point  11 :   0.4545 0.0909 0.0000  plane waves:     214
 k-point  12 :   0.1818 0.1818 0.0000  plane waves:     217
 k-point  13 :   0.2727 0.1818 0.0000  plane waves:     216
 k-point  14 :   0.3636 0.1818 0.0000  plane waves:     218
 k-point  15 :   0.2727 0.2727 0.0000  plane waves:     213
 k-point  16 :   0.3636 0.2727 0.0000  plane waves:     214
 k-point  17 :   0.0000 0.0000 0.0909  plane waves:     227
 k-point  18 :   0.0909-0.0000 0.0909  plane waves:     225
 k-point  19 :   0.1818-0.0000 0.0909  plane waves:     221
 k-point  20 :   0.2727-0.0000 0.0909  plane waves:     217
 k-point  21 :   0.3636-0.0000 0.0909  plane waves:     216
 k-point  22 :   0.4545-0.0000 0.0909  plane waves:     220
 k-point  23 :   0.0909 0.0909 0.0909  plane waves:     223
 k-point  24 :   0.1818 0.0909 0.0909  plane waves:     219
 k-point  25 :   0.2727 0.0909 0.0909  plane waves:     216
 k-point  26 :   0.3636 0.0909 0.0909  plane waves:     218
 k-point  27 :   0.4545 0.0909 0.0909  plane waves:     216
 k-point  28 :   0.1818 0.1818 0.0909  plane waves:     221
 k-point  29 :   0.2727 0.1818 0.0909  plane waves:     217
 k-point  30 :   0.3636 0.1818 0.0909  plane waves:     214
 k-point  31 :   0.2727 0.2727 0.0909  plane waves:     214
 k-point  32 :   0.3636 0.2727 0.0909  plane waves:     212
 k-point  33 :   0.0000 0.0000 0.1818  plane waves:     227
 k-point  34 :   0.0909-0.0000 0.1818  plane waves:     225
 k-point  35 :   0.1818-0.0000 0.1818  plane waves:     213
 k-point  36 :   0.2727-0.0000 0.1818  plane waves:     217
 k-point  37 :   0.3636-0.0000 0.1818  plane waves:     221
 k-point  38 :   0.4545-0.0000 0.1818  plane waves:     224
 k-point  39 :   0.0909 0.0909 0.1818  plane waves:     222
 k-point  40 :   0.1818 0.0909 0.1818  plane waves:     215
 k-point  41 :   0.2727 0.0909 0.1818  plane waves:     217
 k-point  42 :   0.3636 0.0909 0.1818  plane waves:     221
 k-point  43 :   0.4545 0.0909 0.1818  plane waves:     217
 k-point  44 :   0.1818 0.1818 0.1818  plane waves:     219
 k-point  45 :   0.2727 0.1818 0.1818  plane waves:     217
 k-point  46 :   0.3636 0.1818 0.1818  plane waves:     216
 k-point  47 :   0.2727 0.2727 0.1818  plane waves:     216
 k-point  48 :   0.3636 0.2727 0.1818  plane waves:     211
 k-point  49 :   0.0000 0.0000 0.2727  plane waves:     221
 k-point  50 :   0.0909-0.0000 0.2727  plane waves:     222
 k-point  51 :   0.1818-0.0000 0.2727  plane waves:     219
 k-point  52 :   0.2727-0.0000 0.2727  plane waves:     215
 k-point  53 :   0.3636-0.0000 0.2727  plane waves:     215
 k-point  54 :   0.4545-0.0000 0.2727  plane waves:     220
 k-point  55 :   0.0909 0.0909 0.2727  plane waves:     216
 k-point  56 :   0.1818 0.0909 0.2727  plane waves:     217
 k-point  57 :   0.2727 0.0909 0.2727  plane waves:     216
 k-point  58 :   0.3636 0.0909 0.2727  plane waves:     219
 k-point  59 :   0.4545 0.0909 0.2727  plane waves:     216
 k-point  60 :   0.1818 0.1818 0.2727  plane waves:     217
 k-point  61 :   0.2727 0.1818 0.2727  plane waves:     217
 k-point  62 :   0.3636 0.1818 0.2727  plane waves:     219
 k-point  63 :   0.2727 0.2727 0.2727  plane waves:     214
 k-point  64 :   0.3636 0.2727 0.2727  plane waves:     217
 k-point  65 :   0.0000 0.0000 0.3636  plane waves:     221
 k-point  66 :   0.0909-0.0000 0.3636  plane waves:     217
 k-point  67 :   0.1818-0.0000 0.3636  plane waves:     217
 k-point  68 :   0.2727-0.0000 0.3636  plane waves:     216
 k-point  69 :   0.3636-0.0000 0.3636  plane waves:     213
 k-point  70 :   0.4545-0.0000 0.3636  plane waves:     217
 k-point  71 :   0.0909 0.0909 0.3636  plane waves:     217
 k-point  72 :   0.1818 0.0909 0.3636  plane waves:     213
 k-point  73 :   0.2727 0.0909 0.3636  plane waves:     216
 k-point  74 :   0.3636 0.0909 0.3636  plane waves:     217
 k-point  75 :   0.4545 0.0909 0.3636  plane waves:     220
 k-point  76 :   0.1818 0.1818 0.3636  plane waves:     215
 k-point  77 :   0.2727 0.1818 0.3636  plane waves:     217
 k-point  78 :   0.3636 0.1818 0.3636  plane waves:     219
 k-point  79 :   0.2727 0.2727 0.3636  plane waves:     216
 k-point  80 :   0.3636 0.2727 0.3636  plane waves:     221
 k-point  81 :   0.0000 0.0000 0.4545  plane waves:     216
 k-point  82 :   0.0909-0.0000 0.4545  plane waves:     216
 k-point  83 :   0.1818-0.0000 0.4545  plane waves:     222
 k-point  84 :   0.2727-0.0000 0.4545  plane waves:     213
 k-point  85 :   0.3636-0.0000 0.4545  plane waves:     211
 k-point  86 :   0.4545-0.0000 0.4545  plane waves:     215
 k-point  87 :   0.0909 0.0909 0.4545  plane waves:     218
 k-point  88 :   0.1818 0.0909 0.4545  plane waves:     215
 k-point  89 :   0.2727 0.0909 0.4545  plane waves:     215
 k-point  90 :   0.3636 0.0909 0.4545  plane waves:     215
 k-point  91 :   0.4545 0.0909 0.4545  plane waves:     218
 k-point  92 :   0.1818 0.1818 0.4545  plane waves:     212
 k-point  93 :   0.2727 0.1818 0.4545  plane waves:     216
 k-point  94 :   0.3636 0.1818 0.4545  plane waves:     219
 k-point  95 :   0.2727 0.2727 0.4545  plane waves:     218
 k-point  96 :   0.3636 0.2727 0.4545  plane waves:     220

 maximum number of plane-waves:       233
 maximum index in each direction: 
   IXMAX=    3   IYMAX=    3   IZMAX=    5
   IXMIN=   -3   IYMIN=   -3   IZMIN=   -6


 total amount of memory used by VASP MPI-rank0    50598. kBytes
=======================================================================

   base      :      30000. kBytes
   nonl-proj :       3228. kBytes
   grid      :        812. kBytes
   one-center:         31. kBytes
   wavefun   :      16527. kBytes
 
     INWAV:  cpu time    0.0000: real time    0.0000
 Broyden mixing: mesh for mixing (old mesh)
   NGX =  7   NGY =  7   NGZ = 11
  (NGX  = 20   NGY  = 20   NGZ  = 36)
  gives a total of    539 points

 initial charge density was supplied:
 charge density of overlapping atoms calculated
 number of electron      16.0000000 magnetization 
 keeping initial charge density in first step


--------------------------------------------------------------------------------------------------------


 Maximum index for augmentation-charges         3048 (set IRDMAX)


--------------------------------------------------------------------------------------------------------


 First call to EWALD:  gamma=   0.648
 Maximum number of real-space cells 3x 3x 2
 Maximum number of reciprocal cells 2x 2x 4

    FEWALD:  cpu time    0.0008: real time    0.0008


--------------------------------------- Iteration      1(   1)  ---------------------------------------


    POTLOK:  cpu time    0.0036: real time    0.0036
    SETDIJ:  cpu time    0.0021: real time    0.0021
     EDDAV:  cpu time    0.7965: real time    0.8178
       DOS:  cpu time    0.0056: real time    0.0056
    --------------------------------------------
      LOOP:  cpu time    0.8078: real time    0.8292

 eigenvalue-minimisations  :  9176
 total energy-change (2. order) : 0.6028291E+02  (-0.2638061E+03)
 number of electron      16.0000000 magnetization 
 augmentation part       16.0000000 magnetization 

 Free energy of the ion-electron system (eV)
  ---------------------------------------------------
  alpha Z        PSCENC =       135.30532026
  Ewald energy   TEWEN  =     -1226.35163095
  -Hartree energ DENC   =      -207.44754683
  -exchange      EXHF   =         0.00000000
  -V(xc)+E(xc)   XCENC  =         8.47164832
  PAW double counting   =      1109.69170683    -1125.09647265
  entropy T*S    EENTRO =        -0.00335676
  eigenvalues    EBANDS =       177.13833248
  atomic energy  EATOM  =      1188.57490811
  Solvation  Ediel_sol  =         0.00000000
  ---------------------------------------------------
  free energy    TOTEN  =        60.28290881 eV

  energy without entropy =       60.28626557  energy(sigma->0) =       60.28402773


--------------------------------------------------------------------------------------------------------




--------------------------------------- Iteration      1(   2)  ---------------------------------------


     EDDAV:  cpu time    0.7053: real time    0.7054
       DOS:  cpu time    0.0063: real time    0.0063
    --------------------------------------------
      LOOP:  cpu time    0.7116: real time    0.7117

 eigenvalue-minimisations  :  7928
 total energy-change (2. order) :-0.7528110E+02  (-0.6393780E+02)
 number of electron      16.0000000 magnetization 
 augmentation part       16.0000000 magnetization 

 Free energy of the ion-electron system (eV)
  ---------------------------------------------------
  alpha Z        PSCENC =       135.30532026
  Ewald energy   TEWEN  =     -1226.35163095
  -Hartree energ DENC   =      -207.44754683
  -exchange      EXHF   =         0.00000000
  -V(xc)+E(xc)   XCENC  =         8.47164832
  PAW double counting   =      1109.69170683    -1125.09647265
  entropy T*S    EENTRO =         0.00331545
  eigenvalues    EBANDS =       101.85055906
  atomic energy  EATOM  =      1188.57490811
  Solvation  Ediel_sol  =         0.00000000
  ---------------------------------------------------
  free energy    TOTEN  =       -14.99819240 eV

  energy without entropy =      -15.00150785  energy(sigma->0) =      -14.99929755


--------------------------------------------------------------------------------------------------------




--------------------------------------- Iteration      1(   3)  ---------------------------------------


     EDDAV:  cpu time    0.8116: real time    0.8117
       DOS:  cpu time    0.0061: real time    0.0061
    --------------------------------------------
      LOOP:  cpu time    0.8177: real time    0.8177

 eigenvalue-minimisations  :  9552
 total energy-change (2. order) :-0.4341752E+01  (-0.4140051E+01)
 number of electron      16.0000000 magnetization 
 augmentation part       16.0000000 magnetization 

 Free energy of the ion-electron system (eV)
  ---------------------------------------------------
  alpha Z        PSCENC =       135.30532026
  Ewald energy   TEWEN  =     -1226.35163095
  -Hartree energ DENC   =      -207.44754683
  -exchange      EXHF   =         0.00000000
  -V(xc)+E(xc)   XCENC  =         8.47164832
  PAW double counting   =      1109.69170683    -1125.09647265
  entropy T*S    EENTRO =        -0.00081015
  eigenvalues    EBANDS =        97.51293299
  atomic energy  EATOM  =      1188.57490811
  Solvation  Ediel_sol  =         0.00000000
  ---------------------------------------------------
  free energy    TOTEN  =       -19.33994407 eV

  energy without entropy =      -19.33913392  energy(sigma->0) =      -19.33967402


--------------------------------------------------------------------------------------------------------




--------------------------------------- Iteration      1(   4)  ---------------------------------------


     EDDAV:  cpu time    0.7799: real time    0.7799
       DOS:  cpu time    0.0064: real time    0.0064
    --------------------------------------------
      LOOP:  cpu time    0.7862: real time    0.7863

 eigenvalue-minimisations  :  9152
 total energy-change (2. order) :-0.1912333E-01  (-0.1911209E-01)
 number of electron      16.0000000 magnetization 
 augmentation part       16.0000000 magnetization 

 Free energy of the ion-electron system (eV)
  ---------------------------------------------------
  alpha Z        PSCENC =       135.30532026
  Ewald energy   TEWEN  =     -1226.35163095
  -Hartree energ DENC   =      -207.44754683
  -exchange      EXHF   =         0.00000000
  -V(xc)+E(xc)   XCENC  =         8.47164832
  PAW double counting   =      1109.69170683    -1125.09647265
  entropy T*S    EENTRO =        -0.00082570
  eigenvalues    EBANDS =        97.49382522
  atomic energy  EATOM  =      1188.57490811
  Solvation  Ediel_sol  =         0.00000000
  ---------------------------------------------------
  free energy    TOTEN  =       -19.35906740 eV

  energy without entropy =      -19.35824169  energy(sigma->0) =      -19.35879216


--------------------------------------------------------------------------------------------------------




--------------------------------------- Iteration      1(   5)  ---------------------------------------


     EDDAV:  cpu time    0.7843: real time    0.7843
       DOS:  cpu time    0.0065: real time    0.0065
    CHARGE:  cpu time    0.0203: real time    0.0203
    MIXING:  cpu time    0.0002: real time    0.0002
    --------------------------------------------
      LOOP:  cpu time    0.8112: real time    0.8112

 eigenvalue-minimisations  :  9176
 total energy-change (2. order) :-0.2352949E-04  (-0.2352910E-04)
 number of electron      15.9999899 magnetization 
 augmentation part        7.0645680 magnetization 

 Broyden mixing:
  rms(total) = 0.16938E+01    rms(broyden)= 0.16938E+01
  rms(prec ) = 0.29544E+01
  weight for this iteration     100.00

 Free energy of the ion-electron system (eV)
  ---------------------------------------------------
  alpha Z        PSCENC =       135.30532026
  Ewald energy   TEWEN  =     -1226.35163095
  -Hartree energ DENC   =      -207.44754683
  -exchange      EXHF   =         0.00000000
  -V(xc)+E(xc)   XCENC  =         8.47164832
  PAW double counting   =      1109.69170683    -1125.09647265
  entropy T*S    EENTRO =        -0.00082577
  eigenvalues    EBANDS =        97.49380176
  atomic energy  EATOM  =      1188.57490811
  Solvation  Ediel_sol  =         0.00000000
  ---------------------------------------------------
  free energy    TOTEN  =       -19.35909093 eV

  energy without entropy =      -19.35826515  energy(sigma->0) =      -19.35881567


--------------------------------------------------------------------------------------------------------




--------------------------------------- Iteration      1(   6)  ---------------------------------------


    POTLOK:  cpu time    0.0034: real time    0.0034
    SETDIJ:  cpu time    0.0021: real time    0.0021
     EDDAV:  cpu time    0.9206: real time    0.9207
       DOS:  cpu time    0.0067: real time    0.0067
    CHARGE:  cpu time    0.0194: real time    0.0194
    MIXING:  cpu time    0.0002: real time    0.0002
    --------------------------------------------
      LOOP:  cpu time    0.9525: real time    0.9525

 eigenvalue-minimisations  : 11104
 total energy-change (2. order) : 0.2909180E+01  (-0.1798917E+00)
 number of electron      15.9999874 magnetization 
 augmentation part        8.4898401 magnetization 

 Broyden mixing:
  rms(total) = 0.25096E+00    rms(broyden)= 0.25087E+00
  rms(prec ) = 0.44353E+00
  weight for this iteration     100.00

 eigenvalues of (default mixing * dielectric matrix)
  average eigenvalue GAMMA=   0.9161
  0.9161

 Free energy of the ion-electron system (eV)
  ---------------------------------------------------
  alpha Z        PSCENC =       135.30532026
  Ewald energy   TEWEN  =     -1226.35163095
  -Hartree energ DENC   =      -172.69758023
  -exchange      EXHF   =         0.00000000
  -V(xc)+E(xc)   XCENC  =         6.77398778
  PAW double counting   =      1252.45105696    -1263.31398860
  entropy T*S    EENTRO =         0.00142842
  eigenvalues    EBANDS =        62.80658697
  atomic energy  EATOM  =      1188.57490811
  Solvation  Ediel_sol  =         0.00000000
  ---------------------------------------------------
  free energy    TOTEN  =       -16.44991127 eV

  energy without entropy =      -16.45133969  energy(sigma->0) =      -16.45038741


--------------------------------------------------------------------------------------------------------




--------------------------------------- Iteration      1(   7)  ---------------------------------------


    POTLOK:  cpu time    0.0034: real time    0.0034
    SETDIJ:  cpu time    0.0021: real time    0.0021
     EDDAV:  cpu time    0.8489: real time    0.8490
       DOS:  cpu time    0.0068: real time    0.0068
    CHARGE:  cpu time    0.0195: real time    0.0195
    MIXING:  cpu time    0.0002: real time    0.0002
    --------------------------------------------
      LOOP:  cpu time    0.8809: real time    0.8810

 eigenvalue-minimisations  : 10176
 total energy-change (2. order) : 0.2044746E+00  (-0.1290434E-01)
 number of electron      15.9999880 magnetization 
 augmentation part        8.1785095 magnetization 

 Broyden mixing:
  rms(total) = 0.10211E+00    rms(broyden)= 0.10211E+00
  rms(prec ) = 0.20308E+00
  weight for this iteration     100.00

 eigenvalues of (default mixing * dielectric matrix)
  average eigenvalue GAMMA=   0.9544
  1.1737  0.7351

 Free energy of the ion-electron system (eV)
  ---------------------------------------------------
  alpha Z        PSCENC =       135.30532026
  Ewald energy   TEWEN  =     -1226.35163095
  -Hartree energ DENC   =      -177.08716732
  -exchange      EXHF   =         0.00000000
  -V(xc)+E(xc)   XCENC  =         7.01961437
  PAW double counting   =      1328.74341298    -1343.18120205
  entropy T*S    EENTRO =         0.00131883
  eigenvalues    EBANDS =        70.72998909
  atomic energy  EATOM  =      1188.57490811
  Solvation  Ediel_sol  =         0.00000000
  ---------------------------------------------------
  free energy    TOTEN  =       -16.24543667 eV

  energy without entropy =      -16.24675550  energy(sigma->0) =      -16.24587628


--------------------------------------------------------------------------------------------------------




--------------------------------------- Iteration      1(   8)  ---------------------------------------


    POTLOK:  cpu time    0.0034: real time    0.0034
    SETDIJ:  cpu time    0.0022: real time    0.0022
     EDDAV:  cpu time    0.8312: real time    0.8312
       DOS:  cpu time    0.0068: real time    0.0068
    CHARGE:  cpu time    0.0194: real time    0.0194
    MIXING:  cpu time    0.0002: real time    0.0002
    --------------------------------------------
      LOOP:  cpu time    0.8632: real time    0.8632

 eigenvalue-minimisations  :  9984
 total energy-change (2. order) : 0.2605571E-01  (-0.3465100E-03)
 number of electron      15.9999879 magnetization 
 augmentation part        8.2073130 magnetization 

 Broyden mixing:
  rms(total) = 0.48735E-01    rms(broyden)= 0.48734E-01
  rms(prec ) = 0.95650E-01
  weight for this iteration     100.00

 eigenvalues of (default mixing * dielectric matrix)
  average eigenvalue GAMMA=   1.4555
  0.7860  1.0411  2.5392

 Free energy of the ion-electron system (eV)
  ---------------------------------------------------
  alpha Z        PSCENC =       135.30532026
  Ewald energy   TEWEN  =     -1226.35163095
  -Hartree energ DENC   =      -175.08614135
  -exchange      EXHF   =         0.00000000
  -V(xc)+E(xc)   XCENC  =         6.94035350
  PAW double counting   =      1386.41388504    -1402.12904432
  entropy T*S    EENTRO =         0.00137124
  eigenvalues    EBANDS =        70.11159750
  atomic energy  EATOM  =      1188.57490811
  Solvation  Ediel_sol  =         0.00000000
  ---------------------------------------------------
  free energy    TOTEN  =       -16.21938096 eV

  energy without entropy =      -16.22075220  energy(sigma->0) =      -16.21983804


--------------------------------------------------------------------------------------------------------




--------------------------------------- Iteration      1(   9)  ---------------------------------------


    POTLOK:  cpu time    0.0034: real time    0.0034
    SETDIJ:  cpu time    0.0021: real time    0.0021
     EDDAV:  cpu time    0.9156: real time    0.9157
       DOS:  cpu time    0.0065: real time    0.0065
    CHARGE:  cpu time    0.0198: real time    0.0198
    MIXING:  cpu time    0.0002: real time    0.0002
    --------------------------------------------
      LOOP:  cpu time    0.9476: real time    0.9477

 eigenvalue-minimisations  : 11160
 total energy-change (2. order) : 0.1137930E-01  (-0.9421422E-04)
 number of electron      15.9999879 magnetization 
 augmentation part        8.2237363 magnetization 

 Broyden mixing:
  rms(total) = 0.59821E-02    rms(broyden)= 0.59805E-02
  rms(prec ) = 0.66224E-02
  weight for this iteration     100.00

 eigenvalues of (default mixing * dielectric matrix)
  average eigenvalue GAMMA=   1.5581
  2.5722  0.7853  1.0035  1.8714

 Free energy of the ion-electron system (eV)
  ---------------------------------------------------
  alpha Z        PSCENC =       135.30532026
  Ewald energy   TEWEN  =     -1226.35163095
  -Hartree energ DENC   =      -172.93151361
  -exchange      EXHF   =         0.00000000
  -V(xc)+E(xc)   XCENC  =         6.86165441
  PAW double counting   =      1467.39000511    -1484.88995818
  entropy T*S    EENTRO =         0.00137410
  eigenvalues    EBANDS =        69.83183907
  atomic energy  EATOM  =      1188.57490811
  Solvation  Ediel_sol  =         0.00000000
  ---------------------------------------------------
  free energy    TOTEN  =       -16.20800167 eV

  energy without entropy =      -16.20937577  energy(sigma->0) =      -16.20845970


--------------------------------------------------------------------------------------------------------




--------------------------------------- Iteration      1(  10)  ---------------------------------------


    POTLOK:  cpu time    0.0034: real time    0.0034
    SETDIJ:  cpu time    0.0021: real time    0.0021
     EDDAV:  cpu time    0.7471: real time    0.7471
       DOS:  cpu time    0.0067: real time    0.0067
    CHARGE:  cpu time    0.0197: real time    0.0197
    MIXING:  cpu time    0.0002: real time    0.0002
    --------------------------------------------
      LOOP:  cpu time    0.7792: real time    0.7792

 eigenvalue-minimisations  :  8792
 total energy-change (2. order) :-0.2427324E-04  (-0.3826327E-05)
 number of electron      15.9999879 magnetization 
 augmentation part        8.2239213 magnetization 

 Broyden mixing:
  rms(total) = 0.23544E-02    rms(broyden)= 0.23538E-02
  rms(prec ) = 0.30220E-02
  weight for this iteration     100.00

 eigenvalues of (default mixing * dielectric matrix)
  average eigenvalue GAMMA=   1.6164
  2.5532  2.5532  0.7853  1.0075  1.1827

 Free energy of the ion-electron system (eV)
  ---------------------------------------------------
  alpha Z        PSCENC =       135.30532026
  Ewald energy   TEWEN  =     -1226.35163095
  -Hartree energ DENC   =      -172.96563479
  -exchange      EXHF   =         0.00000000
  -V(xc)+E(xc)   XCENC  =         6.86408702
  PAW double counting   =      1469.18556064    -1486.64274584
  entropy T*S    EENTRO =         0.00136920
  eigenvalues    EBANDS =        69.82074040
  atomic energy  EATOM  =      1188.57490811
  Solvation  Ediel_sol  =         0.00000000
  ---------------------------------------------------
  free energy    TOTEN  =       -16.20802594 eV

  energy without entropy =      -16.20939514  energy(sigma->0) =      -16.20848234


--------------------------------------------------------------------------------------------------------




--------------------------------------- Iteration      1(  11)  ---------------------------------------


    POTLOK:  cpu time    0.0034: real time    0.0034
    SETDIJ:  cpu time    0.0021: real time    0.0021
     EDDAV:  cpu time    0.7510: real time    0.7511
       DOS:  cpu time    0.0067: real time    0.0067
    CHARGE:  cpu time    0.0214: real time    0.0214
    MIXING:  cpu time    0.0002: real time    0.0002
    --------------------------------------------
      LOOP:  cpu time    0.7847: real time    0.7848

 eigenvalue-minimisations  :  8672
 total energy-change (2. order) : 0.7010823E-05  (-0.2531008E-07)
 number of electron      15.9999879 magnetization 
 augmentation part        8.2236378 magnetization 

 Broyden mixing:
  rms(total) = 0.15680E-03    rms(broyden)= 0.15658E-03
  rms(prec ) = 0.19082E-03
  weight for this iteration     100.00

 eigenvalues of (default mixing * dielectric matrix)
  average eigenvalue GAMMA=   1.5491
  2.5710  2.5710  0.7851  1.0060  1.0060  1.3558

 Free energy of the ion-electron system (eV)
  ---------------------------------------------------
  alpha Z        PSCENC =       135.30532026
  Ewald energy   TEWEN  =     -1226.35163095
  -Hartree energ DENC   =      -173.02153924
  -exchange      EXHF   =         0.00000000
  -V(xc)+E(xc)   XCENC  =         6.86680923
  PAW double counting   =      1469.05190210    -1486.45717040
  entropy T*S    EENTRO =         0.00136902
  eigenvalues    EBANDS =        69.82201293
  atomic energy  EATOM  =      1188.57490811
  Solvation  Ediel_sol  =         0.00000000
  ---------------------------------------------------
  free energy    TOTEN  =       -16.20801893 eV

  energy without entropy =      -16.20938795  energy(sigma->0) =      -16.20847527


--------------------------------------------------------------------------------------------------------




--------------------------------------- Iteration      1(  12)  ---------------------------------------


    POTLOK:  cpu time    0.0034: real time    0.0034
    SETDIJ:  cpu time    0.0021: real time    0.0021
     EDDAV:  cpu time    0.5786: real time    0.5786
       DOS:  cpu time    0.0066: real time    0.0066
    --------------------------------------------
      LOOP:  cpu time    0.5906: real time    0.5906

 eigenvalue-minimisations  :  5864
 total energy-change (2. order) : 0.2217805E-06  (-0.5259556E-08)
 number of electron      15.9999879 magnetization 
 augmentation part        8.2236378 magnetization 

 Free energy of the ion-electron system (eV)
  ---------------------------------------------------
  alpha Z        PSCENC =       135.30532026
  Ewald energy   TEWEN  =     -1226.35163095
  -Hartree energ DENC   =      -173.02324886
  -exchange      EXHF   =         0.00000000
  -V(xc)+E(xc)   XCENC  =         6.86690738
  PAW double counting   =      1469.16667378    -1486.56978793
  entropy T*S    EENTRO =         0.00136935
  eigenvalues    EBANDS =        69.82147014
  atomic energy  EATOM  =      1188.57490811
  Solvation  Ediel_sol  =         0.00000000
  ---------------------------------------------------
  free energy    TOTEN  =       -16.20801871 eV

  energy without entropy =      -16.20938806  energy(sigma->0) =      -16.20847516


--------------------------------------------------------------------------------------------------------




 average (electrostatic) potential at core
  the test charge radii are     1.0103
  (the norm of the test charge is              1.0000)
       1 -42.6705       2 -42.6704
 
 
 
 E-fermi :   6.8428     XC(G=0): -13.7784     alpha+bet :-15.1728

 Fermi energy:         6.8428345003

 k-point     1 :       0.0000    0.0000    0.0000
  band No.  band energies     occupation 
      1      -2.0222      2.00000
      2       1.9100      2.00000
      3       4.8688      2.00000
      4       5.2815      2.00000
      5       5.2816      2.00000
      6       5.6284      2.00000
      7       5.6286      2.00000
      8       6.3953      2.00689
      9       6.3954      2.00690
     10       6.4989      2.03538
     11       7.5861     -0.00000
     12       7.5861     -0.00000
     13      14.5370      0.00000
     14      29.8117      0.00000
     15      31.2600      0.00000
     16      32.9725      0.00000
     17      34.6761      0.00000
     18      34.6762      0.00000
     19      35.5194      0.00000
     20      35.5196      0.00000
     21      37.9425      0.00000
     22      38.7478      0.00000
     23      38.7478      0.00000
     24      39.8340      0.00000
     25      42.4105      0.00000
     26      42.4106      0.00000
     27      43.5248      0.00000
     28      45.8824      0.00000
     29      45.8828      0.00000
     30      47.7037      0.00000
     31      47.7038      0.00000
     32      50.6276      0.00000
     33      58.8060      0.00000
     34      61.6393      0.00000
     35      61.6408      0.00000
     36      62.0881      0.00000
     37      63.0119      0.00000
     38      63.8557      0.00000
     39      63.8569      0.00000
     40      65.1497      0.00000

 k-point     2 :       0.0909   -0.0000    0.0000
  band No.  band energies     occupation 
      1      -1.7001      2.00000
      2       2.1407      2.00000
      3       4.7939      2.00000
      4       5.3018      2.00000
      5       5.4660      2.00000
      6       5.5150      2.00000
      7       5.5283      2.00000
      8       5.7972      2.00000
      9       6.2832      2.00055
     10       6.2876      2.00062
     11       7.6231     -0.00000
     12       8.8148     -0.00000
     13      14.5596      0.00000
     14      28.4790      0.00000
     15      31.0879      0.00000
     16      31.5225      0.00000
     17      31.9777      0.00000
     18      34.5870      0.00000
     19      34.8839      0.00000
     20      37.6895      0.00000
     21      38.2057      0.00000
     22      38.4063      0.00000
     23      39.1837      0.00000
     24      39.3973      0.00000
     25      43.3456      0.00000
     26      43.5350      0.00000
     27      43.6021      0.00000
     28      43.9307      0.00000
     29      47.4942      0.00000
     30      49.2203      0.00000
     31      50.1647      0.00000
     32      52.4794      0.00000
     33      58.1632      0.00000
     34      60.4380      0.00000
     35      60.7318      0.00000
     36      61.0517      0.00000
     37      61.6457      0.00000
     38      64.7988      0.00000
     39      65.0312      0.00000
     40      65.7996      0.00000

 k-point     3 :       0.1818   -0.0000    0.0000
  band No.  band energies     occupation 
      1      -0.7860      2.00000
      2       2.6862      2.00000
      3       4.4050      2.00000
      4       4.5009      2.00000
      5       5.1608      2.00000
      6       5.7269      2.00000
      7       5.9809      2.00000
      8       5.9925      2.00000
      9       6.0185      2.00000
     10       6.2652      2.00034
     11       7.6926     -0.00000
     12      10.6765     -0.00000
     13      14.6553      0.00000
     14      24.7229      0.00000
     15      29.2002      0.00000
     16      29.8960      0.00000
     17      30.6124      0.00000
     18      32.1981      0.00000
     19      35.2629      0.00000
     20      36.8320      0.00000
     21      37.3572      0.00000
     22      37.3719      0.00000
     23      39.6680      0.00000
     24      40.9686      0.00000
     25      43.0168      0.00000
     26      44.3126      0.00000
     27      46.0774      0.00000
     28      48.3405      0.00000
     29      50.2105      0.00000
     30      52.7929      0.00000
     31      53.0989      0.00000
     32      55.9869      0.00000
     33      56.6635      0.00000
     34      57.6249      0.00000
     35      58.7232      0.00000
     36      60.4743      0.00000
     37      61.5993      0.00000
     38      64.7799      0.00000
     39      65.9134      0.00000
     40      67.3076      0.00000

 k-point     4 :       0.2727   -0.0000    0.0000
  band No.  band energies     occupation 
      1       0.5257      2.00000
      2       2.9779      2.00000
      3       3.5544      2.00000
      4       4.3846      2.00000
      5       5.0072      2.00000
      6       5.6194      2.00000
      7       5.7182      2.00000
      8       6.4371      2.01455
      9       6.7132      1.88080
     10       6.9197      0.39955
     11       7.7424     -0.00000
     12      12.7556      0.00000
     13      14.8595      0.00000
     14      20.8030      0.00000
     15      26.8262      0.00000
     16      27.0375      0.00000
     17      28.3531      0.00000
     18      31.7059      0.00000
     19      33.3560      0.00000
     20      36.7398      0.00000
     21      37.3892      0.00000
     22      37.5886      0.00000
     23      37.5935      0.00000
     24      41.6046      0.00000
     25      46.5319      0.00000
     26      48.3895      0.00000
     27      49.4627      0.00000
     28      51.1380      0.00000
     29      52.4992      0.00000
     30      53.4865      0.00000
     31      54.8669      0.00000
     32      56.0443      0.00000
     33      58.1746      0.00000
     34      58.9130      0.00000
     35      59.0649      0.00000
     36      60.1559      0.00000
     37      62.5059      0.00000
     38      64.4398      0.00000
     39      66.2680      0.00000
     40      66.4860      0.00000

 k-point     5 :       0.3636   -0.0000    0.0000
  band No.  band energies     occupation 
      1       1.7509      2.00000
      2       2.7477      2.00000
      3       2.9886      2.00000
      4       4.5713      2.00000
      5       5.2866      2.00000
      6       5.3093      2.00000
      7       5.4694      2.00000
      8       7.4444     -0.00018
      9       7.5792     -0.00000
     10       7.5797     -0.00000
     11       7.7646     -0.00000
     12      14.5990      0.00000
     13      14.9724      0.00000
     14      18.1158      0.00000
     15      23.8419      0.00000
     16      25.0103      0.00000
     17      25.6614      0.00000
     18      30.7133      0.00000
     19      32.1784      0.00000
     20      35.4197      0.00000
     21      36.3349      0.00000
     22      38.4668      0.00000
     23      39.6908      0.00000
     24      42.1567      0.00000
     25      49.7912      0.00000
     26      50.2058      0.00000
     27      50.2679      0.00000
     28      53.5061      0.00000
     29      53.7448      0.00000
     30      54.7924      0.00000
     31      56.9362      0.00000
     32      57.6404      0.00000
     33      58.0976      0.00000
     34      59.4316      0.00000
     35      61.1630      0.00000
     36      62.9492      0.00000
     37      63.9324      0.00000
     38      64.8874      0.00000
     39      65.8078      0.00000
     40      66.2198      0.00000

 k-point     6 :       0.4545   -0.0000    0.0000
  band No.  band energies     occupation 
      1       2.3021      2.00000
      2       2.5131      2.00000
      3       2.7079      2.00000
      4       5.0435      2.00000
      5       5.0930      2.00000
      6       5.3309      2.00000
      7       5.5450      2.00000
      8       7.7717     -0.00000
      9       7.8918     -0.00000
     10       8.0291     -0.00000
     11       9.1732     -0.00000
     12      12.5422      0.00000
     13      17.0688      0.00000
     14      18.2969      0.00000
     15      21.2836      0.00000
     16      23.0898      0.00000
     17      23.9978      0.00000
     18      30.0783      0.00000
     19      31.8265      0.00000
     20      34.3338      0.00000
     21      36.1502      0.00000
     22      39.1614      0.00000
     23      41.8714      0.00000
     24      42.4835      0.00000
     25      46.4415      0.00000
     26      50.8799      0.00000
     27      52.2967      0.00000
     28      55.8027      0.00000
     29      56.6453      0.00000
     30      57.0442      0.00000
     31      57.9019      0.00000
     32      59.5418      0.00000
     33      59.7062      0.00000
     34      61.4721      0.00000
     35      61.4793      0.00000
     36      62.3292      0.00000
     37      64.4452      0.00000
     38      64.9913      0.00000
     39      64.9957      0.00000
     40      65.7979      0.00000

 k-point     7 :       0.0909    0.0909    0.0000
  band No.  band energies     occupation 
      1      -1.0798      2.00000
      2       2.5444      2.00000
      3       4.5564      2.00000
      4       4.6965      2.00000
      5       5.3313      2.00000
      6       5.4513      2.00000
      7       5.8425      2.00000
      8       5.9013      2.00000
      9       6.1642      2.00002
     10       6.2798      2.00051
     11       7.6522     -0.00000
     12      10.1600     -0.00000
     13      14.6231      0.00000
     14      26.4433      0.00000
     15      27.6472      0.00000
     16      31.7503      0.00000
     17      32.1730      0.00000
     18      33.1654      0.00000
     19      33.6511      0.00000
     20      35.7604      0.00000
     21      37.1152      0.00000
     22      40.2408      0.00000
     23      40.9670      0.00000
     24      41.5220      0.00000
     25      42.4269      0.00000
     26      42.5294      0.00000
     27      42.5514      0.00000
     28      48.7867      0.00000
     29      50.9715      0.00000
     30      51.1091      0.00000
     31      51.1510      0.00000
     32      55.3004      0.00000
     33      57.2159      0.00000
     34      58.5598      0.00000
     35      59.0082      0.00000
     36      60.4579      0.00000
     37      61.2681      0.00000
     38      65.1499      0.00000
     39      65.9906      0.00000
     40      67.2593      0.00000

 k-point     8 :       0.1818    0.0909    0.0000
  band No.  band energies     occupation 
      1       0.0544      2.00000
      2       3.0667      2.00000
      3       3.8632      2.00000
      4       4.2109      2.00000
      5       5.0855      2.00000
      6       5.5138      2.00000
      7       5.8661      2.00000
      8       6.0486      2.00000
      9       6.5147      2.04238
     10       6.8401      1.02323
     11       7.6733     -0.00000
     12      12.0232     -0.00000
     13      14.8172      0.00000
     14      22.7931      0.00000
     15      25.3118      0.00000
     16      28.8097      0.00000
     17      31.0780      0.00000
     18      31.0952      0.00000
     19      34.1998      0.00000
     20      35.4984      0.00000
     21      35.6551      0.00000
     22      40.3412      0.00000
     23      40.4116      0.00000
     24      40.9370      0.00000
     25      44.1555      0.00000
     26      45.2317      0.00000
     27      46.8605      0.00000
     28      51.2800      0.00000
     29      53.2812      0.00000
     30      54.0064      0.00000
     31      54.5325      0.00000
     32      56.5113      0.00000
     33      57.3464      0.00000
     34      57.5228      0.00000
     35      58.8046      0.00000
     36      58.8842      0.00000
     37      61.8654      0.00000
     38      65.1947      0.00000
     39      66.1730      0.00000
     40      67.2471      0.00000

 k-point     9 :       0.2727    0.0909    0.0000
  band No.  band energies     occupation 
      1       1.4006      2.00000
      2       3.0498      2.00000
      3       3.2354      2.00000
      4       4.2410      2.00000
      5       5.1449      2.00000
      6       5.2152      2.00000
      7       5.7031      2.00000
      8       6.5686      2.06555
      9       7.2572     -0.01259
     10       7.6854     -0.00000
     11       7.7250     -0.00000
     12      14.1408      0.00000
     13      15.0907      0.00000
     14      19.2216      0.00000
     15      23.6324      0.00000
     16      25.5239      0.00000
     17      27.9057      0.00000
     18      29.8369      0.00000
     19      33.4876      0.00000
     20      34.4798      0.00000
     21      36.7909      0.00000
     22      40.1784      0.00000
     23      40.1912      0.00000
     24      42.5407      0.00000
     25      46.1307      0.00000
     26      48.9492      0.00000
     27      50.7355      0.00000
     28      51.8304      0.00000
     29      52.0463      0.00000
     30      55.1108      0.00000
     31      56.7615      0.00000
     32      57.2837      0.00000
     33      58.1490      0.00000
     34      58.8305      0.00000
     35      60.5785      0.00000
     36      62.3719      0.00000
     37      63.2853      0.00000
     38      64.8847      0.00000
     39      65.3988      0.00000
     40      67.2308      0.00000

 k-point    10 :       0.3636    0.0909    0.0000
  band No.  band energies     occupation 
      1       2.3163      2.00000
      2       2.7585      2.00000
      3       2.8570      2.00000
      4       4.6083      2.00000
      5       5.0647      2.00000
      6       5.3765      2.00000
      7       5.4670      2.00000
      8       7.4007     -0.00058
      9       7.6857     -0.00000
     10       7.7831     -0.00000
     11       8.8806     -0.00000
     12      13.9720      0.00000
     13      16.3694      0.00000
     14      18.0465      0.00000
     15      22.3468      0.00000
     16      22.6028      0.00000
     17      24.7654      0.00000
     18      28.9511      0.00000
     19      32.5228      0.00000
     20      33.9282      0.00000
     21      37.4983      0.00000
     22      40.6119      0.00000
     23      41.6524      0.00000
     24      42.6317      0.00000
     25      48.3652      0.00000
     26      48.9354      0.00000
     27      51.2527      0.00000
     28      52.8046      0.00000
     29      54.2281      0.00000
     30      56.8008      0.00000
     31      56.8207      0.00000
     32      58.6210      0.00000
     33      59.7836      0.00000
     34      61.8212      0.00000
     35      61.8861      0.00000
     36      63.2347      0.00000
     37      63.8250      0.00000
     38      64.9143      0.00000
     39      66.2162      0.00000
     40      66.2176      0.00000

 k-point    11 :       0.4545    0.0909    0.0000
  band No.  band energies     occupation 
      1       2.5277      2.00000
      2       2.6416      2.00000
      3       2.7312      2.00000
      4       4.9363      2.00000
      5       5.0520      2.00000
      6       5.2138      2.00000
      7       5.5912      2.00000
      8       7.6841     -0.00000
      9       7.8662     -0.00000
     10       7.8778     -0.00000
     11      10.0829     -0.00000
     12      12.1942     -0.00000
     13      17.8808      0.00000
     14      18.7421      0.00000
     15      20.8632      0.00000
     16      21.6302      0.00000
     17      23.2746      0.00000
     18      28.6377      0.00000
     19      32.1349      0.00000
[...]
     18      27.2468      0.00000
     19      32.0936      0.00000
     20      32.7869      0.00000
     21      36.0767      0.00000
     22      36.8694      0.00000
     23      41.5776      0.00000
     24      42.8129      0.00000
     25      48.4881      0.00000
     26      50.2644      0.00000
     27      51.8631      0.00000
     28      52.6071      0.00000
     29      56.2352      0.00000
     30      57.7281      0.00000
     31      58.7129      0.00000
     32      59.2627      0.00000
     33      61.3569      0.00000
     34      61.8096      0.00000
     35      62.3057      0.00000
     36      62.4490      0.00000
     37      64.2262      0.00000
     38      64.9394      0.00000
     39      65.8649      0.00000
     40      66.4840      0.00000

 k-point    91 :       0.4545    0.0909    0.4545
  band No.  band energies     occupation 
      1       2.1863      2.00000
      2       2.3373      2.00000
      3       3.5953      2.00000
      4       3.7145      2.00000
      5       5.7528      2.00000
      6       6.1689      2.00002
      7       6.7898      1.43171
      8       7.0801     -0.07044
      9       7.7726     -0.00000
     10       7.7812     -0.00000
     11      10.0177     -0.00000
     12      10.5144     -0.00000
     13      16.3281      0.00000
     14      16.3523      0.00000
     15      24.3840      0.00000
     16      25.2120      0.00000
     17      26.7725      0.00000
     18      27.2961      0.00000
     19      31.8578      0.00000
     20      32.0184      0.00000
     21      35.4426      0.00000
     22      35.7528      0.00000
     23      41.6911      0.00000
     24      42.9419      0.00000
     25      48.6481      0.00000
     26      50.4742      0.00000
     27      55.1822      0.00000
     28      55.8802      0.00000
     29      56.1681      0.00000
     30      56.8027      0.00000
     31      57.8580      0.00000
     32      58.8871      0.00000
     33      62.6489      0.00000
     34      62.6603      0.00000
     35      63.1970      0.00000
     36      64.0029      0.00000
     37      64.0910      0.00000
     38      64.1782      0.00000
     39      66.5909      0.00000
     40      66.7016      0.00000

 k-point    92 :       0.1818    0.1818    0.4545
  band No.  band energies     occupation 
      1       2.1790      2.00000
      2       2.4776      2.00000
      3       4.0866      2.00000
      4       4.1651      2.00000
      5       4.6211      2.00000
      6       4.6945      2.00000
      7       6.0868      2.00000
      8       6.3319      2.00181
      9       7.5858     -0.00000
     10       7.6753     -0.00000
     11       8.1645     -0.00000
     12       8.7292     -0.00000
     13      22.4208      0.00000
     14      22.7884      0.00000
     15      23.0527      0.00000
     16      24.0917      0.00000
     17      24.7023      0.00000
     18      26.2228      0.00000
     19      36.1416      0.00000
     20      37.1525      0.00000
     21      37.6690      0.00000
     22      38.6911      0.00000
     23      40.4099      0.00000
     24      40.4932      0.00000
     25      46.4216      0.00000
     26      46.8655      0.00000
     27      51.2303      0.00000
     28      51.5328      0.00000
     29      53.4561      0.00000
     30      54.9490      0.00000
     31      56.2377      0.00000
     32      56.7258      0.00000
     33      58.8089      0.00000
     34      58.8265      0.00000
     35      60.8097      0.00000
     36      61.1137      0.00000
     37      63.9860      0.00000
     38      64.9767      0.00000
     39      65.9268      0.00000
     40      66.2467      0.00000

 k-point    93 :       0.2727    0.1818    0.4545
  band No.  band energies     occupation 
      1       2.5721      2.00000
      2       2.6902      2.00000
      3       3.9344      2.00000
      4       4.1424      2.00000
      5       4.8661      2.00000
      6       5.0247      2.00000
      7       6.0447      2.00000
      8       6.2848      2.00057
      9       7.6858     -0.00000
     10       7.9125     -0.00000
     11       9.5788     -0.00000
     12      10.1288     -0.00000
     13      19.2636      0.00000
     14      19.8674      0.00000
     15      21.9644      0.00000
     16      22.7110      0.00000
     17      25.5486      0.00000
     18      27.3520      0.00000
     19      34.0668      0.00000
     20      35.5885      0.00000
     21      36.7269      0.00000
     22      38.1135      0.00000
     23      40.8267      0.00000
     24      41.2892      0.00000
     25      47.6342      0.00000
     26      48.1656      0.00000
     27      52.3552      0.00000
     28      54.0733      0.00000
     29      56.0006      0.00000
     30      57.7998      0.00000
     31      58.2979      0.00000
     32      59.0692      0.00000
     33      59.8997      0.00000
     34      60.0643      0.00000
     35      61.2836      0.00000
     36      61.4257      0.00000
     37      64.0195      0.00000
     38      65.2565      0.00000
     39      65.9238      0.00000
     40      66.1722      0.00000

 k-point    94 :       0.3636    0.1818    0.4545
  band No.  band energies     occupation 
      1       2.6229      2.00000
      2       2.7745      2.00000
      3       3.8290      2.00000
      4       4.0376      2.00000
      5       4.9757      2.00000
      6       5.3073      2.00000
      7       6.3695      2.00411
      8       6.4971      2.03462
      9       7.6469     -0.00000
     10       7.8067     -0.00000
     11      11.2341     -0.00000
     12      11.6773     -0.00000
     13      16.7364      0.00000
     14      17.1243      0.00000
     15      21.3453      0.00000
     16      22.1106      0.00000
     17      27.1405      0.00000
     18      28.2814      0.00000
     19      32.5595      0.00000
     20      33.6347      0.00000
     21      35.6783      0.00000
     22      37.1342      0.00000
     23      41.6162      0.00000
     24      41.9369      0.00000
     25      50.8848      0.00000
     26      51.5121      0.00000
     27      52.5898      0.00000
     28      54.2963      0.00000
     29      55.6423      0.00000
     30      56.2168      0.00000
     31      58.0478      0.00000
     32      59.5530      0.00000
     33      61.3537      0.00000
     34      61.6347      0.00000
     35      63.2560      0.00000
     36      63.4948      0.00000
     37      64.4721      0.00000
     38      64.7939      0.00000
     39      65.5079      0.00000
     40      66.2290      0.00000

 k-point    95 :       0.2727    0.2727    0.4545
  band No.  band energies     occupation 
      1       3.0135      2.00000
      2       3.0555      2.00000
      3       3.9981      2.00000
      4       4.2214      2.00000
      5       4.5740      2.00000
      6       4.7898      2.00000
      7       5.9970      2.00000
      8       6.2015      2.00006
      9       7.6594     -0.00000
     10       7.8318     -0.00000
     11      11.6481     -0.00000
     12      12.1874     -0.00000
     13      17.7723      0.00000
     14      18.2049      0.00000
     15      19.5797      0.00000
     16      19.9763      0.00000
     17      27.2851      0.00000
     18      28.9518      0.00000
     19      32.6446      0.00000
     20      34.0840      0.00000
     21      35.5603      0.00000
     22      36.6722      0.00000
     23      43.5417      0.00000
     24      43.9374      0.00000
     25      47.8573      0.00000
     26      47.9717      0.00000
     27      54.9892      0.00000
     28      55.7041      0.00000
     29      55.8330      0.00000
     30      57.3670      0.00000
     31      58.7762      0.00000
     32      59.0311      0.00000
     33      59.7027      0.00000
     34      60.1005      0.00000
     35      62.6032      0.00000
     36      63.2252      0.00000
     37      64.1907      0.00000
     38      64.3964      0.00000
     39      65.3225      0.00000
     40      65.9269      0.00000

 k-point    96 :       0.3636    0.2727    0.4545
  band No.  band energies     occupation 
      1       3.2083      2.00000
      2       3.3357      2.00000
      3       3.9133      2.00000
      4       3.9906      2.00000
      5       4.6106      2.00000
      6       4.7221      2.00000
      7       6.0705      2.00000
      8       6.2267      2.00012
      9       7.6281     -0.00000
     10       7.6923     -0.00000
     11      13.4324      0.00000
     12      13.5548      0.00000
     13      16.1451      0.00000
     14      16.4927      0.00000
     15      18.9385      0.00000
     16      19.3934      0.00000
     17      28.9373      0.00000
     18      29.7000      0.00000
     19      31.8065      0.00000
     20      32.1546      0.00000
     21      35.3154      0.00000
     22      36.1540      0.00000
     23      44.7259      0.00000
     24      45.3854      0.00000
     25      49.3317      0.00000
     26      49.7382      0.00000
     27      52.0856      0.00000
     28      52.4580      0.00000
     29      56.6607      0.00000
     30      58.2881      0.00000
     31      59.1445      0.00000
     32      60.1996      0.00000
     33      60.7318      0.00000
     34      60.9577      0.00000
     35      61.2974      0.00000
     36      62.4841      0.00000
     37      64.0909      0.00000
     38      65.4467      0.00000
     39      66.9443      0.00000
     40      67.0065      0.00000


--------------------------------------------------------------------------------------------------------


 soft charge-density along one line, spin component           1
         0         1         2         3         4         5         6         7         8         9
x     7.7764    0.0000    0.1163   -0.2015   -0.0621   -0.1076    0.0155    0.0000    0.0018   -0.0032
x     0.0000    0.0000
y     7.7764    0.0000    0.1163    0.2015   -0.0621    0.1076    0.0155   -0.0000    0.0018    0.0032
y     0.0000    0.0000
z     7.7764    0.0000    0.0000    0.0000    0.4192    0.0000    0.0000    0.0000   -0.1663   -0.0000
z     0.0000    0.0000    0.0193   -0.0000    0.0000   -0.0000    0.0063    0.0000    0.0000    0.0000
 total charge-density along one line
x    16.0000    0.0000    1.5180   -2.6292    0.3228    0.5591    0.0434   -0.0000    0.0002   -0.0004
x     0.0005    0.0008   -0.0009    0.0000    0.0001   -0.0002   -0.0001   -0.0001    0.0002   -0.0000
x    -0.0000    0.0000
y    16.0000    0.0000    1.5180    2.6292    0.3228   -0.5591    0.0434    0.0000    0.0002    0.0004
y     0.0005   -0.0008   -0.0009   -0.0000    0.0001    0.0002   -0.0001    0.0001    0.0002    0.0000
y    -0.0000   -0.0000
z    16.0000    0.0000   -0.0000    0.0000    5.9643    0.0000   -0.0000    0.0000    1.2856   -0.0000
z    -0.0000   -0.0000    0.0342   -0.0000   -0.0000   -0.0000    0.0044    0.0000   -0.0000   -0.0000
z     0.0009    0.0000    0.0000    0.0000   -0.0004   -0.0000    0.0000    0.0000    0.0003   -0.0000
z     0.0000    0.0000   -0.0002    0.0000   -0.0000    0.0000    0.0001   -0.0000
 
 pseudopotential strength for first ion, spin component:           1
 -4.463  -0.000  -0.000   0.000  -0.000  -5.026  -0.000  -0.000
 -0.000  -4.461   0.000  -0.000   0.000  -0.000  -5.024   0.000
 -0.000   0.000  -4.470  -0.000  -0.000  -0.000   0.000  -5.033
  0.000  -0.000  -0.000  -4.461  -0.000   0.000  -0.000  -0.000
 -0.000   0.000  -0.000  -0.000  -4.463  -0.000   0.000  -0.000
 -5.026  -0.000  -0.000   0.000  -0.000  -5.546  -0.000  -0.000
 -0.000  -5.024   0.000  -0.000   0.000  -0.000  -5.545   0.000
 -0.000   0.000  -5.033  -0.000  -0.000  -0.000   0.000  -5.553
  0.000  -0.000  -0.000  -5.024  -0.000   0.000  -0.000  -0.000
 -0.000   0.000  -0.000  -0.000  -5.026  -0.000   0.000  -0.000
  0.000   0.000   0.001   0.000  -0.000   0.000   0.000   0.001
  0.000   0.000   0.003   0.000  -0.000   0.000   0.000   0.002
 -0.000  -0.000   0.000   0.000  -0.001  -0.000  -0.000   0.000
  0.000  -0.000  -0.000   0.000   0.000   0.000  -0.000  -0.000
 -0.001   0.000   0.000  -0.000  -0.000  -0.001   0.000   0.000
 -0.000  -0.000   0.000   0.000  -0.001  -0.000  -0.000   0.000
  0.000  -0.000  -0.000   0.000   0.000   0.000  -0.000  -0.000
 -0.001   0.000   0.000  -0.000  -0.000  -0.001   0.000   0.000
 total augmentation occupancy for first ion, spin component:           1
  1.621   0.000   0.000   0.000   0.000  -0.916   0.000  -0.000   0.000   0.000   0.000  -0.000   0.000  -0.000   0.033  -0.000
  0.000   1.962   0.000  -0.000   0.000   0.000  -1.090   0.000   0.000   0.000  -0.000  -0.000   0.000  -0.000   0.000   0.000
  0.000   0.000   1.339   0.000  -0.000  -0.000   0.000  -0.713   0.000   0.000   0.005  -0.006   0.000   0.000  -0.000   0.000
  0.000  -0.000  -0.000   1.962   0.000   0.000   0.000  -0.000  -1.090  -0.000   0.000  -0.000   0.000   0.000   0.000   0.000
  0.000   0.000  -0.000   0.000   1.621   0.000   0.000   0.000  -0.000  -0.916  -0.000   0.000   0.033   0.000  -0.000  -0.002
 -0.916   0.000  -0.000   0.000  -0.000   1.575   0.000   0.000   0.000   0.000   0.000   0.000  -0.000   0.000  -0.050   0.000
  0.000  -1.090  -0.000   0.000   0.000   0.000   1.560   0.000  -0.000   0.000  -0.000  -0.000  -0.000   0.000  -0.000   0.000
 -0.000   0.000  -0.713   0.000   0.000   0.000  -0.000   1.435  -0.000  -0.000  -0.055   0.006   0.000   0.000  -0.000  -0.000
  0.000   0.000   0.000  -1.090  -0.000  -0.000  -0.000   0.000   1.560  -0.000   0.000   0.000   0.000  -0.000   0.000   0.000
 -0.000   0.000   0.000   0.000  -0.916   0.000   0.000  -0.000   0.000   1.575   0.000  -0.000  -0.050  -0.000   0.000   0.003
 -0.000   0.000   0.005  -0.000  -0.000  -0.000  -0.000  -0.055   0.000   0.000   2.652  -0.304   0.000   0.000  -0.000   0.000
 -0.000  -0.000  -0.006  -0.000   0.000   0.000  -0.000   0.006   0.000  -0.000  -0.304   0.039   0.000   0.000   0.000  -0.000
  0.000  -0.000  -0.000  -0.000   0.033  -0.000   0.000   0.000   0.000  -0.050   0.000   0.000   0.346   0.000  -0.000  -0.028
 -0.000  -0.000   0.000   0.000   0.000   0.000   0.000   0.000   0.000   0.000   0.000   0.000   0.000   0.335   0.000  -0.000
  0.033   0.000   0.000   0.000  -0.000  -0.050  -0.000  -0.000  -0.000   0.000   0.000   0.000  -0.000   0.000   0.346   0.000
 -0.000   0.000   0.000   0.000  -0.002   0.000   0.000  -0.000   0.000   0.003  -0.000   0.000  -0.028   0.000   0.000   0.003
  0.000   0.000   0.000   0.000  -0.000   0.000   0.000   0.000   0.000   0.000   0.000   0.000  -0.000  -0.029   0.000   0.000
 -0.002   0.000  -0.000   0.000   0.000   0.003   0.000   0.000   0.000  -0.000  -0.000   0.000   0.000   0.000  -0.028  -0.000


------------------------ aborting loop because EDIFF is reached ----------------------------------------


    CHARGE:  cpu time    0.0202: real time    0.0202
    FORLOC:  cpu time    0.0002: real time    0.0002
    FORNL :  cpu time    0.0972: real time    0.0972
    STRESS:  cpu time    0.1509: real time    0.1509
    FORCOR:  cpu time    0.0035: real time    0.0035
    FORHAR:  cpu time    0.0007: real time    0.0007
    MIXING:  cpu time    0.0002: real time    0.0002

  FORCE on cell =-STRESS in cart. coord.  units (eV):
  Direction    XX          YY          ZZ          XY          YZ          ZX
  --------------------------------------------------------------------------------------
  Alpha Z   135.30532   135.30532   135.30532
  Ewald    -400.83926  -400.83926  -424.67361     0.00000     0.00000    -0.00000
  Hartree    60.67864    60.67864    51.66490    -0.00000    -0.00000    -0.00000
  E(xc)     -78.51417   -78.51427   -78.35525     0.00034    -0.00000    -0.00000
  Local     111.55129   111.55154   143.31448    -0.00094     0.00000     0.00000
  n-local   -53.03882   -52.38413   -54.20635    -3.53851     1.49690     1.03430
  augment    75.87675    75.87592    75.91360     0.00133     0.00000     0.00000
  Kinetic   152.82604   146.79571   147.91604     0.99400    -1.06354     0.09056
  Fock        0.00000     0.00000     0.00000     0.00000     0.00000     0.00000
  -------------------------------------------------------------------------------------
  Total       1.15762     1.15762    -3.12086    -0.00000     0.00000     0.00000
  in kB      90.77528    90.77528  -244.72331    -0.00000     0.00000     0.00000
  external pressure =      -21.06 kB  Pullay stress =        0.00 kB


 VOLUME and BASIS-vectors are now :
 -----------------------------------------------------------------------------
  energy-cutoff  :      280.00
  volume of cell :       20.43
      direct lattice vectors                 reciprocal lattice vectors
     2.399900000  0.000000000  0.000000000     0.416684029  0.240572636  0.000000000
    -1.199950000  2.078374367  0.000000000     0.000000000  0.481145272  0.000000000
     0.000000000  0.000000000  4.096310000     0.000000000  0.000000000  0.244122149

  length of vectors
     2.399900000  2.399900000  4.096310000     0.481145272  0.481145272  0.244122149


 FORCES acting on ions
    electron-ion (+dipol)            ewald-force                    non-local-force                 convergence-correction
 -----------------------------------------------------------------------------------------------
   0.346E-06 -.154E-05 0.116E-13   0.646E-12 -.370E-12 -.230E-13   -.554E-18 0.112E-17 0.141E-19   -.778E-08 0.433E-08 -.152E-13
   0.533E-05 0.705E-05 0.257E-12   -.650E-12 0.367E-12 0.230E-13   0.386E-18 0.225E-17 0.216E-19   0.790E-08 -.440E-08 -.224E-13
 -----------------------------------------------------------------------------------------------
   0.568E-05 0.551E-05 0.268E-12   -.368E-14 -.293E-14 0.139E-16   -.168E-18 0.337E-17 0.357E-19   0.113E-09 -.652E-10 -.376E-13
 
 
 POSITION                                       TOTAL-FORCE (eV/Angst)
 -----------------------------------------------------------------------------------
      0.00000      0.00000      0.00000        -0.000000      0.000000      0.000000
      0.00000      1.38558      2.04815         0.000000     -0.000000     -0.000000
 -----------------------------------------------------------------------------------
    total drift:                                0.000006      0.000006      0.000000


--------------------------------------------------------------------------------------------------------



  FREE ENERGIE OF THE ION-ELECTRON SYSTEM (eV)
  ---------------------------------------------------
  free  energy   TOTEN  =       -16.20801871 eV

  energy  without entropy=      -16.20938806  energy(sigma->0) =      -16.20847516
 


--------------------------------------------------------------------------------------------------------


    POTLOK:  cpu time    0.0055: real time    0.0055


--------------------------------------------------------------------------------------------------------


 writing wavefunctions
     LOOP+:  cpu time   10.0523: real time   10.0741
    4ORBIT:  cpu time    0.0000: real time    0.0000

 total amount of memory used by VASP MPI-rank0    50598. kBytes
=======================================================================

   base      :      30000. kBytes
   nonl-proj :       3228. kBytes
   grid      :        812. kBytes
   one-center:         31. kBytes
   wavefun   :      16527. kBytes
 
  
  
 General timing and accounting informations for this job:
 ========================================================
  
                  Total CPU time used (sec):       10.234
                            User time (sec):       10.174
                          System time (sec):        0.060
                         Elapsed time (sec):       10.247
  
                   Maximum memory used (kb):       55176.
                   Average memory used (kb):          N/A
  
                          Minor page faults:         7446
                          Major page faults:            0
                 Voluntary context switches:           28
