unknown system                          
   1.00000000000000     
     3.445083    0.000000    0.000000
     0.000000    3.445083    0.000000
     0.000000    0.000000    3.445083
   Fe
     4
Direct
  0.000000  0.000000  0.000000
  0.500000  0.500000  0.000000
  0.500000  0.000000  0.500000
  0.000000  0.500000  0.500000
 
   28   28   28
  342.98      322.99      269.99      200.64      132.42      77.389      40.874      22.248      15.681      12.991    
  11.344      10.314      9.7268      9.5420      9.5351      9.5420      9.7268      10.314      11.344      12.991    
  15.681      22.248      40.874      77.389      132.42      200.64      269.99      322.99      322.99      304.13    
  254.12      188.67      124.36      72.688      38.682      21.579      15.594      12.980      11.371      10.355    
  9.7633      9.5599      9.5420      9.5599      9.7633      10.355      11.371      12.980      15.594      21.579    
  38.682      72.688      124.36      188.67      254.12      304.13      269.99      254.12      212.01      156.96    
  103.13      60.448      33.114      19.965      15.367      12.972      11.496      10.555      9.9878      9.7633    
  9.7268      9.7633      9.9878      10.555      11.496      12.972      15.367      19.965      33.114      60.448    
  103.13      156.96      212.01      254.12      200.64      188.67      156.96      115.69      75.860      45.176    
  26.547      18.249      15.040      13.011      11.786      11.019      10.555      10.355      10.314      10.355    
  10.555      11.019      11.786      13.011      15.040      18.249      26.547      45.176      75.860      115.69    
  156.96      188.67      132.42      124.36      103.13      75.860      50.283      31.619      21.278      17.008    
  14.694      13.166      12.293      11.786      11.496      11.371      11.344      11.371      11.496      11.786    
  12.293      13.166      14.694      17.008      21.278      31.619      50.283      75.860      103.13      124.36    
  77.389      72.688      60.448      45.176      31.619      22.630      18.243      16.068      14.494      13.581    
  13.166      13.011      12.972      12.980      12.991      12.980      12.972      13.011      13.166      13.581    
  14.494      16.068      18.243      22.630      31.619      45.176      60.448      72.688      40.874      38.682    
  33.114      26.547      21.278      18.243      16.595      15.354      14.655      14.494      14.694      15.040    
  15.367      15.594      15.681      15.594      15.367      15.040      14.694      14.494      14.655      15.354    
  16.595      18.243      21.278      26.547      33.114      38.682      22.248      21.579      19.965      18.249    
  17.008      16.068      15.354      15.086      15.354      16.068      17.008      18.249      19.965      21.579    
  22.248      21.579      19.965      18.249      17.008      16.068      15.354      15.086      15.354      16.068    
  17.008      18.249      19.965      21.579      15.681      15.594      15.367      15.040      14.694      14.494    
  14.655      15.354      16.595      18.243      21.278      26.547      33.114      38.682      40.874      38.682    
  33.114      26.547      21.278      18.243      16.595      15.354      14.655      14.494      14.694      15.040    
  15.367      15.594      12.991      12.980      12.972      13.011      13.166      13.581      14.494      16.068    
  18.243      22.630      31.619      45.176      60.448      72.688      77.389      72.688      60.448      45.176    
  31.619      22.630      18.243      16.068      14.494      13.581      13.166      13.011      12.972      12.980    
  11.344      11.371      11.496      11.786      12.293      13.166      14.694      17.008      21.278      31.619    
  50.283      75.860      103.13      124.36      132.42      124.36      103.13      75.860      50.283      31.619    
  21.278      17.008      14.694      13.166      12.293      11.786      11.496      11.371      10.314      10.355    
  10.555      11.019      11.786      13.011      15.040      18.249      26.547      45.176      75.860      115.69    
  156.96      188.67      200.64      188.67      156.96      115.69      75.860      45.176      26.547      18.249    
  15.040      13.011      11.786      11.019      10.555      10.355      9.7268      9.7633      9.9878      10.555    
  11.496      12.972      15.367      19.965      33.114      60.448      103.13      156.96      212.01      254.12    
  269.99      254.12      212.01      156.96      103.13      60.448      33.114      19.965      15.367      12.972    
  11.496      10.555      9.9878      9.7633      9.5420      9.5599      9.7633      10.355      11.371      12.980    
  15.594      21.579      38.682      72.688      124.36      188.67      254.12      304.13      322.99      304.13    
  254.12      188.67      124.36      72.688      38.682      21.579      15.594      12.980      11.371      10.355    
  9.7633      9.5599      9.5351      9.5420      9.7268      10.314      11.344      12.991      15.681      22.248    
  40.874      77.389      132.42      200.64      269.99      322.99      342.98      322.99      269.99      200.64    
  132.42      77.389      40.874      22.248      15.681      12.991      11.344      10.314      9.7268      9.5420    
  9.5420      9.5599      9.7633      10.355      11.371      12.980      15.594      21.579      38.682      72.688    
  124.36      188.67      254.12      304.13      322.99      304.13      254.12      188.67      124.36      72.688    
  38.682      21.579      15.594      12.980      11.371      10.355      9.7633      9.5599      9.7268      9.7633    
  9.9878      10.555      11.496      12.972      15.367      19.965      33.114      60.448      103.13      156.96    
  212.01      254.12      269.99      254.12      212.01      156.96      103.13      60.448      33.114      19.965    
  15.367      12.972      11.496      10.555      9.9878      9.7633      10.314      10.355      10.555      11.019    
  11.786      13.011      15.040      18.249      26.547      45.176      75.860      115.69      156.96      188.67    
  200.64      188.67      156.96      115.69      75.860      45.176      26.547      18.249      15.040      13.011    
  11.786      11.019      10.555      10.355      11.344      11.371      11.496      11.786      12.293      13.166    
  14.694      17.008      21.278      31.619      50.283      75.860      103.13      124.36      132.42      124.36    
  103.13      75.860      50.283      31.619      21.278      17.008      14.694      13.166      12.293      11.786    
  11.496      11.371      12.991      12.980      12.972      13.011      13.166      13.581      14.494      16.068    
  18.243      22.630      31.619      45.176      60.448      72.688      77.389      72.688      60.448      45.176    
  31.619      22.630      18.243      16.068      14.494      13.581      13.166      13.011      12.972      12.980    
  15.681      15.594      15.367      15.040      14.694      14.494      14.655      15.354      16.595      18.243    
  21.278      26.547      33.114      38.682      40.874      38.682      33.114      26.547      21.278      18.243    
  16.595      15.354      14.655      14.494      14.694      15.040      15.367      15.594      22.248      21.579    
  19.965      18.249      17.008      16.068      15.354      15.086      15.354      16.068      17.008      18.249    
  19.965      21.579      22.248      21.579      19.965      18.249      17.008      16.068      15.354      15.086    
  15.354      16.068      17.008      18.249      19.965      21.579      40.874      38.682      33.114      26.547    
  21.278      18.243      16.595      15.354      14.655      14.494      14.694      15.040      15.367      15.594    
  15.681      15.594      15.367      15.040      14.694      14.494      14.655      15.354      16.595      18.243    
  21.278      26.547      33.114      38.682      77.389      72.688      60.448      45.176      31.619      22.630    
  18.243      16.068      14.494      13.581      13.166      13.011      12.972      12.980      12.991      12.980    
  12.972      13.011      13.166      13.581      14.494      16.068      18.243      22.630      31.619      45.176    
  60.448      72.688      132.42      124.36      103.13      75.860      50.283      31.619      21.278      17.008    
  14.694      13.166      12.293      11.786      11.496      11.371      11.344      11.371      11.496      11.786    
  12.293      13.166      14.694      17.008      21.278      31.619      50.283      75.860      103.13      124.36    
  200.64      188.67      156.96      115.69      75.860      45.176      26.547      18.249      15.040      13.011    
  11.786      11.019      10.555      10.355      10.314      10.355      10.555      11.019      11.786      13.011    
  15.040      18.249      26.547      45.176      75.860      115.69      156.96      188.67      269.99      254.12    
  212.01      156.96      103.13      60.448      33.114      19.965      15.367      12.972      11.496      10.555    
  9.9878      9.7633      9.7268      9.7633      9.9878      10.555      11.496      12.972      15.367      19.965    
  33.114      60.448      103.13      156.96      212.01      254.12      322.99      304.13      254.12      188.67    
  124.36      72.688      38.682      21.579      15.594      12.980      11.371      10.355      9.7633      9.5599    
  9.5420      9.5599      9.7633      10.355      11.371      12.980      15.594      21.579      38.682      72.688    
  124.36      188.67      254.12      304.13      322.99      304.13      254.12      188.67      124.36      72.688    
  38.682      21.579      15.594      12.980      11.371      10.355      9.7633      9.5599      9.5420      9.5599    
  9.7633      10.355      11.371      12.980      15.594      21.579      38.682      72.688      124.36      188.67    
  254.12      304.13      304.13      286.33      239.14      177.38      116.79      68.295      36.657      20.975    
  15.511      12.971      11.402      10.402      9.8072      9.5877      9.5599      9.5877      9.8072      10.402    
  11.402      12.971      15.511      20.975      36.657      68.295      116.79      177.38      239.14      286.33    
  254.12      239.14      199.41      147.50      96.840      56.873      31.526      19.520      15.286      12.964    
  11.530      10.608      10.043      9.8072      9.7633      9.8072      10.043      10.608      11.530      12.964    
  15.286      19.520      31.526      56.873      96.840      147.50      199.41      239.14      188.67      177.38    
  147.50      108.65      71.280      42.672      25.508      17.977      14.957      13.001      11.817      11.069    
  10.608      10.402      10.355      10.402      10.608      11.069      11.817      13.001      14.957      17.977    
  25.508      42.672      71.280      108.65      147.50      177.38      124.36      116.79      96.840      71.280    
  47.416      30.152      20.722      16.835      14.610      13.146      12.308      11.817      11.530      11.402    
  11.371      11.402      11.530      11.817      12.308      13.146      14.610      16.835      20.722      30.152    
  47.416      71.280      96.840      116.79      72.688      68.295      56.873      42.672      30.152      21.946    
  17.978      15.911      14.405      13.538      13.146      13.001      12.964      12.971      12.980      12.971    
  12.964      13.001      13.146      13.538      14.405      15.911      17.978      21.946      30.152      42.672    
  56.873      68.295      38.682      36.657      31.526      25.508      20.722      17.978      16.407      15.213    
  14.549      14.405      14.610      14.957      15.286      15.511      15.594      15.511      15.286      14.957    
  14.610      14.405      14.549      15.213      16.407      17.978      20.722      25.508      31.526      36.657    
  21.579      20.975      19.520      17.977      16.835      15.911      15.213      14.952      15.213      15.911    
  16.835      17.977      19.520      20.975      21.579      20.975      19.520      17.977      16.835      15.911    
  15.213      14.952      15.213      15.911      16.835      17.977      19.520      20.975      15.594      15.511    
  15.286      14.957      14.610      14.405      14.549      15.213      16.407      17.978      20.722      25.508    
  31.526      36.657      38.682      36.657      31.526      25.508      20.722      17.978      16.407      15.213    
  14.549      14.405      14.610      14.957      15.286      15.511      12.980      12.971      12.964      13.001    
  13.146      13.538      14.405      15.911      17.978      21.946      30.152      42.672      56.873      68.295    
  72.688      68.295      56.873      42.672      30.152      21.946      17.978      15.911      14.405      13.538    
  13.146      13.001      12.964      12.971      11.371      11.402      11.530      11.817      12.308      13.146    
  14.610      16.835      20.722      30.152      47.416      71.280      96.840      116.79      124.36      116.79    
  96.840      71.280      47.416      30.152      20.722      16.835      14.610      13.146      12.308      11.817    
  11.530      11.402      10.355      10.402      10.608      11.069      11.817      13.001      14.957      17.977    
  25.508      42.672      71.280      108.65      147.50      177.38      188.67      177.38      147.50      108.65    
  71.280      42.672      25.508      17.977      14.957      13.001      11.817      11.069      10.608      10.402    
  9.7633      9.8072      10.043      10.608      11.530      12.964      15.286      19.520      31.526      56.873    
  96.840      147.50      199.41      239.14      254.12      239.14      199.41      147.50      96.840      56.873    
  31.526      19.520      15.286      12.964      11.530      10.608      10.043      9.8072      9.5599      9.5877    
  9.8072      10.402      11.402      12.971      15.511      20.975      36.657      68.295      116.79      177.38    
  239.14      286.33      304.13      286.33      239.14      177.38      116.79      68.295      36.657      20.975    
  15.511      12.971      11.402      10.402      9.8072      9.5877      9.5420      9.5599      9.7633      10.355    
  11.371      12.980      15.594      21.579      38.682      72.688      124.36      188.67      254.12      304.13    
  322.99      304.13      254.12      188.67      124.36      72.688      38.682      21.579      15.594      12.980    
  11.371      10.355      9.7633      9.5599      9.5599      9.5877      9.8072      10.402      11.402      12.971    
  15.511      20.975      36.657      68.295      116.79      177.38      239.14      286.33      304.13      286.33    
  239.14      177.38      116.79      68.295      36.657      20.975      15.511      12.971      11.402      10.402    
  9.8072      9.5877      9.7633      9.8072      10.043      10.608      11.530      12.964      15.286      19.520    
  31.526      56.873      96.840      147.50      199.41      239.14      254.12      239.14      199.41      147.50    
  96.840      56.873      31.526      19.520      15.286      12.964      11.530      10.608      10.043      9.8072    
  10.355      10.402      10.608      11.069      11.817      13.001      14.957      17.977      25.508      42.672    
  71.280      108.65      147.50      177.38      188.67      177.38      147.50      108.65      71.280      42.672    
  25.508      17.977      14.957      13.001      11.817      11.069      10.608      10.402      11.371      11.402    
  11.530      11.817      12.308      13.146      14.610      16.835      20.722      30.152      47.416      71.280    
  96.840      116.79      124.36      116.79      96.840      71.280      47.416      30.152      20.722      16.835    
  14.610      13.146      12.308      11.817      11.530      11.402      12.980      12.971      12.964      13.001    
  13.146      13.538      14.405      15.911      17.978      21.946      30.152      42.672      56.873      68.295    
  72.688      68.295      56.873      42.672      30.152      21.946      17.978      15.911      14.405      13.538    
  13.146      13.001      12.964      12.971      15.594      15.511      15.286      14.957      14.610      14.405    
  14.549      15.213      16.407      17.978      20.722      25.508      31.526      36.657      38.682      36.657    
  31.526      25.508      20.722      17.978      16.407      15.213      14.549      14.405      14.610      14.957    
  15.286      15.511      21.579      20.975      19.520      17.977      16.835      15.911      15.213      14.952    
  15.213      15.911      16.835      17.977      19.520      20.975      21.579      20.975      19.520      17.977    
  16.835      15.911      15.213      14.952      15.213      15.911      16.835      17.977      19.520      20.975    
  38.682      36.657      31.526      25.508      20.722      17.978      16.407      15.213      14.549      14.405    
  14.610      14.957      15.286      15.511      15.594      15.511      15.286      14.957      14.610      14.405    
  14.549      15.213      16.407      17.978      20.722      25.508      31.526      36.657      72.688      68.295    
  56.873      42.672      30.152      21.946      17.978      15.911      14.405      13.538      13.146      13.001    
  12.964      12.971      12.980      12.971      12.964      13.001      13.146      13.538      14.405      15.911    
  17.978      21.946      30.152      42.672      56.873      68.295      124.36      116.79      96.840      71.280    
  47.416      30.152      20.722      16.835      14.610      13.146      12.308      11.817      11.530      11.402    
  11.371      11.402      11.530      11.817      12.308      13.146      14.610      16.835      20.722      30.152    
  47.416      71.280      96.840      116.79      188.67      177.38      147.50      108.65      71.280      42.672    
  25.508      17.977      14.957      13.001      11.817      11.069      10.608      10.402      10.355      10.402    
  10.608      11.069      11.817      13.001      14.957      17.977      25.508      42.672      71.280      108.65    
  147.50      177.38      254.12      239.14      199.41      147.50      96.840      56.873      31.526      19.520    
  15.286      12.964      11.530      10.608      10.043      9.8072      9.7633      9.8072      10.043      10.608    
  11.530      12.964      15.286      19.520      31.526      56.873      96.840      147.50      199.41      239.14    
  304.13      286.33      239.14      177.38      116.79      68.295      36.657      20.975      15.511      12.971    
  11.402      10.402      9.8072      9.5877      9.5599      9.5877      9.8072      10.402      11.402      12.971    
  15.511      20.975      36.657      68.295      116.79      177.38      239.14      286.33      269.99      254.12    
  212.01      156.96      103.13      60.448      33.114      19.965      15.367      12.972      11.496      10.555    
  9.9878      9.7633      9.7268      9.7633      9.9878      10.555      11.496      12.972      15.367      19.965    
  33.114      60.448      103.13      156.96      212.01      254.12      254.12      239.14      199.41      147.50    
  96.840      56.873      31.526      19.520      15.286      12.964      11.530      10.608      10.043      9.8072    
  9.7633      9.8072      10.043      10.608      11.530      12.964      15.286      19.520      31.526      56.873    
  96.840      147.50      199.41      239.14      212.01      199.41      166.02      122.49      80.331      47.625    
  27.534      18.455      15.057      12.956      11.659      10.817      10.286      10.043      9.9878      10.043    
  10.286      10.817      11.659      12.956      15.057      18.455      27.534      47.625      80.331      122.49    
  166.02      199.41      156.96      147.50      122.49      90.136      59.338      36.263      22.933      17.314    
  14.726      12.981      11.923      11.247      10.817      10.608      10.555      10.608      10.817      11.247    
  11.923      12.981      14.726      17.314      22.933      36.263      59.338      90.136      122.49      147.50    
  103.13      96.840      80.331      59.338      40.038      26.467      19.368      16.365      14.383      13.097    
  12.361      11.923      11.659      11.530      11.496      11.530      11.659      11.923      12.361      13.097    
  14.383      16.365      19.368      26.467      40.038      59.338      80.331      96.840      60.448      56.873    
  47.625      36.263      26.467      20.270      17.308      15.488      14.171      13.427      13.097      12.981    
  12.956      12.964      12.972      12.964      12.956      12.981      13.097      13.427      14.171      15.488    
  17.308      20.270      26.467      36.263      47.625      56.873      33.114      31.526      27.534      22.933    
  19.368      17.308      15.904      14.842      14.273      14.171      14.383      14.726      15.057      15.286    
  15.367      15.286      15.057      14.726      14.383      14.171      14.273      14.842      15.904      17.308    
  19.368      22.933      27.534      31.526      19.965      19.520      18.455      17.314      16.365      15.488    
  14.842      14.603      14.842      15.488      16.365      17.314      18.455      19.520      19.965      19.520    
  18.455      17.314      16.365      15.488      14.842      14.603      14.842      15.488      16.365      17.314    
  18.455      19.520      15.367      15.286      15.057      14.726      14.383      14.171      14.273      14.842    
  15.904      17.308      19.368      22.933      27.534      31.526      33.114      31.526      27.534      22.933    
  19.368      17.308      15.904      14.842      14.273      14.171      14.383      14.726      15.057      15.286    
  12.972      12.964      12.956      12.981      13.097      13.427      14.171      15.488      17.308      20.270    
  26.467      36.263      47.625      56.873      60.448      56.873      47.625      36.263      26.467      20.270    
  17.308      15.488      14.171      13.427      13.097      12.981      12.956      12.964      11.496      11.530    
  11.659      11.923      12.361      13.097      14.383      16.365      19.368      26.467      40.038      59.338    
  80.331      96.840      103.13      96.840      80.331      59.338      40.038      26.467      19.368      16.365    
  14.383      13.097      12.361      11.923      11.659      11.530      10.555      10.608      10.817      11.247    
  11.923      12.981      14.726      17.314      22.933      36.263      59.338      90.136      122.49      147.50    
  156.96      147.50      122.49      90.136      59.338      36.263      22.933      17.314      14.726      12.981    
  11.923      11.247      10.817      10.608      9.9878      10.043      10.286      10.817      11.659      12.956    
  15.057      18.455      27.534      47.625      80.331      122.49      166.02      199.41      212.01      199.41    
  166.02      122.49      80.331      47.625      27.534      18.455      15.057      12.956      11.659      10.817    
  10.286      10.043      9.7633      9.8072      10.043      10.608      11.530      12.964      15.286      19.520    
  31.526      56.873      96.840      147.50      199.41      239.14      254.12      239.14      199.41      147.50    
  96.840      56.873      31.526      19.520      15.286      12.964      11.530      10.608      10.043      9.8072    
  9.7268      9.7633      9.9878      10.555      11.496      12.972      15.367      19.965      33.114      60.448    
  103.13      156.96      212.01      254.12      269.99      254.12      212.01      156.96      103.13      60.448    
  33.114      19.965      15.367      12.972      11.496      10.555      9.9878      9.7633      9.7633      9.8072    
  10.043      10.608      11.530      12.964      15.286      19.520      31.526      56.873      96.840      147.50    
  199.41      239.14      254.12      239.14      199.41      147.50      96.840      56.873      31.526      19.520    
  15.286      12.964      11.530      10.608      10.043      9.8072      9.9878      10.043      10.286      10.817    
  11.659      12.956      15.057      18.455      27.534      47.625      80.331      122.49      166.02      199.41    
  212.01      199.41      166.02      122.49      80.331      47.625      27.534      18.455      15.057      12.956    
  11.659      10.817      10.286      10.043      10.555      10.608      10.817      11.247      11.923      12.981    
  14.726      17.314      22.933      36.263      59.338      90.136      122.49      147.50      156.96      147.50    
  122.49      90.136      59.338      36.263      22.933      17.314      14.726      12.981      11.923      11.247    
  10.817      10.608      11.496      11.530      11.659      11.923      12.361      13.097      14.383      16.365    
  19.368      26.467      40.038      59.338      80.331      96.840      103.13      96.840      80.331      59.338    
  40.038      26.467      19.368      16.365      14.383      13.097      12.361      11.923      11.659      11.530    
  12.972      12.964      12.956      12.981      13.097      13.427      14.171      15.488      17.308      20.270    
  26.467      36.263      47.625      56.873      60.448      56.873      47.625      36.263      26.467      20.270    
  17.308      15.488      14.171      13.427      13.097      12.981      12.956      12.964      15.367      15.286    
  15.057      14.726      14.383      14.171      14.273      14.842      15.904      17.308      19.368      22.933    
  27.534      31.526      33.114      31.526      27.534      22.933      19.368      17.308      15.904      14.842    
  14.273      14.171      14.383      14.726      15.057      15.286      19.965      19.520      18.455      17.314    
  16.365      15.488      14.842      14.603      14.842      15.488      16.365      17.314      18.455      19.520    
  19.965      19.520      18.455      17.314      16.365      15.488      14.842      14.603      14.842      15.488    
  16.365      17.314      18.455      19.520      33.114      31.526      27.534      22.933      19.368      17.308    
  15.904      14.842      14.273      14.171      14.383      14.726      15.057      15.286      15.367      15.286    
  15.057      14.726      14.383      14.171      14.273      14.842      15.904      17.308      19.368      22.933    
  27.534      31.526      60.448      56.873      47.625      36.263      26.467      20.270      17.308      15.488    
  14.171      13.427      13.097      12.981      12.956      12.964      12.972      12.964      12.956      12.981    
  13.097      13.427      14.171      15.488      17.308      20.270      26.467      36.263      47.625      56.873    
  103.13      96.840      80.331      59.338      40.038      26.467      19.368      16.365      14.383      13.097    
  12.361      11.923      11.659      11.530      11.496      11.530      11.659      11.923      12.361      13.097    
  14.383      16.365      19.368      26.467      40.038      59.338      80.331      96.840      156.96      147.50    
  122.49      90.136      59.338      36.263      22.933      17.314      14.726      12.981      11.923      11.247    
  10.817      10.608      10.555      10.608      10.817      11.247      11.923      12.981      14.726      17.314    
  22.933      36.263      59.338      90.136      122.49      147.50      212.01      199.41      166.02      122.49    
  80.331      47.625      27.534      18.455      15.057      12.956      11.659      10.817      10.286      10.043    
  9.9878      10.043      10.286      10.817      11.659      12.956      15.057      18.455      27.534      47.625    
  80.331      122.49      166.02      199.41      254.12      239.14      199.41      147.50      96.840      56.873    
  31.526      19.520      15.286      12.964      11.530      10.608      10.043      9.8072      9.7633      9.8072    
  10.043      10.608      11.530      12.964      15.286      19.520      31.526      56.873      96.840      147.50    
  199.41      239.14      200.64      188.67      156.96      115.69      75.860      45.176      26.547      18.249    
  15.040      13.011      11.786      11.019      10.555      10.355      10.314      10.355      10.555      11.019    
  11.786      13.011      15.040      18.249      26.547      45.176      75.860      115.69      156.96      188.67    
  188.67      177.38      147.50      108.65      71.280      42.672      25.508      17.977      14.957      13.001    
  11.817      11.069      10.608      10.402      10.355      10.402      10.608      11.069      11.817      13.001    
  14.957      17.977      25.508      42.672      71.280      108.65      147.50      177.38      156.96      147.50    
  122.49      90.136      59.338      36.263      22.933      17.314      14.726      12.981      11.923      11.247    
  10.817      10.608      10.555      10.608      10.817      11.247      11.923      12.981      14.726      17.314    
  22.933      36.263      59.338      90.136      122.49      147.50      115.69      108.65      90.136      66.442    
  44.398      28.575      20.052      16.534      14.404      12.982      12.131      11.592      11.247      11.069    