unknown system                          
   1.00000000000000     
     3.445083    0.000000    0.000000
     0.000000    3.445083    0.000000
     0.000000    0.000000    3.445083
   Fe
     4
Direct
  0.000000  0.000000  0.000000
  0.500000  0.500000  0.000000
  0.500000  0.000000  0.500000
  0.000000  0.500000  0.500000
 
   28   28   28
 0.34297815295E+03 0.32298778099E+03 0.26999210996E+03 0.20063997491E+03 0.13241901660E+03
 0.77389112165E+02 0.40874252027E+02 0.22247542757E+02 0.15681327720E+02 0.12990604845E+02
 0.11344261487E+02 0.10313939314E+02 0.97268122166E+01 0.95420108323E+01 0.95351252112E+01
 0.95420108323E+01 0.97268122166E+01 0.10313939314E+02 0.11344261487E+02 0.12990604845E+02
 0.15681327720E+02 0.22247542757E+02 0.40874252027E+02 0.77389112165E+02 0.13241901660E+03
 0.20063997491E+03 0.26999210996E+03 0.32298778099E+03 0.32298778099E+03 0.30412744147E+03
 0.25411629439E+03 0.18866862709E+03 0.12436266688E+03 0.72688350046E+02 0.38682056073E+02
 0.21579261778E+02 0.15593952265E+02 0.12980410426E+02 0.11371414931E+02 0.10355193019E+02
 0.97632978926E+01 0.95599010455E+01 0.95420108323E+01 0.95599010455E+01 0.97632978926E+01
 0.10355193019E+02 0.11371414931E+02 0.12980410426E+02 0.15593952265E+02 0.21579261778E+02
 0.38682056073E+02 0.72688350046E+02 0.12436266688E+03 0.18866862709E+03 0.25411629439E+03
 0.30412744147E+03 0.26999210996E+03 0.25411629439E+03 0.21200992014E+03 0.15695629652E+03
 0.10312826894E+03 0.60448082870E+02 0.33113728885E+02 0.19965180575E+02 0.15367150513E+02
 0.12971776349E+02 0.11496079022E+02 0.10555028968E+02 0.99878096981E+01 0.97632978926E+01
 0.97268122166E+01 0.97632978926E+01 0.99878096981E+01 0.10555028968E+02 0.11496079022E+02
 0.12971776349E+02 0.15367150513E+02 0.19965180575E+02 0.33113728885E+02 0.60448082870E+02
 0.10312826894E+03 0.15695629652E+03 0.21200992014E+03 0.25411629439E+03 0.20063997491E+03
 0.18866862709E+03 0.15695629652E+03 0.11568749893E+03 0.75860292216E+02 0.45176004643E+02
 0.26547113487E+02 0.18249061780E+02 0.15039676114E+02 0.13011156439E+02 0.11786189084E+02
 0.11019268136E+02 0.10555028968E+02 0.10355193019E+02 0.10313939314E+02 0.10355193019E+02
 0.10555028968E+02 0.11019268136E+02 0.11786189084E+02 0.13011156439E+02 0.15039676114E+02
 0.18249061780E+02 0.26547113487E+02 0.45176004643E+02 0.75860292216E+02 0.11568749893E+03
 0.15695629652E+03 0.18866862709E+03 0.13241901660E+03 0.12436266688E+03 0.10312826894E+03
 0.75860292216E+02 0.50283149081E+02 0.31618822241E+02 0.21278164295E+02 0.17008115927E+02
 0.14694450932E+02 0.13165791618E+02 0.12293175787E+02 0.11786189084E+02 0.11496079022E+02
 0.11371414931E+02 0.11344261487E+02 0.11371414931E+02 0.11496079022E+02 0.11786189084E+02
 0.12293175787E+02 0.13165791618E+02 0.14694450932E+02 0.17008115927E+02 0.21278164295E+02
 0.31618822241E+02 0.50283149081E+02 0.75860292216E+02 0.10312826894E+03 0.12436266688E+03
 0.77389112165E+02 0.72688350046E+02 0.60448082870E+02 0.45176004643E+02 0.31618822241E+02
 0.22629667032E+02 0.18243272888E+02 0.16068392172E+02 0.14493770900E+02 0.13581037368E+02
 0.13165791618E+02 0.13011156439E+02 0.12971776349E+02 0.12980410426E+02 0.12990604845E+02
 0.12980410426E+02 0.12971776349E+02 0.13011156439E+02 0.13165791618E+02 0.13581037368E+02
 0.14493770900E+02 0.16068392172E+02 0.18243272888E+02 0.22629667032E+02 0.31618822241E+02
 0.45176004643E+02 0.60448082870E+02 0.72688350046E+02 0.40874252027E+02 0.38682056073E+02
 0.33113728885E+02 0.26547113487E+02 0.21278164295E+02 0.18243272888E+02 0.16594699957E+02
 0.15354308599E+02 0.14654877333E+02 0.14493770900E+02 0.14694450932E+02 0.15039676114E+02
 0.15367150513E+02 0.15593952265E+02 0.15681327720E+02 0.15593952265E+02 0.15367150513E+02
 0.15039676114E+02 0.14694450932E+02 0.14493770900E+02 0.14654877333E+02 0.15354308599E+02
 0.16594699957E+02 0.18243272888E+02 0.21278164295E+02 0.26547113487E+02 0.33113728885E+02
 0.38682056073E+02 0.22247542757E+02 0.21579261778E+02 0.19965180575E+02 0.18249061780E+02
 0.17008115927E+02 0.16068392172E+02 0.15354308599E+02 0.15086437758E+02 0.15354308599E+02
 0.16068392172E+02 0.17008115927E+02 0.18249061780E+02 0.19965180575E+02 0.21579261778E+02
 0.22247542757E+02 0.21579261778E+02 0.19965180575E+02 0.18249061780E+02 0.17008115927E+02
 0.16068392172E+02 0.15354308599E+02 0.15086437758E+02 0.15354308599E+02 0.16068392172E+02
 0.17008115927E+02 0.18249061780E+02 0.19965180575E+02 0.21579261778E+02 0.15681327720E+02
 0.15593952265E+02 0.15367150513E+02 0.15039676114E+02 0.14694450932E+02 0.14493770900E+02
 0.14654877333E+02 0.15354308599E+02 0.16594699957E+02 0.18243272888E+02 0.21278164295E+02
 0.26547113487E+02 0.33113728885E+02 0.38682056073E+02 0.40874252027E+02 0.38682056073E+02
 0.33113728885E+02 0.26547113487E+02 0.21278164295E+02 0.18243272888E+02 0.16594699957E+02
 0.15354308599E+02 0.14654877333E+02 0.14493770900E+02 0.14694450932E+02 0.15039676114E+02
 0.15367150513E+02 0.15593952265E+02 0.12990604845E+02 0.12980410426E+02 0.12971776349E+02
 0.13011156439E+02 0.13165791618E+02 0.13581037368E+02 0.14493770900E+02 0.16068392172E+02
 0.18243272888E+02 0.22629667032E+02 0.31618822241E+02 0.45176004643E+02 0.60448082870E+02
 0.72688350046E+02 0.77389112165E+02 0.72688350046E+02 0.60448082870E+02 0.45176004643E+02
 0.31618822241E+02 0.22629667032E+02 0.18243272888E+02 0.16068392172E+02 0.14493770900E+02
 0.13581037368E+02 0.13165791618E+02 0.13011156439E+02 0.12971776349E+02 0.12980410426E+02
 0.11344261487E+02 0.11371414931E+02 0.11496079022E+02 0.11786189084E+02 0.12293175787E+02
 0.13165791618E+02 0.14694450932E+02 0.17008115927E+02 0.21278164295E+02 0.31618822241E+02
 0.50283149081E+02 0.75860292216E+02 0.10312826894E+03 0.12436266688E+03 0.13241901660E+03
 0.12436266688E+03 0.10312826894E+03 0.75860292216E+02 0.50283149081E+02 0.31618822241E+02
 0.21278164295E+02 0.17008115927E+02 0.14694450932E+02 0.13165791618E+02 0.12293175787E+02
 0.11786189084E+02 0.11496079022E+02 0.11371414931E+02 0.10313939314E+02 0.10355193019E+02
 0.10555028968E+02 0.11019268136E+02 0.11786189084E+02 0.13011156439E+02 0.15039676114E+02
 0.18249061780E+02 0.26547113487E+02 0.45176004643E+02 0.75860292216E+02 0.11568749893E+03
 0.15695629652E+03 0.18866862709E+03 0.20063997491E+03 0.18866862709E+03 0.15695629652E+03
 0.11568749893E+03 0.75860292216E+02 0.45176004643E+02 0.26547113487E+02 0.18249061780E+02
 0.15039676114E+02 0.13011156439E+02 0.11786189084E+02 0.11019268136E+02 0.10555028968E+02
 0.10355193019E+02 0.97268122166E+01 0.97632978926E+01 0.99878096981E+01 0.10555028968E+02
 0.11496079022E+02 0.12971776349E+02 0.15367150513E+02 0.19965180575E+02 0.33113728885E+02
 0.60448082870E+02 0.10312826894E+03 0.15695629652E+03 0.21200992014E+03 0.25411629439E+03
 0.26999210996E+03 0.25411629439E+03 0.21200992014E+03 0.15695629652E+03 0.10312826894E+03
 0.60448082870E+02 0.33113728885E+02 0.19965180575E+02 0.15367150513E+02 0.12971776349E+02
 0.11496079022E+02 0.10555028968E+02 0.99878096981E+01 0.97632978926E+01 0.95420108323E+01
 0.95599010455E+01 0.97632978926E+01 0.10355193019E+02 0.11371414931E+02 0.12980410426E+02
 0.15593952265E+02 0.21579261778E+02 0.38682056073E+02 0.72688350046E+02 0.12436266688E+03
 0.18866862709E+03 0.25411629439E+03 0.30412744147E+03 0.32298778099E+03 0.30412744147E+03
 0.25411629439E+03 0.18866862709E+03 0.12436266688E+03 0.72688350046E+02 0.38682056073E+02
 0.21579261778E+02 0.15593952265E+02 0.12980410426E+02 0.11371414931E+02 0.10355193019E+02
 0.97632978926E+01 0.95599010455E+01 0.95351252112E+01 0.95420108323E+01 0.97268122166E+01
 0.10313939314E+02 0.11344261487E+02 0.12990604845E+02 0.15681327720E+02 0.22247542757E+02
 0.40874252027E+02 0.77389112165E+02 0.13241901660E+03 0.20063997491E+03 0.26999210996E+03
 0.32298778099E+03 0.34297815295E+03 0.32298778099E+03 0.26999210996E+03 0.20063997491E+03
 0.13241901660E+03 0.77389112165E+02 0.40874252027E+02 0.22247542757E+02 0.15681327720E+02
 0.12990604845E+02 0.11344261487E+02 0.10313939314E+02 0.97268122166E+01 0.95420108323E+01
 0.95420108323E+01 0.95599010455E+01 0.97632978926E+01 0.10355193019E+02 0.11371414931E+02
 0.12980410426E+02 0.15593952265E+02 0.21579261778E+02 0.38682056073E+02 0.72688350046E+02
 0.12436266688E+03 0.18866862709E+03 0.25411629439E+03 0.30412744147E+03 0.32298778099E+03
 0.30412744147E+03 0.25411629439E+03 0.18866862709E+03 0.12436266688E+03 0.72688350046E+02
 0.38682056073E+02 0.21579261778E+02 0.15593952265E+02 0.12980410426E+02 0.11371414931E+02
 0.10355193019E+02 0.97632978926E+01 0.95599010455E+01 0.97268122166E+01 0.97632978926E+01
 0.99878096981E+01 0.10555028968E+02 0.11496079022E+02 0.12971776349E+02 0.15367150513E+02
 0.19965180575E+02 0.33113728885E+02 0.60448082870E+02 0.10312826894E+03 0.15695629652E+03
 0.21200992014E+03 0.25411629439E+03 0.26999210996E+03 0.25411629439E+03 0.21200992014E+03
 0.15695629652E+03 0.10312826894E+03 0.60448082870E+02 0.33113728885E+02 0.19965180575E+02
 0.15367150513E+02 0.12971776349E+02 0.11496079022E+02 0.10555028968E+02 0.99878096981E+01
 0.97632978926E+01 0.10313939314E+02 0.10355193019E+02 0.10555028968E+02 0.11019268136E+02
 0.11786189084E+02 0.13011156439E+02 0.15039676114E+02 0.18249061780E+02 0.26547113487E+02
 0.45176004643E+02 0.75860292216E+02 0.11568749893E+03 0.15695629652E+03 0.18866862709E+03
 0.20063997491E+03 0.18866862709E+03 0.15695629652E+03 0.11568749893E+03 0.75860292216E+02
 0.45176004643E+02 0.26547113487E+02 0.18249061780E+02 0.15039676114E+02 0.13011156439E+02
 0.11786189084E+02 0.11019268136E+02 0.10555028968E+02 0.10355193019E+02 0.11344261487E+02
 0.11371414931E+02 0.11496079022E+02 0.11786189084E+02 0.12293175787E+02 0.13165791618E+02
 0.14694450932E+02 0.17008115927E+02 0.21278164295E+02 0.31618822241E+02 0.50283149081E+02
 0.75860292216E+02 0.10312826894E+03 0.12436266688E+03 0.13241901660E+03 0.12436266688E+03
 0.10312826894E+03 0.75860292216E+02 0.50283149081E+02 0.31618822241E+02 0.21278164295E+02
 0.17008115927E+02 0.14694450932E+02 0.13165791618E+02 0.12293175787E+02 0.11786189084E+02
 0.11496079022E+02 0.11371414931E+02 0.12990604845E+02 0.12980410426E+02 0.12971776349E+02
 0.13011156439E+02 0.13165791618E+02 0.13581037368E+02 0.14493770900E+02 0.16068392172E+02
 0.18243272888E+02 0.22629667032E+02 0.31618822241E+02 0.45176004643E+02 0.60448082870E+02
 0.72688350046E+02 0.77389112165E+02 0.72688350046E+02 0.60448082870E+02 0.45176004643E+02
 0.31618822241E+02 0.22629667032E+02 0.18243272888E+02 0.16068392172E+02 0.14493770900E+02
 0.13581037368E+02 0.13165791618E+02 0.13011156439E+02 0.12971776349E+02 0.12980410426E+02
 0.15681327720E+02 0.15593952265E+02 0.15367150513E+02 0.15039676114E+02 0.14694450932E+02
 0.14493770900E+02 0.14654877333E+02 0.15354308599E+02 0.16594699957E+02 0.18243272888E+02
 0.21278164295E+02 0.26547113487E+02 0.33113728885E+02 0.38682056073E+02 0.40874252027E+02
 0.38682056073E+02 0.33113728885E+02 0.26547113487E+02 0.21278164295E+02 0.18243272888E+02
 0.16594699957E+02 0.15354308599E+02 0.14654877333E+02 0.14493770900E+02 0.14694450932E+02
 0.15039676114E+02 0.15367150513E+02 0.15593952265E+02 0.22247542757E+02 0.21579261778E+02
 0.19965180575E+02 0.18249061780E+02 0.17008115927E+02 0.16068392172E+02 0.15354308599E+02
 0.15086437758E+02 0.15354308599E+02 0.16068392172E+02 0.17008115927E+02 0.18249061780E+02
 0.19965180575E+02 0.21579261778E+02 0.22247542757E+02 0.21579261778E+02 0.19965180575E+02
 0.18249061780E+02 0.17008115927E+02 0.16068392172E+02 0.15354308599E+02 0.15086437758E+02
 0.15354308599E+02 0.16068392172E+02 0.17008115927E+02 0.18249061780E+02 0.19965180575E+02
 0.21579261778E+02 0.40874252027E+02 0.38682056073E+02 0.33113728885E+02 0.26547113487E+02
 0.21278164295E+02 0.18243272888E+02 0.16594699957E+02 0.15354308599E+02 0.14654877333E+02
 0.14493770900E+02 0.14694450932E+02 0.15039676114E+02 0.15367150513E+02 0.15593952265E+02
 0.15681327720E+02 0.15593952265E+02 0.15367150513E+02 0.15039676114E+02 0.14694450932E+02
 0.14493770900E+02 0.14654877333E+02 0.15354308599E+02 0.16594699957E+02 0.18243272888E+02
 0.21278164295E+02 0.26547113487E+02 0.33113728885E+02 0.38682056073E+02 0.77389112165E+02
 0.72688350046E+02 0.60448082870E+02 0.45176004643E+02 0.31618822241E+02 0.22629667032E+02
 0.18243272888E+02 0.16068392172E+02 0.14493770900E+02 0.13581037368E+02 0.13165791618E+02
 0.13011156439E+02 0.12971776349E+02 0.12980410426E+02 0.12990604845E+02 0.12980410426E+02
 0.12971776349E+02 0.13011156439E+02 0.13165791618E+02 0.13581037368E+02 0.14493770900E+02
 0.16068392172E+02 0.18243272888E+02 0.22629667032E+02 0.31618822241E+02 0.45176004643E+02
 0.60448082870E+02 0.72688350046E+02 0.13241901660E+03 0.12436266688E+03 0.10312826894E+03
 0.75860292216E+02 0.50283149081E+02 0.31618822241E+02 0.21278164295E+02 0.17008115927E+02
 0.14694450932E+02 0.13165791618E+02 0.12293175787E+02 0.11786189084E+02 0.11496079022E+02
 0.11371414931E+02 0.11344261487E+02 0.11371414931E+02 0.11496079022E+02 0.11786189084E+02
 0.12293175787E+02 0.13165791618E+02 0.14694450932E+02 0.17008115927E+02 0.21278164295E+02
 0.31618822241E+02 0.50283149081E+02 0.75860292216E+02 0.10312826894E+03 0.12436266688E+03
 0.20063997491E+03 0.18866862709E+03 0.15695629652E+03 0.11568749893E+03 0.75860292216E+02
 0.45176004643E+02 0.26547113487E+02 0.18249061780E+02 0.15039676114E+02 0.13011156439E+02
 0.11786189084E+02 0.11019268136E+02 0.10555028968E+02 0.10355193019E+02 0.10313939314E+02
 0.10355193019E+02 0.10555028968E+02 0.11019268136E+02 0.11786189084E+02 0.13011156439E+02
 0.15039676114E+02 0.18249061780E+02 0.26547113487E+02 0.45176004643E+02 0.75860292216E+02
 0.11568749893E+03 0.15695629652E+03 0.18866862709E+03 0.26999210996E+03 0.25411629439E+03
 0.21200992014E+03 0.15695629652E+03 0.10312826894E+03 0.60448082870E+02 0.33113728885E+02
 0.19965180575E+02 0.15367150513E+02 0.12971776349E+02 0.11496079022E+02 0.10555028968E+02
 0.99878096981E+01 0.97632978926E+01 0.97268122166E+01 0.97632978926E+01 0.99878096981E+01
 0.10555028968E+02 0.11496079022E+02 0.12971776349E+02 0.15367150513E+02 0.19965180575E+02
 0.33113728885E+02 0.60448082870E+02 0.10312826894E+03 0.15695629652E+03 0.21200992014E+03
 0.25411629439E+03 0.32298778099E+03 0.30412744147E+03 0.25411629439E+03 0.18866862709E+03
 0.12436266688E+03 0.72688350046E+02 0.38682056073E+02 0.21579261778E+02 0.15593952265E+02
 0.12980410426E+02 0.11371414931E+02 0.10355193019E+02 0.97632978926E+01 0.95599010455E+01
 0.95420108323E+01 0.95599010455E+01 0.97632978926E+01 0.10355193019E+02 0.11371414931E+02
 0.12980410426E+02 0.15593952265E+02 0.21579261778E+02 0.38682056073E+02 0.72688350046E+02
 0.12436266688E+03 0.18866862709E+03 0.25411629439E+03 0.30412744147E+03 0.32298778099E+03
 0.30412744147E+03 0.25411629439E+03 0.18866862709E+03 0.12436266688E+03 0.72688350046E+02
 0.38682056073E+02 0.21579261778E+02 0.15593952265E+02 0.12980410426E+02 0.11371414931E+02
 0.10355193019E+02 0.97632978926E+01 0.95599010455E+01 0.95420108323E+01 0.95599010455E+01
 0.97632978926E+01 0.10355193019E+02 0.11371414931E+02 0.12980410426E+02 0.15593952265E+02
 0.21579261778E+02 0.38682056073E+02 0.72688350046E+02 0.12436266688E+03 0.18866862709E+03
 0.25411629439E+03 0.30412744147E+03 0.30412744147E+03 0.28633201378E+03 0.23913715551E+03
 0.17738245018E+03 0.11678780742E+03 0.68295068790E+02 0.36656935917E+02 0.20975304946E+02
 0.15511204438E+02 0.12971442430E+02 0.11401647107E+02 0.10401543769E+02 0.98072351769E+01
 0.95876745142E+01 0.95599010455E+01 0.95876745142E+01 0.98072351769E+01 0.10401543769E+02
 0.11401647107E+02 0.12971442430E+02 0.15511204438E+02 0.20975304946E+02 0.36656935917E+02
 0.68295068790E+02 0.11678780742E+03 0.17738245018E+03 0.23913715551E+03 0.28633201378E+03
 0.25411629439E+03 0.23913715551E+03 0.19941073041E+03 0.14749671126E+03 0.96839806568E+02
 0.56872826470E+02 0.31525684966E+02 0.19520478380E+02 0.15286107210E+02 0.12964158874E+02
 0.11530323798E+02 0.10608460209E+02 0.10042962769E+02 0.98072351769E+01 0.97632978926E+01
 0.98072351769E+01 0.10042962769E+02 0.10608460209E+02 0.11530323798E+02 0.12964158874E+02
 0.15286107210E+02 0.19520478380E+02 0.31525684966E+02 0.56872826470E+02 0.96839806568E+02
 0.14749671126E+03 0.19941073041E+03 0.23913715551E+03 0.18866862709E+03 0.17738245018E+03
 0.14749671126E+03 0.10865281808E+03 0.71280365695E+02 0.42672343914E+02 0.25507722177E+02
 0.17976684458E+02 0.14956574196E+02 0.13000909302E+02 0.11816754974E+02 0.11069005355E+02
 0.10608460209E+02 0.10401543769E+02 0.10355193019E+02 0.10401543769E+02 0.10608460209E+02
 0.11069005355E+02 0.11816754974E+02 0.13000909302E+02 0.14956574196E+02 0.17976684458E+02
 0.25507722177E+02 0.42672343914E+02 0.71280365695E+02 0.10865281808E+03 0.14749671126E+03
 0.17738245018E+03 0.12436266688E+03 0.11678780742E+03 0.96839806568E+02 0.71280365695E+02
 0.47415904509E+02 0.30152153700E+02 0.20722193765E+02 0.16834554937E+02 0.14610275861E+02
 0.13145669536E+02 0.12307792828E+02 0.11816754974E+02 0.11530323798E+02 0.11401647107E+02
 0.11371414931E+02 0.11401647107E+02 0.11530323798E+02 0.11816754974E+02 0.12307792828E+02
 0.13145669536E+02 0.14610275861E+02 0.16834554937E+02 0.20722193765E+02 0.30152153700E+02
 0.47415904509E+02 0.71280365695E+02 0.96839806568E+02 0.11678780742E+03 0.72688350046E+02
 0.68295068790E+02 0.56872826470E+02 0.42672343914E+02 0.30152153700E+02 0.21945595175E+02
 0.17978185580E+02 0.15911118464E+02 0.14404978833E+02 0.13537876273E+02 0.13145669536E+02
 0.13000909302E+02 0.12964158874E+02 0.12971442430E+02 0.12980410426E+02 0.12971442430E+02
 0.12964158874E+02 0.13000909302E+02 0.13145669536E+02 0.13537876273E+02 0.14404978833E+02
 0.15911118464E+02 0.17978185580E+02 0.21945595175E+02 0.30152153700E+02 0.42672343914E+02
 0.56872826470E+02 0.68295068790E+02 0.38682056073E+02 0.36656935917E+02 0.31525684966E+02
 0.25507722177E+02 0.20722193765E+02 0.17978185580E+02 0.16407022478E+02 0.15213014579E+02
 0.14548965069E+02 0.14404978833E+02 0.14610275861E+02 0.14956574196E+02 0.15286107210E+02
 0.15511204438E+02 0.15593952265E+02 0.15511204438E+02 0.15286107210E+02 0.14956574196E+02
 0.14610275861E+02 0.14404978833E+02 0.14548965069E+02 0.15213014579E+02 0.16407022478E+02
 0.17978185580E+02 0.20722193765E+02 0.25507722177E+02 0.31525684966E+02 0.36656935917E+02
 0.21579261778E+02 0.20975304946E+02 0.19520478380E+02 0.17976684458E+02 0.16834554937E+02
 0.15911118464E+02 0.15213014579E+02 0.14952339883E+02 0.15213014579E+02 0.15911118464E+02
 0.16834554937E+02 0.17976684458E+02 0.19520478380E+02 0.20975304946E+02 0.21579261778E+02
 0.20975304946E+02 0.19520478380E+02 0.17976684458E+02 0.16834554937E+02 0.15911118464E+02
 0.15213014579E+02 0.14952339883E+02 0.15213014579E+02 0.15911118464E+02 0.16834554937E+02
 0.17976684458E+02 0.19520478380E+02 0.20975304946E+02 0.15593952265E+02 0.15511204438E+02
 0.15286107210E+02 0.14956574196E+02 0.14610275861E+02 0.14404978833E+02 0.14548965069E+02
 0.15213014579E+02 0.16407022478E+02 0.17978185580E+02 0.20722193765E+02 0.25507722177E+02
 0.31525684966E+02 0.36656935917E+02 0.38682056073E+02 0.36656935917E+02 0.31525684966E+02
 0.25507722177E+02 0.20722193765E+02 0.17978185580E+02 0.16407022478E+02 0.15213014579E+02
 0.14548965069E+02 0.14404978833E+02 0.14610275861E+02 0.14956574196E+02 0.15286107210E+02
 0.15511204438E+02 0.12980410426E+02 0.12971442430E+02 0.12964158874E+02 0.13000909302E+02
 0.13145669536E+02 0.13537876273E+02 0.14404978833E+02 0.15911118464E+02 0.17978185580E+02
 0.21945595175E+02 0.30152153700E+02 0.42672343914E+02 0.56872826470E+02 0.68295068790E+02
 0.72688350046E+02 0.68295068790E+02 0.56872826470E+02 0.42672343914E+02 0.30152153700E+02
 0.21945595175E+02 0.17978185580E+02 0.15911118464E+02 0.14404978833E+02 0.13537876273E+02
 0.13145669536E+02 0.13000909302E+02 0.12964158874E+02 0.12971442430E+02 0.11371414931E+02
 0.11401647107E+02 0.11530323798E+02 0.11816754974E+02 0.12307792828E+02 0.13145669536E+02
 0.14610275861E+02 0.16834554937E+02 0.20722193765E+02 0.30152153700E+02 0.47415904509E+02
 0.71280365695E+02 0.96839806568E+02 0.11678780742E+03 0.12436266688E+03 0.11678780742E+03
 0.96839806568E+02 0.71280365695E+02 0.47415904509E+02 0.30152153700E+02 0.20722193765E+02
 0.16834554937E+02 0.14610275861E+02 0.13145669536E+02 0.12307792828E+02 0.11816754974E+02
 0.11530323798E+02 0.11401647107E+02 0.10355193019E+02 0.10401543769E+02 0.10608460209E+02
 0.11069005355E+02 0.11816754974E+02 0.13000909302E+02 0.14956574196E+02 0.17976684458E+02
 0.25507722177E+02 0.42672343914E+02 0.71280365695E+02 0.10865281808E+03 0.14749671126E+03
 0.17738245018E+03 0.18866862709E+03 0.17738245018E+03 0.14749671126E+03 0.10865281808E+03
 0.71280365695E+02 0.42672343914E+02 0.25507722177E+02 0.17976684458E+02 0.14956574196E+02
 0.13000909302E+02 0.11816754974E+02 0.11069005355E+02 0.10608460209E+02 0.10401543769E+02
 0.97632978926E+01 0.98072351769E+01 0.10042962769E+02 0.10608460209E+02 0.11530323798E+02
 0.12964158874E+02 0.15286107210E+02 0.19520478380E+02 0.31525684966E+02 0.56872826470E+02
 0.96839806568E+02 0.14749671126E+03 0.19941073041E+03 0.23913715551E+03 0.25411629439E+03
 0.23913715551E+03 0.19941073041E+03 0.14749671126E+03 0.96839806568E+02 0.56872826470E+02
 0.31525684966E+02 0.19520478380E+02 0.15286107210E+02 0.12964158874E+02 0.11530323798E+02
 0.10608460209E+02 0.10042962769E+02 0.98072351769E+01 0.95599010455E+01 0.95876745142E+01
 0.98072351769E+01 0.10401543769E+02 0.11401647107E+02 0.12971442430E+02 0.15511204438E+02
 0.20975304946E+02 0.36656935917E+02 0.68295068790E+02 0.11678780742E+03 0.17738245018E+03
 0.23913715551E+03 0.28633201378E+03 0.30412744147E+03 0.28633201378E+03 0.23913715551E+03
 0.17738245018E+03 0.11678780742E+03 0.68295068790E+02 0.36656935917E+02 0.20975304946E+02
 0.15511204438E+02 0.12971442430E+02 0.11401647107E+02 0.10401543769E+02 0.98072351769E+01
 0.95876745142E+01 0.95420108323E+01 0.95599010455E+01 0.97632978926E+01 0.10355193019E+02
 0.11371414931E+02 0.12980410426E+02 0.15593952265E+02 0.21579261778E+02 0.38682056073E+02
 0.72688350046E+02 0.12436266688E+03 0.18866862709E+03 0.25411629439E+03 0.30412744147E+03
 0.32298778099E+03 0.30412744147E+03 0.25411629439E+03 0.18866862709E+03 0.12436266688E+03
 0.72688350046E+02 0.38682056073E+02 0.21579261778E+02 0.15593952265E+02 0.12980410426E+02
 0.11371414931E+02 0.10355193019E+02 0.97632978926E+01 0.95599010455E+01 0.95599010455E+01
 0.95876745142E+01 0.98072351769E+01 0.10401543769E+02 0.11401647107E+02 0.12971442430E+02
 0.15511204438E+02 0.20975304946E+02 0.36656935917E+02 0.68295068790E+02 0.11678780742E+03
 0.17738245018E+03 0.23913715551E+03 0.28633201378E+03 0.30412744147E+03 0.28633201378E+03
 0.23913715551E+03 0.17738245018E+03 0.11678780742E+03 0.68295068790E+02 0.36656935917E+02
 0.20975304946E+02 0.15511204438E+02 0.12971442430E+02 0.11401647107E+02 0.10401543769E+02
 0.98072351769E+01 0.95876745142E+01 0.97632978926E+01 0.98072351769E+01 0.10042962769E+02
 0.10608460209E+02 0.11530323798E+02 0.12964158874E+02 0.15286107210E+02 0.19520478380E+02
 0.31525684966E+02 0.56872826470E+02 0.96839806568E+02 0.14749671126E+03 0.19941073041E+03
 0.23913715551E+03 0.25411629439E+03 0.23913715551E+03 0.19941073041E+03 0.14749671126E+03
 0.96839806568E+02 0.56872826470E+02 0.31525684966E+02 0.19520478380E+02 0.15286107210E+02
 0.12964158874E+02 0.11530323798E+02 0.10608460209E+02 0.10042962769E+02 0.98072351769E+01
 0.10355193019E+02 0.10401543769E+02 0.10608460209E+02 0.11069005355E+02 0.11816754974E+02
 0.13000909302E+02 0.14956574196E+02 0.17976684458E+02 0.25507722177E+02 0.42672343914E+02
 0.71280365695E+02 0.10865281808E+03 0.14749671126E+03 0.17738245018E+03 0.18866862709E+03
 0.17738245018E+03 0.14749671126E+03 0.10865281808E+03 0.71280365695E+02 0.42672343914E+02
 0.25507722177E+02 0.17976684458E+02 0.14956574196E+02 0.13000909302E+02 0.11816754974E+02
 0.11069005355E+02 0.10608460209E+02 0.10401543769E+02 0.11371414931E+02 0.11401647107E+02
 0.11530323798E+02 0.11816754974E+02 0.12307792828E+02 0.13145669536E+02 0.14610275861E+02
 0.16834554937E+02 0.20722193765E+02 0.30152153700E+02 0.47415904509E+02 0.71280365695E+02
 0.96839806568E+02 0.11678780742E+03 0.12436266688E+03 0.11678780742E+03 0.96839806568E+02
 0.71280365695E+02 0.47415904509E+02 0.30152153700E+02 0.20722193765E+02 0.16834554937E+02
 0.14610275861E+02 0.13145669536E+02 0.12307792828E+02 0.11816754974E+02 0.11530323798E+02
 0.11401647107E+02 0.12980410426E+02 0.12971442430E+02 0.12964158874E+02 0.13000909302E+02
 0.13145669536E+02 0.13537876273E+02 0.14404978833E+02 0.15911118464E+02 0.17978185580E+02
 0.21945595175E+02 0.30152153700E+02 0.42672343914E+02 0.56872826470E+02 0.68295068790E+02
 0.72688350046E+02 0.68295068790E+02 0.56872826470E+02 0.42672343914E+02 0.30152153700E+02
 0.21945595175E+02 0.17978185580E+02 0.15911118464E+02 0.14404978833E+02 0.13537876273E+02
 0.13145669536E+02 0.13000909302E+02 0.12964158874E+02 0.12971442430E+02 0.15593952265E+02
 0.15511204438E+02 0.15286107210E+02 0.14956574196E+02 0.14610275861E+02 0.14404978833E+02
 0.14548965069E+02 0.15213014579E+02 0.16407022478E+02 0.17978185580E+02 0.20722193765E+02
 0.25507722177E+02 0.31525684966E+02 0.36656935917E+02 0.38682056073E+02 0.36656935917E+02
 0.31525684966E+02 0.25507722177E+02 0.20722193765E+02 0.17978185580E+02 0.16407022478E+02
 0.15213014579E+02 0.14548965069E+02 0.14404978833E+02 0.14610275861E+02 0.14956574196E+02
 0.15286107210E+02 0.15511204438E+02 0.21579261778E+02 0.20975304946E+02 0.19520478380E+02
 0.17976684458E+02 0.16834554937E+02 0.15911118464E+02 0.15213014579E+02 0.14952339883E+02
 0.15213014579E+02 0.15911118464E+02 0.16834554937E+02 0.17976684458E+02 0.19520478380E+02
 0.20975304946E+02 0.21579261778E+02 0.20975304946E+02 0.19520478380E+02 0.17976684458E+02
 0.16834554937E+02 0.15911118464E+02 0.15213014579E+02 0.14952339883E+02 0.15213014579E+02
 0.15911118464E+02 0.16834554937E+02 0.17976684458E+02 0.19520478380E+02 0.20975304946E+02
 0.38682056073E+02 0.36656935917E+02 0.31525684966E+02 0.25507722177E+02 0.20722193765E+02
 0.17978185580E+02 0.16407022478E+02 0.15213014579E+02 0.14548965069E+02 0.14404978833E+02
 0.14610275861E+02 0.14956574196E+02 0.15286107210E+02 0.15511204438E+02 0.15593952265E+02
 0.15511204438E+02 0.15286107210E+02 0.14956574196E+02 0.14610275861E+02 0.14404978833E+02
 0.14548965069E+02 0.15213014579E+02 0.16407022478E+02 0.17978185580E+02 0.20722193765E+02
 0.25507722177E+02 0.31525684966E+02 0.36656935917E+02 0.72688350046E+02 0.68295068790E+02
 0.56872826470E+02 0.42672343914E+02 0.30152153700E+02 0.21945595175E+02 0.17978185580E+02
 0.15911118464E+02 0.14404978833E+02 0.13537876273E+02 0.13145669536E+02 0.13000909302E+02
 0.12964158874E+02 0.12971442430E+02 0.12980410426E+02 0.12971442430E+02 0.12964158874E+02
 0.13000909302E+02 0.13145669536E+02 0.13537876273E+02 0.14404978833E+02 0.15911118464E+02
 0.17978185580E+02 0.21945595175E+02 0.30152153700E+02 0.42672343914E+02 0.56872826470E+02
 0.68295068790E+02 0.12436266688E+03 0.11678780742E+03 0.96839806568E+02 0.71280365695E+02
 0.47415904509E+02 0.30152153700E+02 0.20722193765E+02 0.16834554937E+02 0.14610275861E+02
 0.13145669536E+02 0.12307792828E+02 0.11816754974E+02 0.11530323798E+02 0.11401647107E+02
 0.11371414931E+02 0.11401647107E+02 0.11530323798E+02 0.11816754974E+02 0.12307792828E+02
 0.13145669536E+02 0.14610275861E+02 0.16834554937E+02 0.20722193765E+02 0.30152153700E+02
 0.47415904509E+02 0.71280365695E+02 0.96839806568E+02 0.11678780742E+03 0.18866862709E+03
 0.17738245018E+03 0.14749671126E+03 0.10865281808E+03 0.71280365695E+02 0.42672343914E+02
 0.25507722177E+02 0.17976684458E+02 0.14956574196E+02 0.13000909302E+02 0.11816754974E+02
 0.11069005355E+02 0.10608460209E+02 0.10401543769E+02 0.10355193019E+02 0.10401543769E+02
 0.10608460209E+02 0.11069005355E+02 0.11816754974E+02 0.13000909302E+02 0.14956574196E+02
 0.17976684458E+02 0.25507722177E+02 0.42672343914E+02 0.71280365695E+02 0.10865281808E+03
 0.14749671126E+03 0.17738245018E+03 0.25411629439E+03 0.23913715551E+03 0.19941073041E+03
 0.14749671126E+03 0.96839806568E+02 0.56872826470E+02 0.31525684966E+02 0.19520478380E+02
 0.15286107210E+02 0.12964158874E+02 0.11530323798E+02 0.10608460209E+02 0.10042962769E+02
 0.98072351769E+01 0.97632978926E+01 0.98072351769E+01 0.10042962769E+02 0.10608460209E+02
 0.11530323798E+02 0.12964158874E+02 0.15286107210E+02 0.19520478380E+02 0.31525684966E+02
 0.56872826470E+02 0.96839806568E+02 0.14749671126E+03 0.19941073041E+03 0.23913715551E+03
 0.30412744147E+03 0.28633201378E+03 0.23913715551E+03 0.17738245018E+03 0.11678780742E+03
 0.68295068790E+02 0.36656935917E+02 0.20975304946E+02 0.15511204438E+02 0.12971442430E+02
 0.11401647107E+02 0.10401543769E+02 0.98072351769E+01 0.95876745142E+01 0.95599010455E+01
 0.95876745142E+01 0.98072351769E+01 0.10401543769E+02 0.11401647107E+02 0.12971442430E+02
 0.15511204438E+02 0.20975304946E+02 0.36656935917E+02 0.68295068790E+02 0.11678780742E+03
 0.17738245018E+03 0.23913715551E+03 0.28633201378E+03 0.26999210996E+03 0.25411629439E+03
 0.21200992014E+03 0.15695629652E+03 0.10312826894E+03 0.60448082870E+02 0.33113728885E+02
 0.19965180575E+02 0.15367150513E+02 0.12971776349E+02 0.11496079022E+02 0.10555028968E+02
 0.99878096981E+01 0.97632978926E+01 0.97268122166E+01 0.97632978926E+01 0.99878096981E+01
 0.10555028968E+02 0.11496079022E+02 0.12971776349E+02 0.15367150513E+02 0.19965180575E+02
 0.33113728885E+02 0.60448082870E+02 0.10312826894E+03 0.15695629652E+03 0.21200992014E+03
 0.25411629439E+03 0.25411629439E+03 0.23913715551E+03 0.19941073041E+03 0.14749671126E+03
 0.96839806568E+02 0.56872826470E+02 0.31525684966E+02 0.19520478380E+02 0.15286107210E+02
 0.12964158874E+02 0.11530323798E+02 0.10608460209E+02 0.10042962769E+02 0.98072351769E+01
 0.97632978926E+01 0.98072351769E+01 0.10042962769E+02 0.10608460209E+02 0.11530323798E+02
 0.12964158874E+02 0.15286107210E+02 0.19520478380E+02 0.31525684966E+02 0.56872826470E+02
 0.96839806568E+02 0.14749671126E+03 0.19941073041E+03 0.23913715551E+03 0.21200992014E+03