   4   4   0   0
  0.1022208E+02  0.3445083E-09  0.3445083E-09  0.3445083E-09  0.5000000E-15
  1.000000000000000E-004
  CAR 
 unknown system                          
     38.09104580     -4.02855670  301      6.78685616      1.00000000
     -4.029  0.0000E+00  0.0000E+00
     -3.888  0.0000E+00  0.0000E+00
     -3.748 -0.2243E-32 -0.3149E-33
     -3.607 -0.2194E-27 -0.3080E-28
     -3.467 -0.7943E-23 -0.1115E-23
     -3.327 -0.1063E-18 -0.1493E-19
     -3.186 -0.5123E-15 -0.7194E-16
     -3.046 -0.9167E-12 -0.1288E-12
     -2.905 -0.6007E-09 -0.8446E-10
     -2.765 -0.1417E-06 -0.1998E-07
     -2.625 -0.1175E-04 -0.1670E-05
     -2.484 -0.3237E-03 -0.4712E-04
     -2.344 -0.2419E-02 -0.3868E-03
     -2.203  0.1996E-02 -0.1065E-03
     -2.063  0.4134E-01  0.5698E-02
     -1.923  0.5837E-01  0.1389E-01
     -1.782  0.2476E-02  0.1424E-01
     -1.642  0.9282E-02  0.1554E-01
     -1.501  0.2477E+00  0.5032E-01
     -1.361  0.3553E+00  0.1002E+00
     -1.221  0.6716E-01  0.1096E+00
     -1.080  0.5977E-01  0.1180E+00
     -0.940  0.5946E+00  0.2015E+00
     -0.799  0.6432E+00  0.2918E+00
     -0.659  0.1024E+00  0.3062E+00
     -0.519  0.1689E+00  0.3299E+00
     -0.378  0.4930E+00  0.3991E+00
     -0.238  0.2365E+00  0.4323E+00
     -0.097  0.3930E-01  0.4378E+00
      0.043  0.2910E+00  0.4787E+00
      0.183  0.2615E+00  0.5154E+00
      0.324  0.7292E-01  0.5256E+00
      0.464  0.8880E+00  0.6503E+00
      0.605  0.1399E+01  0.8467E+00
      0.745  0.8059E+00  0.9599E+00
      0.885  0.1338E+01  0.1148E+01
      1.026  0.1047E+01  0.1295E+01
      1.166  0.7774E-01  0.1306E+01
      1.307 -0.1089E+00  0.1290E+01
      1.447 -0.1296E+00  0.1272E+01
      1.587  0.6797E+00  0.1368E+01
      1.728  0.2597E+01  0.1732E+01
      1.868  0.2497E+01  0.2083E+01
      2.009  0.1829E+01  0.2340E+01
      2.149  0.3388E+01  0.2815E+01
      2.289  0.4939E+01  0.3509E+01
      2.430  0.3754E+01  0.4036E+01
      2.570  0.4394E+01  0.4653E+01
      2.711  0.4433E+01  0.5275E+01
      2.851  0.3523E+01  0.5770E+01
      2.991  0.5946E+01  0.6604E+01
      3.132  0.8477E+01  0.7795E+01
      3.272  0.7307E+01  0.8821E+01
      3.413  0.3020E+01  0.9245E+01
      3.553  0.4613E+01  0.9892E+01
      3.693  0.8092E+01  0.1103E+02
      3.834  0.5923E+01  0.1186E+02
      3.974  0.2826E+01  0.1226E+02
      4.115  0.2816E+01  0.1265E+02
      4.255  0.5495E+01  0.1342E+02
      4.395  0.7741E+01  0.1451E+02
      4.536  0.5818E+01  0.1533E+02
      4.676  0.4678E+01  0.1598E+02
      4.817  0.9761E+01  0.1735E+02
      4.957  0.1042E+02  0.1882E+02
      5.097  0.7418E+01  0.1986E+02
      5.238  0.7389E+01  0.2090E+02
      5.378  0.8350E+01  0.2207E+02
      5.519  0.7922E+01  0.2318E+02
      5.659  0.5736E+01  0.2399E+02
      5.799  0.6532E+01  0.2490E+02
      5.940  0.8117E+01  0.2604E+02
      6.080  0.7903E+01  0.2715E+02
      6.221  0.6740E+01  0.2810E+02
      6.361  0.7525E+01  0.2915E+02
      6.501  0.4998E+01  0.2986E+02
      6.642  0.4687E+01  0.3051E+02
      6.782  0.1016E+02  0.3194E+02
      6.923  0.1134E+02  0.3353E+02
      7.063  0.5280E+01  0.3427E+02
      7.203  0.2939E+01  0.3469E+02
      7.344  0.5398E+01  0.3545E+02
      7.484  0.7869E+01  0.3655E+02
      7.625  0.1062E+02  0.3804E+02
      7.765  0.1276E+02  0.3983E+02
      7.905  0.8220E+01  0.4099E+02
      8.046  0.4772E+01  0.4166E+02
      8.186  0.4658E+01  0.4231E+02
      8.327  0.3647E+01  0.4282E+02
      8.467  0.1182E+01  0.4299E+02
      8.607 -0.1064E+00  0.4297E+02
      8.748 -0.1320E+00  0.4295E+02
      8.888 -0.1947E-01  0.4295E+02
      9.029  0.8012E+00  0.4306E+02
      9.169  0.1416E+01  0.4326E+02
      9.309  0.4985E+00  0.4333E+02
      9.450  0.1412E+01  0.4353E+02
      9.590  0.3502E+01  0.4402E+02
      9.731  0.2672E+01  0.4440E+02
      9.871  0.7419E+00  0.4450E+02
     10.011  0.7411E+00  0.4461E+02
     10.152  0.1651E+01  0.4484E+02
     10.292  0.7391E+00  0.4494E+02
     10.433 -0.5296E-01  0.4493E+02
     10.573 -0.9451E-01  0.4492E+02
     10.713 -0.1360E-01  0.4492E+02
     10.854  0.7892E+00  0.4503E+02
     10.994  0.1625E+01  0.4526E+02
     11.135  0.1688E+01  0.4549E+02
     11.275  0.1272E+01  0.4567E+02
     11.415  0.2086E+00  0.4570E+02
     11.556  0.1643E+00  0.4573E+02
     11.696  0.7027E+00  0.4582E+02
     11.836  0.7251E+00  0.4593E+02
     11.977  0.6473E+00  0.4602E+02
     12.117  0.3796E+00  0.4607E+02
     12.258  0.1882E+01  0.4633E+02
     12.398  0.4077E+01  0.4691E+02
     12.538  0.2380E+01  0.4724E+02
     12.679  0.9395E-01  0.4725E+02
     12.819 -0.1697E+00  0.4723E+02
     12.960 -0.2198E-02  0.4723E+02
     13.100  0.4792E+00  0.4730E+02
     13.240  0.7314E+00  0.4740E+02
     13.381  0.2189E+00  0.4743E+02
     13.521 -0.3415E-01  0.4743E+02
     13.662 -0.1337E-01  0.4742E+02
     13.802 -0.9111E-03  0.4742E+02
     13.942 -0.7620E-04  0.4742E+02
     14.083 -0.2446E-02  0.4742E+02
     14.223 -0.3226E-01  0.4742E+02
     14.364 -0.6756E-01  0.4741E+02
     14.504  0.4978E+00  0.4748E+02
     14.644  0.1604E+01  0.4770E+02
     14.785  0.1492E+01  0.4791E+02
     14.925  0.6171E+00  0.4800E+02
     15.066  0.1953E-02  0.4800E+02
     15.206 -0.1066E+00  0.4799E+02
     15.346  0.4986E+00  0.4806E+02
     15.487  0.1648E+01  0.4829E+02
     15.627  0.2708E+01  0.4867E+02
     15.768  0.3005E+01  0.4909E+02
     15.908  0.2935E+01  0.4950E+02
     16.048  0.2609E+01  0.4987E+02
     16.189  0.5624E+00  0.4995E+02
     16.329 -0.1495E+00  0.4993E+02
     16.470 -0.4026E-01  0.4992E+02
     16.610 -0.8135E-02  0.4992E+02
     16.750 -0.2450E-01  0.4992E+02
     16.891  0.8176E-01  0.4993E+02
     17.031  0.4023E+00  0.4998E+02
     17.172  0.2861E+00  0.5002E+02
     17.312  0.5800E+00  0.5011E+02
     17.452  0.2661E+01  0.5048E+02
     17.593  0.3097E+01  0.5091E+02
     17.733  0.1071E+01  0.5106E+02
     17.874  0.9944E+00  0.5120E+02
     18.014  0.1116E+01  0.5136E+02
     18.154  0.2071E+00  0.5139E+02
     18.295 -0.7353E-01  0.5138E+02
     18.435  0.1233E+01  0.5155E+02
     18.576  0.3172E+01  0.5200E+02
     18.716  0.3085E+01  0.5243E+02
     18.856  0.1211E+01  0.5260E+02
     18.997 -0.9241E-02  0.5260E+02
     19.137  0.2546E+00  0.5264E+02
     19.278  0.7566E+00  0.5274E+02
     19.418  0.1158E+01  0.5290E+02
     19.558  0.1444E+01  0.5311E+02
     19.699  0.1264E+01  0.5328E+02
     19.839  0.1433E+01  0.5349E+02
     19.980  0.4540E+00  0.5355E+02
     20.120 -0.9612E-01  0.5354E+02
     20.260  0.1663E+01  0.5377E+02
     20.401  0.3561E+01  0.5427E+02
     20.541  0.2430E+01  0.5461E+02
     20.682  0.1946E+01  0.5488E+02
     20.822  0.1253E+01  0.5506E+02
     20.962  0.2782E+00  0.5510E+02
     21.103  0.1648E+01  0.5533E+02
     21.243  0.2497E+01  0.5568E+02
     21.384  0.7115E+00  0.5578E+02
     21.524 -0.2766E+00  0.5574E+02
     21.664  0.2939E-01  0.5575E+02
     21.805  0.2687E+01  0.5612E+02
     21.945  0.4716E+01  0.5678E+02
     22.086  0.2254E+01  0.5710E+02
     22.226  0.1164E+00  0.5712E+02
     22.366 -0.3154E+00  0.5707E+02
     22.507  0.4401E+00  0.5714E+02
     22.647  0.3504E+01  0.5763E+02
     22.788  0.4920E+01  0.5832E+02
     22.928  0.3299E+01  0.5878E+02
     23.068  0.2133E+01  0.5908E+02
     23.209  0.1322E+01  0.5927E+02
     23.349  0.3856E+00  0.5932E+02
     23.490 -0.1811E+00  0.5929E+02
     23.630  0.4082E-01  0.5930E+02
     23.770  0.2249E+01  0.5962E+02
     23.911  0.4014E+01  0.6018E+02
     24.051  0.3135E+01  0.6062E+02
     24.192  0.2287E+01  0.6094E+02
     24.332  0.1633E+01  0.6117E+02
     24.472  0.5086E+00  0.6124E+02
     24.613 -0.2309E+00  0.6121E+02
     24.753  0.3929E+00  0.6126E+02
     24.894  0.3015E+01  0.6169E+02
     25.034  0.3222E+01  0.6214E+02
     25.174  0.5407E+00  0.6222E+02
     25.315 -0.3971E+00  0.6216E+02
     25.455  0.5635E+00  0.6224E+02
     25.596  0.3986E+01  0.6280E+02
     25.736  0.4526E+01  0.6343E+02
     25.876  0.1117E+01  0.6359E+02
     26.017  0.1852E+00  0.6362E+02
     26.157  0.1274E+01  0.6380E+02
     26.298  0.9285E+00  0.6393E+02
     26.438  0.1181E+01  0.6409E+02
     26.578  0.3304E+01  0.6456E+02
     26.719  0.2371E+01  0.6489E+02
     26.859  0.4394E+00  0.6495E+02
     27.000  0.1124E+01  0.6511E+02
     27.140  0.1224E+01  0.6528E+02
     27.280  0.1310E+00  0.6530E+02
     27.421 -0.7763E-01  0.6529E+02
     27.561  0.8258E+00  0.6540E+02
     27.702  0.2100E+01  0.6570E+02
     27.842  0.2995E+01  0.6612E+02
     27.982  0.2492E+01  0.6647E+02
     28.123  0.1623E+01  0.6670E+02
     28.263  0.8245E+00  0.6681E+02
     28.404  0.1021E+01  0.6696E+02
     28.544  0.3171E+01  0.6740E+02
     28.684  0.2751E+01  0.6779E+02
     28.825  0.9809E+00  0.6793E+02
     28.965  0.6516E+00  0.6802E+02
     29.106  0.6853E+00  0.6811E+02
     29.246  0.1061E+01  0.6826E+02
     29.386  0.1102E+01  0.6842E+02
     29.527  0.1402E+01  0.6861E+02
     29.667  0.2447E+01  0.6896E+02
     29.808  0.3317E+01  0.6942E+02
     29.948  0.2462E+01  0.6977E+02
     30.088  0.1022E+01  0.6991E+02
     30.229  0.1487E+01  0.7012E+02
     30.369  0.1537E+01  0.7034E+02
     30.510  0.3081E+00  0.7038E+02
     30.650  0.2893E+00  0.7042E+02
     30.790  0.1779E+01  0.7067E+02
     30.931  0.2062E+01  0.7096E+02
     31.071  0.3159E+01  0.7140E+02
     31.212  0.4237E+01  0.7200E+02
     31.352  0.3472E+01  0.7249E+02
     31.492  0.2148E+01  0.7279E+02
     31.633  0.2732E+00  0.7283E+02
     31.773  0.3899E+00  0.7288E+02
     31.914  0.1408E+01  0.7308E+02
     32.054  0.1456E+01  0.7328E+02
     32.194  0.2051E+01  0.7357E+02
     32.335  0.2645E+01  0.7394E+02
     32.475  0.2226E+01  0.7425E+02
     32.615  0.8049E+00  0.7437E+02
     32.756 -0.5163E-01  0.7436E+02
     32.896 -0.1181E+00  0.7434E+02
     33.037 -0.1874E+00  0.7432E+02
     33.177  0.7322E+00  0.7442E+02
     33.317  0.4366E+01  0.7503E+02
     33.458  0.6219E+01  0.7591E+02
     33.598  0.4217E+01  0.7650E+02
     33.739  0.3378E+01  0.7697E+02
     33.879  0.1940E+01  0.7724E+02
     34.019  0.9327E+00  0.7738E+02
     34.160  0.4987E+00  0.7745E+02
     34.300  0.4600E+00  0.7751E+02
     34.441  0.5567E+00  0.7759E+02
     34.581  0.8288E+00  0.7770E+02
     34.721  0.2501E+01  0.7806E+02
     34.862  0.2402E+01  0.7839E+02
     35.002  0.9848E+00  0.7853E+02
     35.143  0.9118E+00  0.7866E+02
     35.283  0.1475E+01  0.7887E+02
     35.423  0.6094E+00  0.7895E+02
     35.564 -0.9043E-01  0.7894E+02
     35.704  0.3140E+00  0.7898E+02
     35.845  0.1385E+01  0.7918E+02
     35.985  0.2083E+01  0.7947E+02
     36.125  0.2453E+01  0.7981E+02
     36.266  0.1378E+01  0.8001E+02
     36.406  0.4009E-01  0.8001E+02
     36.547 -0.8617E-01  0.8000E+02
     36.687 -0.1110E-01  0.8000E+02
     36.827 -0.3944E-03  0.8000E+02
     36.968 -0.4673E-05  0.8000E+02
     37.108 -0.1950E-07  0.8000E+02
     37.249 -0.2931E-10  0.8000E+02
     37.389 -0.1579E-13  0.8000E+02
     37.529  0.0000E+00  0.8000E+02
     37.670  0.0000E+00  0.8000E+02
     37.810  0.0000E+00  0.8000E+02
     37.951  0.0000E+00  0.8000E+02
     38.091  0.0000E+00  0.8000E+02
