    4    4    1    1
  0.1022208E+02  0.3445083E-09  0.3445083E-09  0.3445083E-09  0.5000000E-15
  1.000000000000000E-004
  CAR 
 unknown system                          
     32     10     40
 
  0.0000000E+00  0.0000000E+00  0.0000000E+00  0.8000000E-02
    1       -2.028557   1.000000
    2        1.853145   1.000000
    3        1.853145   1.000000
    4        1.853145   1.000000
    5        2.599997   1.000000
    6        2.599997   1.000000
    7        2.599997   1.000000
    8        5.149141   1.000000
    9        5.149141   1.000000
   10        5.149141   1.000000
   11        6.706676   0.810930
   12        6.706676   0.810930
   13        7.757624  -0.000000
   14        7.757624  -0.000000
   15        7.757624  -0.000000
   16        8.047692  -0.000000
   17        8.047692  -0.000000
   18        8.047692  -0.000000
   19        8.047692  -0.000000
   20        8.047692  -0.000000
   21        8.047692  -0.000000
   22       10.076199  -0.000000
   23       10.076199  -0.000000
   24       10.076199  -0.000000
   25       18.583994   0.000000
   26       18.583994   0.000000
   27       18.583994   0.000000
   28       23.086202   0.000000
   29       23.086202   0.000000
   30       23.086202   0.000000
   31       23.086202   0.000000
   32       23.086202   0.000000
   33       23.086202   0.000000
   34       28.751525   0.000000
   35       28.751525   0.000000
   36       28.751525   0.000000
   37       30.154044   0.000000
   38       33.427405   0.000000
   39       33.427405   0.000000
   40       33.427405   0.000000
 
  0.2000000E+00  0.0000000E+00  0.0000000E+00  0.4800000E-01
    1       -1.467233   1.000000
    2        1.954790   1.000000
    3        2.184851   1.000000
    4        2.184851   1.000000
    5        2.818050   1.000000
    6        2.849424   1.000000
    7        2.849424   1.000000
    8        4.871419   1.000000
    9        5.360927   1.000000
   10        5.360927   1.000000
   11        6.455574   1.020483
   12        6.598289   1.018132
   13        6.598289   1.018132
   14        6.808598   0.408600
   15        7.408422  -0.000050
   16        7.408422  -0.000050
   17        7.654874  -0.000000
   18        7.668729  -0.000000
   19        7.668729  -0.000000
   20        8.046471  -0.000000
   21        8.046471  -0.000000
   22        8.241187  -0.000000
   23       11.915962  -0.000000
   24       11.915962  -0.000000
   25       18.562029   0.000000
   26       18.562029   0.000000
   27       21.112123   0.000000
   28       21.112123   0.000000
   29       21.147107   0.000000
   30       22.010623   0.000000
   31       22.010623   0.000000
   32       24.015937   0.000000
   33       24.015937   0.000000
   34       28.810685   0.000000
   35       29.801223   0.000000
   36       31.079875   0.000000
   37       31.079875   0.000000
   38       33.176028   0.000000
   39       33.388136   0.000000
   40       33.388161   0.000000
 
  0.4000000E+00  0.0000000E+00  0.0000000E+00  0.4800000E-01
    1        0.044380   1.000000
    2        1.634991   1.000000
    3        2.864225   1.000000
    4        2.864225   1.000000
    5        3.402245   1.000000
    6        3.619303   1.000000
    7        3.619303   1.000000
    8        4.183550   1.000000
    9        4.889207   1.000000
   10        4.889207   1.000000
   11        5.910652   1.000000
   12        5.960577   1.000000
   13        5.960577   1.000000
   14        6.077566   1.000003
   15        6.712925   0.790394
   16        6.712925   0.790394
   17        6.817766   0.370925
   18        6.817766   0.370925
   19        7.059848  -0.032973
   20        7.377784  -0.000120
   21        8.041954  -0.000000
   22        8.041954  -0.000000
   23       14.781945   0.000000
   24       14.781945   0.000000
   25       17.931163   0.000000
   26       17.931163   0.000000
   27       18.572940   0.000000
   28       18.572940   0.000000
   29       20.722365   0.000000
   30       20.722365   0.000000
   31       25.722888   0.000000
   32       26.471444   0.000000
   33       26.471444   0.000000
   34       28.892656   0.000000
   35       29.231195   0.000000
   36       29.747839   0.000000
   37       29.832295   0.000000
   38       29.832295   0.000000
   39       34.958943   0.000000
   40       35.726203   0.000000
 
  0.2000000E+00  0.2000000E+00  0.0000000E+00  0.9600000E-01
    1       -0.931886   1.000000
    2        2.313536   1.000000
    3        2.313536   1.000000
    4        2.481132   1.000000
    5        3.039588   1.000000
    6        3.039588   1.000000
    7        3.055893   1.000000
    8        4.763141   1.000000
    9        5.431716   1.000000
   10        5.451371   1.000000
   11        6.020092   1.000000
   12        6.027313   1.000001
   13        6.027313   1.000001
   14        6.416390   1.012502
   15        6.842343   0.274933
   16        7.153791  -0.013135
   17        7.370787  -0.000145
   18        7.370787  -0.000145
   19        7.662175  -0.000000
   20        7.662175  -0.000000
   21        7.797155  -0.000000
   22       10.078553  -0.000000
   23       10.078553  -0.000000
   24       13.138544   0.000000
   25       17.357614   0.000000
   26       19.197024   0.000000
   27       21.148301   0.000000
   28       21.148301   0.000000
   29       21.880192   0.000000
   30       21.880192   0.000000
   31       22.955568   0.000000
   32       22.955568   0.000000
   33       24.864848   0.000000
   34       28.423693   0.000000
   35       29.649924   0.000000
   36       30.087592   0.000000
   37       31.310200   0.000000
   38       31.310200   0.000000
   39       34.331185   0.000000
   40       36.082868   0.000000
 
  0.4000000E+00  0.2000000E+00  0.0000000E+00  0.1920000E+00
    1        0.506464   1.000000
    2        2.038885   1.000000
    3        3.093964   1.000000
    4        3.156127   1.000000
    5        3.555640   1.000000
    6        3.581195   1.000000
    7        3.726476   1.000000
    8        4.228401   1.000000
    9        4.528934   1.000000
   10        4.800737   1.000000
   11        5.221992   1.000000
   12        5.401808   1.000000
   13        5.975963   1.000000
   14        6.272727   1.000840
   15        6.607633   1.010719
   16        6.711623   0.794741
   17        6.813904   0.386704
   18        6.881210   0.145801
   19        7.303804  -0.000786
   20        7.658127  -0.000000
   21        7.675115  -0.000000
   22        8.150953  -0.000000
   23       12.263134   0.000000
   24       14.593370   0.000000
   25       15.670849   0.000000
   26       18.697324   0.000000
   27       19.463080   0.000000
   28       20.371695   0.000000
   29       22.814052   0.000000
   30       23.787647   0.000000
   31       24.045191   0.000000
   32       24.256596   0.000000
   33       26.128717   0.000000
   34       26.589594   0.000000
   35       26.999034   0.000000
   36       32.120078   0.000000
   37       32.274995   0.000000
   38       33.307212   0.000000
   39       33.524677   0.000000
   40       36.091046   0.000000
 
  0.4000000E+00  0.4000000E+00  0.0000000E+00  0.9600000E-01
    1        1.698766   1.000000
    2        2.952362   1.000000
    3        2.952362   1.000000
    4        3.456985   1.000000
    5        3.841558   1.000000
    6        3.980421   1.000000
    7        3.980421   1.000000
    8        4.200692   1.000000
    9        4.415897   1.000000
   10        4.415897   1.000000
   11        4.483450   1.000000
   12        5.041201   1.000000
   13        6.016726   1.000000
   14        6.217630   1.000215
   15        6.268116   1.000754
   16        6.347098   1.003994
   17        6.347098   1.003994
   18        6.865384   0.194415
   19        6.865384   0.194415
   20        7.116098  -0.020945
   21        8.219448  -0.000000
   22        9.682286  -0.000000
   23        9.682286  -0.000000
   24       11.647245  -0.000000
   25       17.822031   0.000000
   26       20.287026   0.000000
   27       20.615328   0.000000
   28       20.615328   0.000000
   29       21.819129   0.000000
   30       21.819129   0.000000
   31       23.158178   0.000000
   32       23.831974   0.000000
   33       28.094255   0.000000
   34       28.094255   0.000000
   35       29.290979   0.000000
   36       30.801897   0.000000
   37       33.272831   0.000000
   38       34.844197   0.000000
   39       35.860592   0.000000
   40       35.860592   0.000000
 
  0.2000000E+00  0.2000000E+00  0.2000000E+00  0.6400000E-01
    1       -0.439584   1.000000
    2        2.586801   1.000000
    3        2.586801   1.000000
    4        2.586801   1.000000
    5        3.242121   1.000000
    6        3.242121   1.000000
    7        3.242121   1.000000
    8        4.707756   1.000000
    9        5.442600   1.000000
   10        5.442600   1.000000
   11        5.607320   1.000000
   12        5.607320   1.000000
   13        5.607320   1.000000
   14        6.691369   0.857453
   15        6.691369   0.857453
   16        6.739319   0.694985
   17        6.739319   0.694985
   18        6.739319   0.694985
   19        7.882921  -0.000000
   20        7.882921  -0.000000
   21        7.882921  -0.000000
   22       10.904324  -0.000000
   23       10.904324  -0.000000
   24       10.904324  -0.000000
   25       18.460782   0.000000
   26       18.460782   0.000000
   27       18.460782   0.000000
   28       21.849990   0.000000
   29       21.849990   0.000000
   30       21.849990   0.000000
   31       25.602883   0.000000
   32       25.654358   0.000000
   33       25.654358   0.000000
   34       25.654358   0.000000
   35       30.269540   0.000000
   36       30.269540   0.000000
   37       30.269540   0.000000
   38       31.061373   0.000000
   39       34.695752   0.000000
   40       34.695752   0.000000
 
  0.4000000E+00  0.2000000E+00  0.2000000E+00  0.1920000E+00
    1        0.860905   1.000000
    2        2.239884   1.000000
    3        3.176557   1.000000
    4        3.176557   1.000000
    5        3.631251   1.000000
    6        3.631251   1.000000
    7        3.789919   1.000000
    8        4.366678   1.000000
    9        4.808922   1.000000
   10        4.808922   1.000000
   11        5.063199   1.000000
   12        5.324521   1.000000
   13        5.615948   1.000000
   14        6.089914   1.000005
   15        6.314521   1.002101
   16        6.314521   1.002101
   17        6.847017   0.257757
   18        7.232962  -0.003542
   19        7.705038  -0.000000
   20        7.705038  -0.000000
   21        7.708749  -0.000000
   22        8.285829  -0.000000
   23       12.374057   0.000000
   24       12.374057   0.000000
   25       15.927067   0.000000
   26       15.927067   0.000000
   27       20.312963   0.000000
   28       22.632793   0.000000
   29       22.632793   0.000000
   30       22.705089   0.000000
   31       24.908218   0.000000
   32       24.908218   0.000000
   33       26.535012   0.000000
   34       27.859434   0.000000
   35       29.543283   0.000000
   36       31.067869   0.000000
   37       31.134744   0.000000
   38       33.369483   0.000000
   39       33.369483   0.000000
   40       34.681037   0.000000
 
  0.4000000E+00  0.4000000E+00  0.2000000E+00  0.1920000E+00
    1        1.706245   1.000000
    2        2.583357   1.000000
    3        2.583357   1.000000
    4        2.889644   1.000000
    5        4.139420   1.000000
    6        4.342432   1.000000
    7        4.342432   1.000000
    8        4.691324   1.000000
    9        4.874027   1.000000
   10        4.874027   1.000000
   11        5.058981   1.000000
   12        5.124883   1.000000
   13        5.450543   1.000000
   14        5.765190   1.000000
   15        5.765190   1.000000
   16        5.799373   1.000000
   17        6.918659   0.055258
   18        7.462565  -0.000010
   19        7.462565  -0.000010
   20        7.508441  -0.000002
   21        7.982881  -0.000000
   22        9.510980  -0.000000
   23        9.510980  -0.000000
   24       11.148344  -0.000000
   25       15.639796   0.000000
   26       17.488532   0.000000
   27       17.488532   0.000000
   28       19.756574   0.000000
   29       23.821741   0.000000
   30       25.578288   0.000000
   31       25.578288   0.000000
   32       27.598984   0.000000
   33       28.539775   0.000000
   34       28.539775   0.000000
   35       29.804048   0.000000
   36       30.767646   0.000000
   37       32.425196   0.000000
   38       33.690089   0.000000
   39       33.690089   0.000000
   40       35.208833   0.000000
 
  0.4000000E+00  0.4000000E+00  0.4000000E+00  0.6400000E-01
    1        1.818996   1.000000
    2        2.206355   1.000000
    3        2.206355   1.000000
    4        2.206355   1.000000
    5        4.783096   1.000000
    6        4.783096   1.000000
    7        4.783096   1.000000
    8        5.151305   1.000000
    9        5.151305   1.000000
   10        5.286347   1.000000
   11        5.286347   1.000000
   12        5.286347   1.000000
   13        5.847584   1.000000
   14        5.847584   1.000000
   15        5.847584   1.000000
   16        5.934695   1.000000
   17        7.565485  -0.000000
   18        7.565485  -0.000000
   19        7.793821  -0.000000
   20        7.793821  -0.000000
   21        7.793821  -0.000000
   22        9.084471  -0.000000
   23        9.084471  -0.000000
   24        9.084471  -0.000000
   25       15.424096   0.000000
   26       15.424096   0.000000
   27       15.424096   0.000000
   28       17.020143   0.000000
   29       27.788583   0.000000
   30       27.788583   0.000000
   31       27.788583   0.000000
   32       29.089679   0.000000
   33       31.381087   0.000000
   34       31.381087   0.000000
   35       31.381087   0.000000
   36       31.858317   0.000000
   37       31.858317   0.000000
   38       31.858317   0.000000
   39       33.970048   0.000000
   40       33.970048   0.000000
