       N       E                     dE             d eps       ncg     rms          rms(c)
DAV:   1     0.142085802307E+03    0.14209E+03   -0.77623E+03   864   0.595E+02
DAV:   2    -0.282837727255E+02   -0.17037E+03   -0.15001E+03   840   0.169E+02
DAV:   3    -0.384184360120E+02   -0.10135E+02   -0.93888E+01   904   0.492E+01
DAV:   4    -0.385152806001E+02   -0.96845E-01   -0.96745E-01   880   0.548E+00
DAV:   5    -0.385161292160E+02   -0.84862E-03   -0.84860E-03   872   0.418E-01    0.242E+01
DAV:   6    -0.325862569059E+02    0.59299E+01   -0.12695E+01   880   0.476E+01    0.330E+00
DAV:   7    -0.322561833145E+02    0.33007E+00   -0.10375E+00   968   0.114E+01    0.134E+00
DAV:   8    -0.322061067882E+02    0.50077E-01   -0.10774E-02  1016   0.732E-01    0.617E-01
DAV:   9    -0.321858908660E+02    0.20216E-01   -0.44084E-03  1000   0.374E-01    0.687E-02
DAV:  10    -0.321859058196E+02   -0.14954E-04   -0.33094E-04   912   0.946E-02    0.390E-02
DAV:  11    -0.321858937959E+02    0.12024E-04   -0.31731E-06   928   0.154E-02    0.209E-02
DAV:  12    -0.321858905649E+02    0.32309E-05   -0.20624E-06   880   0.887E-03    0.206E-03
DAV:  13    -0.321858916749E+02   -0.11100E-05   -0.16908E-07   472   0.208E-03    0.980E-04
DAV:  14    -0.321858920796E+02   -0.40470E-06   -0.19052E-08   456   0.998E-04
   1 F= -.32185892E+02 E0= -.32168473E+02  d E =-.522559E-01
