   4   4   0   0
  0.1020639E+02  0.3443320E-09  0.3443320E-09  0.3443320E-09  0.5000000E-15
  1.000000000000000E-004
  CAR 
 unknown system                          
     33.00431054     -2.98324582  301      9.58250829      1.00000000
     -2.983  0.0000E+00  0.0000E+00
     -2.863  0.0000E+00  0.0000E+00
     -2.743  0.0000E+00  0.0000E+00
     -2.623 -0.3289E-30 -0.3946E-31
     -2.503 -0.3983E-26 -0.4778E-27
     -2.383 -0.2334E-22 -0.2800E-23
     -2.263 -0.6610E-19 -0.7932E-20
     -2.144 -0.8783E-16 -0.1054E-16
     -2.024 -0.5735E-13 -0.6890E-14
     -1.904 -0.1796E-10 -0.2161E-11
     -1.784 -0.2679E-08 -0.3235E-09
     -1.664 -0.1889E-06 -0.2298E-07
     -1.544 -0.6219E-05 -0.7691E-06
     -1.424 -0.9414E-04 -0.1206E-04
     -1.304 -0.6394E-03 -0.8876E-04
     -1.184 -0.1784E-02 -0.3027E-03
     -1.064  0.1389E-03 -0.2861E-03
     -0.944  0.1776E-01  0.1845E-02
     -0.824  0.6654E-01  0.9827E-02
     -0.704  0.1362E+00  0.2616E-01
     -0.584  0.1751E+00  0.4717E-01
     -0.464  0.1467E+00  0.6476E-01
     -0.344  0.1189E+00  0.7903E-01
     -0.224  0.2079E+00  0.1040E+00
     -0.104  0.3703E+00  0.1484E+00
      0.016  0.3869E+00  0.1948E+00
      0.136  0.2053E+00  0.2194E+00
      0.256  0.9447E-01  0.2308E+00
      0.376  0.2353E+00  0.2590E+00
      0.496  0.4320E+00  0.3108E+00
      0.616  0.4874E+00  0.3693E+00
      0.735  0.4468E+00  0.4229E+00
      0.855  0.3411E+00  0.4638E+00
      0.975  0.2606E+00  0.4951E+00
      1.095  0.4424E+00  0.5481E+00
      1.215  0.6570E+00  0.6269E+00
      1.335  0.4374E+00  0.6794E+00
      1.455  0.1645E+00  0.6991E+00
      1.575  0.3886E+00  0.7457E+00
      1.695  0.7208E+00  0.8322E+00
      1.815  0.7238E+00  0.9190E+00
      1.935  0.5695E+00  0.9874E+00
      2.055  0.6443E+00  0.1065E+01
      2.175  0.8837E+00  0.1171E+01
      2.295  0.6636E+00  0.1250E+01
      2.415  0.2654E+00  0.1282E+01
      2.535  0.3503E+00  0.1324E+01
      2.655  0.8974E+00  0.1432E+01
      2.775  0.1350E+01  0.1594E+01
      2.895  0.1182E+01  0.1735E+01
      3.015  0.9601E+00  0.1851E+01
      3.135  0.9854E+00  0.1969E+01
      3.255  0.8986E+00  0.2077E+01
      3.375  0.1125E+01  0.2212E+01
      3.495  0.1981E+01  0.2449E+01
      3.614  0.2785E+01  0.2783E+01
      3.734  0.3189E+01  0.3166E+01
      3.854  0.3434E+01  0.3578E+01
      3.974  0.3793E+01  0.4033E+01
      4.094  0.4596E+01  0.4584E+01
      4.214  0.4773E+01  0.5157E+01
      4.334  0.4824E+01  0.5735E+01
      4.454  0.6110E+01  0.6468E+01
      4.574  0.7288E+01  0.7342E+01
      4.694  0.7811E+01  0.8279E+01
      4.814  0.7859E+01  0.9222E+01
      4.934  0.7253E+01  0.1009E+02
      5.054  0.6808E+01  0.1091E+02
      5.174  0.6834E+01  0.1173E+02
      5.294  0.6828E+01  0.1255E+02
      5.414  0.7090E+01  0.1340E+02
      5.534  0.8379E+01  0.1440E+02
      5.654  0.1015E+02  0.1562E+02
      5.774  0.1010E+02  0.1683E+02
      5.894  0.1012E+02  0.1805E+02
      6.014  0.1211E+02  0.1950E+02
      6.134  0.1385E+02  0.2116E+02
      6.254  0.1378E+02  0.2281E+02
      6.374  0.1176E+02  0.2423E+02
      6.493  0.9291E+01  0.2534E+02
      6.613  0.8411E+01  0.2635E+02
      6.733  0.9197E+01  0.2745E+02
      6.853  0.1030E+02  0.2869E+02
      6.973  0.1128E+02  0.3004E+02
      7.093  0.1160E+02  0.3143E+02
      7.213  0.1055E+02  0.3270E+02
      7.333  0.9933E+01  0.3389E+02
      7.453  0.1042E+02  0.3514E+02
      7.573  0.1218E+02  0.3660E+02
      7.693  0.1557E+02  0.3847E+02
      7.813  0.1563E+02  0.4034E+02
      7.933  0.1045E+02  0.4160E+02
      8.053  0.4849E+01  0.4218E+02
      8.173  0.1597E+01  0.4237E+02
      8.293  0.3116E+00  0.4241E+02
      8.413  0.4203E+00  0.4246E+02
      8.533  0.1482E+01  0.4264E+02
      8.653  0.2185E+01  0.4290E+02
      8.773  0.1675E+01  0.4310E+02
      8.893  0.1014E+01  0.4322E+02
      9.013  0.8686E+00  0.4333E+02
      9.133  0.1046E+01  0.4345E+02
      9.253  0.1358E+01  0.4361E+02
      9.372  0.1406E+01  0.4378E+02
      9.492  0.1055E+01  0.4391E+02
      9.612  0.1033E+01  0.4403E+02
      9.732  0.1120E+01  0.4417E+02
      9.852  0.7994E+00  0.4426E+02
      9.972  0.5520E+00  0.4433E+02
     10.092  0.8197E+00  0.4443E+02
     10.212  0.1322E+01  0.4459E+02
     10.332  0.1449E+01  0.4476E+02
     10.452  0.1385E+01  0.4493E+02
     10.572  0.1621E+01  0.4512E+02
     10.692  0.1209E+01  0.4527E+02
     10.812  0.4676E+00  0.4532E+02
     10.932  0.4010E+00  0.4537E+02
     11.052  0.6645E+00  0.4545E+02
     11.172  0.7402E+00  0.4554E+02
     11.292  0.7160E+00  0.4562E+02
     11.412  0.9105E+00  0.4573E+02
     11.532  0.1128E+01  0.4587E+02
     11.652  0.1301E+01  0.4603E+02
     11.772  0.1458E+01  0.4620E+02
     11.892  0.1098E+01  0.4633E+02
     12.012  0.4777E+00  0.4639E+02
     12.132  0.6856E+00  0.4647E+02
     12.251  0.1228E+01  0.4662E+02
     12.371  0.7960E+00  0.4671E+02
     12.491  0.2846E+00  0.4675E+02
     12.611  0.3141E+00  0.4679E+02
     12.731  0.3910E+00  0.4683E+02
     12.851  0.6353E+00  0.4691E+02
     12.971  0.9462E+00  0.4702E+02
     13.091  0.8017E+00  0.4712E+02
     13.211  0.4164E+00  0.4717E+02
     13.331  0.6612E+00  0.4725E+02
     13.451  0.1156E+01  0.4739E+02
     13.571  0.8822E+00  0.4749E+02
     13.691  0.2857E+00  0.4753E+02
     13.811  0.9191E-01  0.4754E+02
     13.931  0.8881E-01  0.4755E+02
     14.051  0.3152E+00  0.4759E+02
     14.171  0.1046E+01  0.4771E+02
     14.291  0.1520E+01  0.4789E+02
     14.411  0.1151E+01  0.4803E+02
     14.531  0.6714E+00  0.4811E+02
     14.651  0.6108E+00  0.4819E+02
     14.771  0.7134E+00  0.4827E+02
     14.891  0.1048E+01  0.4840E+02
     15.011  0.1534E+01  0.4858E+02
     15.130  0.1302E+01  0.4874E+02
     15.250  0.8678E+00  0.4884E+02
     15.370  0.1146E+01  0.4898E+02
     15.490  0.1609E+01  0.4917E+02
     15.610  0.1487E+01  0.4935E+02
     15.730  0.7074E+00  0.4944E+02
     15.850  0.3525E+00  0.4948E+02
     15.970  0.9664E+00  0.4959E+02
     16.090  0.1664E+01  0.4979E+02
     16.210  0.1246E+01  0.4994E+02
     16.330  0.6159E+00  0.5002E+02
     16.450  0.9153E+00  0.5013E+02
     16.570  0.1241E+01  0.5028E+02
     16.690  0.7137E+00  0.5036E+02
     16.810  0.2853E+00  0.5040E+02
     16.930  0.4917E+00  0.5045E+02
     17.050  0.7523E+00  0.5054E+02
     17.170  0.8733E+00  0.5065E+02
     17.290  0.9462E+00  0.5076E+02
     17.410  0.1366E+01  0.5093E+02
     17.530  0.1477E+01  0.5110E+02
     17.650  0.8284E+00  0.5120E+02
     17.770  0.6949E+00  0.5129E+02
     17.890  0.1151E+01  0.5142E+02
     18.009  0.1532E+01  0.5161E+02
     18.129  0.1495E+01  0.5179E+02
     18.249  0.7110E+00  0.5187E+02
     18.369  0.2368E+00  0.5190E+02
     18.489  0.7163E+00  0.5199E+02
     18.609  0.1082E+01  0.5212E+02
     18.729  0.8590E+00  0.5222E+02
     18.849  0.9557E+00  0.5233E+02
     18.969  0.1802E+01  0.5255E+02
     19.089  0.2181E+01  0.5281E+02
     19.209  0.1692E+01  0.5302E+02
     19.329  0.1324E+01  0.5317E+02
     19.449  0.1072E+01  0.5330E+02
     19.569  0.9991E+00  0.5342E+02
     19.689  0.1256E+01  0.5357E+02
     19.809  0.1908E+01  0.5380E+02
     19.929  0.2300E+01  0.5408E+02
     20.049  0.1627E+01  0.5427E+02
     20.169  0.1224E+01  0.5442E+02
     20.289  0.1086E+01  0.5455E+02
     20.409  0.6453E+00  0.5463E+02
     20.529  0.5086E+00  0.5469E+02
     20.649  0.8179E+00  0.5479E+02
     20.769  0.1485E+01  0.5496E+02
     20.888  0.1825E+01  0.5518E+02
     21.008  0.1666E+01  0.5538E+02
     21.128  0.1421E+01  0.5555E+02
     21.248  0.1122E+01  0.5569E+02
     21.368  0.9000E+00  0.5580E+02
     21.488  0.1144E+01  0.5593E+02
     21.608  0.1673E+01  0.5613E+02
     21.728  0.1840E+01  0.5636E+02
     21.848  0.1739E+01  0.5656E+02
     21.968  0.1997E+01  0.5680E+02
     22.088  0.2335E+01  0.5708E+02
     22.208  0.1434E+01  0.5726E+02
     22.328  0.4118E+00  0.5730E+02
     22.448  0.4294E+00  0.5736E+02
     22.568  0.8776E+00  0.5746E+02
     22.688  0.1373E+01  0.5763E+02
     22.808  0.1892E+01  0.5785E+02
     22.928  0.1895E+01  0.5808E+02
     23.048  0.1571E+01  0.5827E+02
     23.168  0.1111E+01  0.5840E+02
     23.288  0.6861E+00  0.5848E+02
     23.408  0.7705E+00  0.5858E+02
     23.528  0.9586E+00  0.5869E+02
     23.648  0.9772E+00  0.5881E+02
     23.768  0.1000E+01  0.5893E+02
     23.887  0.9230E+00  0.5904E+02
     24.007  0.6034E+00  0.5911E+02
     24.127  0.3693E+00  0.5916E+02
     24.247  0.1984E+00  0.5918E+02
     24.367  0.1004E+00  0.5919E+02
     24.487  0.3499E+00  0.5923E+02
     24.607  0.5120E+00  0.5930E+02
     24.727  0.2259E+00  0.5932E+02
     24.847 -0.4691E-02  0.5932E+02
     24.967 -0.2098E-01  0.5932E+02
     25.087 -0.9379E-02  0.5932E+02
     25.207 -0.2197E-01  0.5932E+02
     25.327  0.5617E-02  0.5932E+02
     25.447  0.2456E+00  0.5935E+02
     25.567  0.6226E+00  0.5942E+02
     25.687  0.6134E+00  0.5949E+02
     25.807  0.2095E+00  0.5952E+02
     25.927  0.6327E-01  0.5953E+02
     26.047  0.2203E+00  0.5955E+02
     26.167  0.2122E+00  0.5958E+02
     26.287  0.4352E-01  0.5958E+02
     26.407 -0.3126E-01  0.5958E+02
     26.527  0.2655E-01  0.5958E+02
     26.647  0.2569E+00  0.5961E+02
     26.766  0.4146E+00  0.5966E+02
     26.886  0.2347E+00  0.5969E+02
     27.006  0.2295E-01  0.5970E+02
     27.126 -0.2650E-01  0.5969E+02
     27.246 -0.3169E-01  0.5969E+02
     27.366  0.5873E-01  0.5970E+02
     27.486  0.3791E+00  0.5974E+02
     27.606  0.5147E+00  0.5980E+02
     27.726  0.2126E+00  0.5983E+02
     27.846 -0.8205E-02  0.5983E+02
     27.966 -0.1993E-01  0.5982E+02
     28.086 -0.7215E-02  0.5982E+02
     28.206 -0.1311E-01  0.5982E+02
     28.326  0.1904E-01  0.5982E+02
     28.446  0.1707E+00  0.5985E+02
     28.566  0.2629E+00  0.5988E+02
     28.686  0.1254E+00  0.5989E+02
     28.806  0.1079E-02  0.5989E+02
     28.926 -0.1103E-01  0.5989E+02
     29.046 -0.4000E-02  0.5989E+02
     29.166 -0.9982E-02  0.5989E+02
     29.286 -0.4010E-02  0.5989E+02
     29.406  0.1067E+00  0.5990E+02
     29.526  0.2575E+00  0.5993E+02
     29.645  0.1892E+00  0.5995E+02
     29.765  0.2940E-01  0.5996E+02
     29.885 -0.1320E-01  0.5996E+02
     30.005 -0.4484E-02  0.5996E+02
     30.125 -0.4619E-03  0.5996E+02
     30.245 -0.2011E-04  0.5996E+02
     30.365 -0.1119E-04  0.5996E+02
     30.485 -0.2627E-03  0.5996E+02
     30.605 -0.2693E-02  0.5996E+02
     30.725 -0.8714E-02  0.5995E+02
     30.845  0.1569E-01  0.5996E+02
     30.965  0.1194E+00  0.5997E+02
     31.085  0.1739E+00  0.5999E+02
     31.205  0.7789E-01  0.6000E+02
     31.325 -0.9311E-03  0.6000E+02
     31.445 -0.6949E-02  0.6000E+02
     31.565 -0.1340E-02  0.6000E+02
     31.685 -0.9566E-04  0.6000E+02
     31.805 -0.2978E-05  0.6000E+02
     31.925 -0.4260E-07  0.6000E+02
     32.045 -0.2864E-09  0.6000E+02
     32.165 -0.9152E-12  0.6000E+02
     32.285 -0.1381E-14  0.6000E+02
     32.405  0.0000E+00  0.6000E+02
     32.524  0.0000E+00  0.6000E+02
     32.644  0.0000E+00  0.6000E+02
     32.764  0.0000E+00  0.6000E+02
     32.884  0.0000E+00  0.6000E+02
     33.004  0.0000E+00  0.6000E+02
