unknown system                          
   1.00000000000000     
     3.573378    0.000000    0.000000
     0.000000    3.573378    0.000000
     0.000000    0.000000    3.573378
   Pd   Ir   Pt   Cu
     1     1     1     1
Direct
  0.000000  0.000000  0.000000
  0.500000  0.500000  0.000000
  0.500000  0.000000  0.500000
  0.000000  0.500000  0.500000
 
   28   28   28
  281.26      267.11      231.27      187.31      144.58      105.15      69.780      42.375      26.307      18.975    
  15.017      12.665      11.453      11.215      11.289      11.215      11.453      12.665      15.017      18.975    
  26.307      42.375      69.780      105.15      144.58      187.31      231.27      267.11      267.27      253.90    
  219.99      178.22      137.47      99.891      66.430      40.743      25.786      18.859      15.066      12.821    
  11.666      11.432      11.496      11.432      11.666      12.821      15.066      18.859      25.786      40.743    
  66.430      99.891      137.47      178.22      219.99      253.90      231.19      219.80      190.71      154.48    
  118.82      86.165      57.775      36.609      24.512      18.618      15.311      13.394      12.424      12.224    
  12.273      12.224      12.424      13.394      15.311      18.618      24.512      36.609      57.775      86.165    
  118.82      154.48      190.71      219.80      185.62      176.58      153.30      123.90      94.803      68.708    
  47.042      31.699      23.114      18.525      15.993      14.627      14.005      13.924      13.981      13.924    
  14.005      14.627      15.993      18.525      23.114      31.699      47.042      68.708      94.803      123.90    
  153.30      176.58      140.53      133.70      115.96      93.391      71.215      52.113      37.328      27.580    
  22.082      18.931      17.422      16.834      16.755      16.936      17.055      16.936      16.755      16.834    
  17.422      18.931      22.082      27.580      37.328      52.113      71.215      93.391      115.96      133.70    
  99.878      95.057      82.525      66.630      51.385      39.008      30.260      24.908      21.729      20.204    
  19.937      20.398      21.203      21.966      22.284      21.966      21.203      20.398      19.937      20.204    
  21.729      24.908      30.260      39.008      51.385      66.630      82.525      95.057      65.371      62.426    
  54.816      45.333      36.609      30.064      25.908      23.468      22.381      22.641      24.078      26.304    
  28.742      30.664      31.398      30.664      28.742      26.304      24.078      22.641      22.381      23.468    
  25.908      30.064      36.609      45.333      54.816      62.426      39.807      38.420      34.895      30.670    
  27.057      24.659      23.362      23.163      24.237      26.745      30.547      35.166      39.756      43.200    
  44.486      43.200      39.756      35.166      30.547      26.745      24.237      23.163      23.362      24.659    
  27.057      30.670      34.895      38.420      24.922      24.499      23.468      22.348      21.553      21.374    
  22.139      24.090      27.575      32.621      38.926      45.879      52.460      57.288      59.076      57.288    
  52.460      45.879      38.926      32.621      27.575      24.090      22.139      21.374      21.553      22.348    
  23.468      24.499      17.851      17.776      17.647      17.705      18.263      19.658      22.178      26.324    
  32.304      39.742      48.049      56.595      64.444      70.167      72.290      70.167      64.444      56.595    
  48.049      39.742      32.304      26.324      22.178      19.658      18.263      17.705      17.647      17.776    
  13.907      13.974      14.271      15.030      16.546      19.130      23.276      29.670      38.069      47.502    
  57.110      66.477      75.025      81.367      83.755      81.367      75.025      66.477      57.110      47.502    
  38.069      29.670      23.276      19.130      16.546      15.030      14.271      13.974      11.540      11.697    
  12.273      13.518      15.740      19.292      25.062      33.684      44.342      55.440      65.993      76.044    
  85.477      92.775      95.593      92.775      85.477      76.044      65.993      55.440      44.342      33.684    
  25.062      19.292      15.740      13.518      12.273      11.697      10.323      10.522      11.242      12.776    
  15.470      19.804      27.038      37.651      50.283      62.833      74.375      85.512      96.493      105.37    
  108.88      105.37      96.493      85.512      74.375      62.833      50.283      37.651      27.038      19.804    
  15.470      12.776      11.242      10.522      10.069      10.262      10.992      12.608      15.511      20.345    
  28.603      40.628      54.671      68.331      80.816      93.188      105.88      116.41      120.62      116.41    
  105.88      93.188      80.816      68.331      54.671      40.628      28.603      20.345      15.511      12.608    
  10.992      10.262      10.131      10.313      11.020      12.631      15.579      20.578      29.202      41.742    
  56.305      70.396      83.289      96.221      109.67      120.93      125.44      120.93      109.67      96.221    
  83.289      70.396      56.305      41.742      29.202      20.578      15.579      12.631      11.020      10.313    
  10.069      10.262      10.992      12.608      15.511      20.345      28.603      40.628      54.671      68.331    
  80.816      93.188      105.88      116.41      120.62      116.41      105.88      93.188      80.816      68.331    
  54.671      40.628      28.603      20.345      15.511      12.608      10.992      10.262      10.323      10.522    
  11.242      12.776      15.470      19.804      27.038      37.651      50.283      62.833      74.375      85.512    
  96.493      105.37      108.88      105.37      96.493      85.512      74.375      62.833      50.283      37.651    
  27.038      19.804      15.470      12.776      11.242      10.522      11.540      11.697      12.273      13.518    
  15.740      19.292      25.062      33.684      44.342      55.440      65.993      76.044      85.477      92.775    
  95.593      92.775      85.477      76.044      65.993      55.440      44.342      33.684      25.062      19.292    
  15.740      13.518      12.273      11.697      13.907      13.974      14.271      15.030      16.546      19.130    
  23.276      29.670      38.069      47.502      57.110      66.477      75.025      81.367      83.755      81.367    
  75.025      66.477      57.110      47.502      38.069      29.670      23.276      19.130      16.546      15.030    
  14.271      13.974      17.851      17.776      17.647      17.705      18.263      19.658      22.178      26.324    
  32.304      39.742      48.049      56.595      64.444      70.167      72.290      70.167      64.444      56.595    
  48.049      39.742      32.304      26.324      22.178      19.658      18.263      17.705      17.647      17.776    
  24.922      24.499      23.468      22.348      21.553      21.374      22.139      24.090      27.575      32.621    
  38.926      45.879      52.460      57.288      59.076      57.288      52.460      45.879      38.926      32.621    
  27.575      24.090      22.139      21.374      21.553      22.348      23.468      24.499      39.807      38.420    
  34.895      30.670      27.057      24.659      23.362      23.163      24.237      26.745      30.547      35.166    
  39.756      43.200      44.486      43.200      39.756      35.166      30.547      26.745      24.237      23.163    
  23.362      24.659      27.057      30.670      34.895      38.420      65.371      62.426      54.816      45.333    
  36.609      30.064      25.908      23.468      22.381      22.641      24.078      26.304      28.742      30.664    
  31.398      30.664      28.742      26.304      24.078      22.641      22.381      23.468      25.908      30.064    
  36.609      45.333      54.816      62.426      99.878      95.057      82.525      66.630      51.385      39.008    
  30.260      24.908      21.729      20.204      19.937      20.398      21.203      21.966      22.284      21.966    
  21.203      20.398      19.937      20.204      21.729      24.908      30.260      39.008      51.385      66.630    
  82.525      95.057      140.53      133.70      115.96      93.391      71.215      52.113      37.328      27.580    
  22.082      18.931      17.422      16.834      16.755      16.936      17.055      16.936      16.755      16.834    
  17.422      18.931      22.082      27.580      37.328      52.113      71.215      93.391      115.96      133.70    
  185.62      176.58      153.30      123.90      94.803      68.708      47.042      31.699      23.114      18.525    
  15.993      14.627      14.005      13.924      13.981      13.924      14.005      14.627      15.993      18.525    
  23.114      31.699      47.042      68.708      94.803      123.90      153.30      176.58      231.19      219.80    
  190.71      154.48      118.82      86.165      57.775      36.609      24.512      18.618      15.311      13.394    
  12.424      12.224      12.273      12.224      12.424      13.394      15.311      18.618      24.512      36.609    
  57.775      86.165      118.82      154.48      190.71      219.80      267.27      253.90      219.99      178.22    
  137.47      99.891      66.430      40.743      25.786      18.859      15.066      12.821      11.666      11.432    
  11.496      11.432      11.666      12.821      15.066      18.859      25.786      40.743      66.430      99.891    
  137.47      178.22      219.99      253.90      267.40      254.06      220.21      178.48      137.68      100.03    
  66.483      40.745      25.771      18.839      15.037      12.777      11.605      11.355      11.414      11.355    
  11.605      12.777      15.037      18.839      25.771      40.745      66.483      100.03      137.68      178.48    
  220.21      254.06      254.64      242.00      209.86      170.07      131.06      95.121      63.363      39.234    
  25.288      18.727      15.087      12.933      11.816      11.572      11.623      11.572      11.816      12.933    
  15.087      18.727      25.288      39.234      63.363      95.121      131.06      170.07      209.86      242.00    
  221.49      210.62      182.79      147.99      113.64      82.284      55.291      35.399      24.105      18.497    
  15.330      13.495      12.561      12.354      12.394      12.354      12.561      13.495      15.330      18.497    
  24.105      35.399      55.291      82.284      113.64      147.99      182.79      210.62      178.98      170.25    
  147.73      119.22      91.021      65.882      45.257      30.834      22.789      18.407      15.994      14.695    
  14.101      14.017      14.068      14.017      14.101      14.695      15.994      18.407      22.789      30.834    
  45.257      65.882      91.021      119.22      147.73      170.25      136.04      129.39      112.13      90.142    
  68.606      50.206      36.147      26.985      21.787      18.793      17.372      16.829      16.767      16.943    
  17.057      16.943      16.767      16.829      17.372      18.793      21.787      26.985      36.147      50.206    
  68.606      90.142      112.13      129.39      96.684      91.995      79.811      64.380      49.642      37.781    
  29.494      24.452      21.432      20.010      19.793      20.258      21.038      21.769      22.071      21.769    
  21.038      20.258      19.793      20.010      21.432      24.452      29.494      37.781      49.642      64.380    
  79.811      91.995      63.186      60.343      53.002      43.877      35.521      29.298      25.369      23.048    
  22.049      22.344      23.747      25.890      28.223      30.056      30.756      30.056      28.223      25.890    
  23.747      22.344      22.049      23.048      25.369      29.298      35.521      43.877      53.002      60.343    
  38.588      37.264      33.901      29.877      26.444      24.160      22.914      22.755      23.826      26.265    
  29.935      34.373      38.765      42.051      43.277      42.051      38.765      34.373      29.935      26.265    
  23.826      22.755      22.914      24.160      26.444      29.877      33.901      37.264      24.425      24.024    
  23.044      21.968      21.184      21.003      21.755      23.657      27.038      31.933      38.033      44.730    
  51.035      55.639      57.339      55.639      51.035      44.730      38.033      31.933      27.038      23.657    
  21.755      21.003      21.184      21.968      23.044      24.024      17.636      17.564      17.440      17.494    
  18.030      19.380      21.823      25.832      31.641      38.892      46.979      55.236      62.745      68.175    
  70.180      68.175      62.745      55.236      46.979      38.892      31.641      25.832      21.823      19.380    
  18.030      17.494      17.440      17.564      13.789      13.861      14.167      14.920      16.397      18.908    
  22.912      29.109      37.314      46.581      55.996      65.056      73.173      79.111      81.331      79.111    
  73.173      65.056      55.996      46.581      37.314      29.109      22.912      18.908      16.397      14.920    
  14.167      13.861      11.451      11.618      12.212      13.456      15.638      19.094      24.672      33.062    
  43.537      54.519      64.911      74.589      83.421      90.123      92.688      90.123      83.421      74.589    
  64.911      54.519      43.537      33.062      24.672      19.094      15.638      13.456      12.212      11.618    
  10.198      10.413      11.168      12.718      15.382      19.607      26.616      36.983      49.457      61.938    
  73.313      83.949      94.077      102.10      105.24      102.10      94.077      83.949      73.313      61.938    
  49.457      36.983      26.616      19.607      15.382      12.718      11.168      10.413      9.8683      10.086    
  10.869      12.523      15.415      20.136      28.155      39.931      53.837      67.452      79.740      91.467    
  103.06      112.51      116.26      112.51      103.06      91.467      79.740      67.452      53.837      39.931    
  28.155      20.136      15.415      12.523      10.869      10.086      9.8898      10.099      10.869      12.530    
  15.475      20.361      28.744      41.033      55.468      69.520      82.199      94.425      106.68      116.76    
  120.77      116.76      106.68      94.425      82.199      69.520      55.468      41.033      28.744      20.361    
  15.475      12.530      10.869      10.099      9.8683      10.086      10.869      12.523      15.415      20.136    
  28.155      39.931      53.837      67.452      79.740      91.467      103.06      112.51      116.26      112.51    
  103.06      91.467      79.740      67.452      53.837      39.931      28.155      20.136      15.415      12.523    
  10.869      10.086      10.198      10.413      11.168      12.718      15.382      19.607      26.616      36.983    
  49.457      61.938      73.313      83.949      94.077      102.10      105.24      102.10      94.077      83.949    
  73.313      61.938      49.457      36.983      26.616      19.607      15.382      12.718      11.168      10.413    
  11.451      11.618      12.212      13.456      15.638      19.094      24.672      33.062      43.537      54.519    
  64.911      74.589      83.421      90.123      92.688      90.123      83.421      74.589      64.911      54.519    
  43.537      33.062      24.672      19.094      15.638      13.456      12.212      11.618      13.789      13.861    
  14.167      14.920      16.397      18.908      22.912      29.109      37.314      46.581      55.996      65.056    
  73.173      79.111      81.331      79.111      73.173      65.056      55.996      46.581      37.314      29.109    
  22.912      18.908      16.397      14.920      14.167      13.861      17.636      17.564      17.440      17.494    
  18.030      19.380      21.823      25.832      31.641      38.892      46.979      55.236      62.745      68.175    
  70.180      68.175      62.745      55.236      46.979      38.892      31.641      25.832      21.823      19.380    
  18.030      17.494      17.440      17.564      24.425      24.024      23.044      21.968      21.184      21.003    
  21.755      23.657      27.038      31.933      38.033      44.730      51.035      55.639      57.339      55.639    
  51.035      44.730      38.033      31.933      27.038      23.657      21.755      21.003      21.184      21.968    
  23.044      24.024      38.588      37.264      33.901      29.877      26.444      24.160      22.914      22.755    
  23.826      26.265      29.935      34.373      38.765      42.051      43.277      42.051      38.765      34.373    
  29.935      26.265      23.826      22.755      22.914      24.160      26.444      29.877      33.901      37.264    
  63.186      60.343      53.002      43.877      35.521      29.298      25.369      23.048      22.049      22.344    
  23.747      25.890      28.223      30.056      30.756      30.056      28.223      25.890      23.747      22.344    
  22.049      23.048      25.369      29.298      35.521      43.877      53.002      60.343      96.684      91.995    
  79.811      64.380      49.642      37.781      29.494      24.452      21.432      20.010      19.793      20.258    
  21.038      21.769      22.071      21.769      21.038      20.258      19.793      20.010      21.432      24.452    
  29.494      37.781      49.642      64.380      79.811      91.995      136.04      129.39      112.13      90.142    
  68.606      50.206      36.147      26.985      21.787      18.793      17.372      16.829      16.767      16.943    
  17.057      16.943      16.767      16.829      17.372      18.793      21.787      26.985      36.147      50.206    
  68.606      90.142      112.13      129.39      178.98      170.25      147.73      119.22      91.021      65.882    
  45.257      30.834      22.789      18.407      15.994      14.695      14.101      14.017      14.068      14.017    
  14.101      14.695      15.994      18.407      22.789      30.834      45.257      65.882      91.021      119.22    
  147.73      170.25      221.49      210.62      182.79      147.99      113.64      82.284      55.291      35.399    
  24.105      18.497      15.330      13.495      12.561      12.354      12.394      12.354      12.561      13.495    
  15.330      18.497      24.105      35.399      55.291      82.284      113.64      147.99      182.79      210.62    
  254.64      242.00      209.86      170.07      131.06      95.121      63.363      39.234      25.288      18.727    
  15.087      12.933      11.816      11.572      11.623      11.572      11.816      12.933      15.087      18.727    
  25.288      39.234      63.363      95.121      131.06      170.07      209.86      242.00      231.56      220.26    
  191.37      155.24      119.47      86.550      57.905      36.594      24.457      18.558      15.241      13.298    
  12.294      12.064      12.102      12.064      12.294      13.298      15.241      18.558      24.457      36.594    
  57.905      86.550      119.47      155.24      191.37      220.26      221.73      210.93      183.24      148.50    
  114.07      82.541      55.373      35.383      24.065      18.457      15.286      13.438      12.486      12.263    
  12.296      12.263      12.486      13.438      15.286      18.457      24.065      35.383      55.373      82.541    
  114.07      148.50      183.24      210.93      195.61      186.08      161.53      130.50      99.720      71.973    
  48.797      32.302      23.087      18.242      15.503      13.943      13.157      12.976      13.003      12.976    
  13.157      13.943      15.503      18.242      23.087      32.302      48.797      71.973      99.720      130.50    
  161.53      186.08      160.53      152.66      132.26      106.31      80.693      58.304      40.567      28.605    
  21.947      18.143      16.087      15.011      14.535      14.475      14.519      14.475      14.535      15.011    
  16.087      18.143      21.947      28.605      40.567      58.304      80.693      106.31      132.26      152.66    
  123.05      116.96      101.12      80.961      61.388      45.059      33.027      25.427      21.005      18.456    
  17.298      16.905      16.913      17.100      17.208      17.100      16.913      16.905      17.298      18.456    
  21.005      25.427      33.027      45.059      61.388      80.961      101.12      116.96      87.358      83.085    
  71.993      58.013      44.828      34.472      27.461      23.218      20.636      19.507      19.438      19.938    
  20.675      21.337      21.606      21.337      20.675      19.938      19.438      19.507      20.636      23.218    
  27.461      34.472      44.828      58.013      71.993      83.085      56.944      54.412      47.890      39.839    
  32.562      27.247      23.913      21.911      21.156      21.552      22.877      24.811      26.879      28.489    
  29.100      28.489      26.879      24.811      22.877      21.552      21.156      21.911      23.913      27.247    
  32.562      39.839      47.890      54.412      35.223      34.080      31.184      27.732      24.795      22.801    
  21.700      21.653      22.717      24.968      28.283      32.237      36.111      38.987      40.055      38.987    
  36.111      32.237      28.283      24.968      22.717      21.653      21.700      22.801      24.795      27.732    
  31.184      34.080      23.085      22.742      21.894      20.926      20.175      20.000      20.717      22.487    
  25.573      30.033      35.569      41.580      47.160      51.186      52.663      51.186      47.160      41.580    
  35.569      30.033      25.573      22.487      20.717      20.000      20.175      20.926      21.894      22.742    
  17.056      16.991      16.877      16.921      17.400      18.627      20.861      24.483      29.790      36.490    
  43.955      51.452      58.098      62.793      64.504      62.793      58.098      51.452      43.955      36.490    
  29.790      24.483      20.861      18.627      17.400      16.921      16.877      16.991      13.554      13.632    
  13.936      14.644      16.001      18.302      21.917      27.536      35.144      43.892      52.765      61.048    
  68.125      73.091      74.905      73.091      68.125      61.048      52.765      43.892      35.144      27.536    
  21.917      18.302      16.001      14.644      13.936      13.632      11.414      11.586      12.174      13.357    
  15.380      18.554      23.583      31.274      41.149      51.730      61.680      70.475      77.903      83.202    
  85.171      83.202      77.903      70.475      61.680      51.730      41.149      31.274      23.583      18.554    
  15.380      13.357      12.174      11.586      10.210      10.435      11.195      12.688      15.186      19.069    
  25.419      35.016      46.929      59.124      70.077      79.561      87.719      93.741      96.029      93.741    
  87.719      79.561      70.077      59.124      46.929      35.016      25.419      19.069      15.186      12.688    
  11.195      10.435      9.8023      10.040      10.852      12.475      15.221      19.569      26.869      37.844    
  51.225      64.618      76.430      86.693      95.762      102.65      105.31      102.65      95.762      86.693    
  76.430      64.618      51.225      37.844      26.869      19.569      15.221      12.475      10.852      10.040    
  9.7647      9.9992      10.811      12.458      15.270      19.777      27.423      38.903      52.828      66.674    
  78.842      89.462      98.957      106.24      109.07      106.24      98.957      89.462      78.842      66.674    
  52.828      38.903      27.423      19.777      15.270      12.458      10.811      9.9992      9.8023      10.040    
  10.852      12.475      15.221      19.569      26.869      37.844      51.225      64.618      76.430      86.693    
  95.762      102.65      105.31      102.65      95.762      86.693      76.430      64.618      51.225      37.844    
  26.869      19.569      15.221      12.475      10.852      10.040      10.210      10.435      11.195      12.688    
  15.186      19.069      25.419      35.016      46.929      59.124      70.077      79.561      87.719      93.741    
  96.029      93.741      87.719      79.561      70.077      59.124      46.929      35.016      25.419      19.069    
  15.186      12.688      11.195      10.435      11.414      11.586      12.174      13.357      15.380      18.554    
  23.583      31.274      41.149      51.730      61.680      70.475      77.903      83.202      85.171      83.202    
  77.903      70.475      61.680      51.730      41.149      31.274      23.583      18.554      15.380      13.357    
  12.174      11.586      13.554      13.632      13.936      14.644      16.001      18.302      21.917      27.536    
  35.144      43.892      52.765      61.048      68.125      73.091      74.905      73.091      68.125      61.048    
  52.765      43.892      35.144      27.536      21.917      18.302      16.001      14.644      13.936      13.632    
  17.056      16.991      16.877      16.921      17.400      18.627      20.861      24.483      29.790      36.490    
  43.955      51.452      58.098      62.793      64.504      62.793      58.098      51.452      43.955      36.490    
  29.790      24.483      20.861      18.627      17.400      16.921      16.877      16.991      23.085      22.742    
  21.894      20.926      20.175      20.000      20.717      22.487      25.573      30.033      35.569      41.580    
  47.160      51.186      52.663      51.186      47.160      41.580      35.569      30.033      25.573      22.487    
  20.717      20.000      20.175      20.926      21.894      22.742      35.223      34.080      31.184      27.732    
  24.795      22.801      21.700      21.653      22.717      24.968      28.283      32.237      36.111      38.987    
  40.055      38.987      36.111      32.237      28.283      24.968      22.717      21.653      21.700      22.801    
  24.795      27.732      31.184      34.080      56.944      54.412      47.890      39.839      32.562      27.247    
  23.913      21.911      21.156      21.552      22.877      24.811      26.879      28.489      29.100      28.489    
  26.879      24.811      22.877      21.552      21.156      21.911      23.913      27.247      32.562      39.839    
  47.890      54.412      87.358      83.085      71.993      58.013      44.828      34.472      27.461      23.218    
  20.636      19.507      19.438      19.938      20.675      21.337      21.606      21.337      20.675      19.938    
  19.438      19.507      20.636      23.218      27.461      34.472      44.828      58.013      71.993      83.085    
  123.05      116.96      101.12      80.961      61.388      45.059      33.027      25.427      21.005      18.456    
  17.298      16.905      16.913      17.100      17.208      17.100      16.913      16.905      17.298      18.456    
  21.005      25.427      33.027      45.059      61.388      80.961      101.12      116.96      160.53      152.66    
  132.26      106.31      80.693      58.304      40.567      28.605      21.947      18.143      16.087      15.011    
  14.535      14.475      14.519      14.475      14.535      15.011      16.087      18.143      21.947      28.605    
  40.567      58.304      80.693      106.31      132.26      152.66      195.61      186.08      161.53      130.50    
  99.720      71.973      48.797      32.302      23.087      18.242      15.503      13.943      13.157      12.976    
  13.003      12.976      13.157      13.943      15.503      18.242      23.087      32.302      48.797      71.973    
  99.720      130.50      161.53      186.08      221.73      210.93      183.24      148.50      114.07      82.541    
  55.373      35.383      24.065      18.457      15.286      13.438      12.486      12.263      12.296      12.263    
  12.486      13.438      15.286      18.457      24.065      35.383      55.373      82.541      114.07      148.50    
  183.24      210.93      186.04      177.15      154.17      124.91      95.649      69.165      47.136      31.612    
  23.001      18.435      15.922      14.562      13.932      13.840      13.892      13.840      13.932      14.562    
  15.922      18.435      23.001      31.612      47.136      69.165      95.649      124.91      154.17      177.15    
  179.30      170.70      148.42      120.04      91.691      66.235      45.317      30.752      22.693      18.334    
  15.942      14.656      14.065      13.979      14.027      13.979      14.065      14.656      15.942      18.334    
  22.693      30.752      45.317      66.235      91.691      120.04      148.42      170.70      160.65      152.84    
  132.56      106.67      80.984      58.441      40.569      28.549      21.893      18.107      16.070      15.011    
  14.548      14.495      14.541      14.495      14.548      15.011      16.070      18.107      21.893      28.549    
  40.569      58.441      80.984      106.67      132.56      152.84      133.84      127.21      109.96      87.935    