unknown system                          
   1.00000000000000     
     3.573378    0.000000    0.000000
     0.000000    3.573378    0.000000
     0.000000    0.000000    3.573378
   Pd   Ir   Pt   Cu
     1     1     1     1
Direct
  0.000000  0.000000  0.000000
  0.500000  0.500000  0.000000
  0.500000  0.000000  0.500000
  0.000000  0.500000  0.500000
 
   28   28   28
 0.28126392657E+03 0.26710720555E+03 0.23126891798E+03 0.18731183603E+03 0.14458342229E+03
 0.10514693050E+03 0.69780194781E+02 0.42374721412E+02 0.26307019865E+02 0.18975203084E+02
 0.15016912124E+02 0.12664638621E+02 0.11453420635E+02 0.11215059106E+02 0.11288880797E+02
 0.11215059106E+02 0.11453420635E+02 0.12664638621E+02 0.15016912124E+02 0.18975203084E+02
 0.26307019865E+02 0.42374721412E+02 0.69780194781E+02 0.10514693050E+03 0.14458342229E+03
 0.18731183603E+03 0.23126891798E+03 0.26710720555E+03 0.26726969294E+03 0.25390422225E+03
 0.21999249924E+03 0.17822434593E+03 0.13746734499E+03 0.99890547387E+02 0.66430463111E+02
 0.40743389443E+02 0.25785588255E+02 0.18858643178E+02 0.15065884286E+02 0.12821209472E+02
 0.11666375469E+02 0.11431547583E+02 0.11496302753E+02 0.11431547583E+02 0.11666375469E+02
 0.12821209472E+02 0.15065884286E+02 0.18858643178E+02 0.25785588255E+02 0.40743389443E+02
 0.66430463111E+02 0.99890547387E+02 0.13746734499E+03 0.17822434593E+03 0.21999249924E+03
 0.25390422225E+03 0.23119010653E+03 0.21980010517E+03 0.19071345633E+03 0.15448230037E+03
 0.11882138644E+03 0.86165417013E+02 0.57774907376E+02 0.36609303348E+02 0.24512320014E+02
 0.18617753402E+02 0.15311349992E+02 0.13394033725E+02 0.12424227417E+02 0.12223551372E+02
 0.12273325397E+02 0.12223551372E+02 0.12424227417E+02 0.13394033725E+02 0.15311349992E+02
 0.18617753402E+02 0.24512320014E+02 0.36609303348E+02 0.57774907376E+02 0.86165417013E+02
 0.11882138644E+03 0.15448230037E+03 0.19071345633E+03 0.21980010517E+03 0.18561875457E+03
 0.17658149708E+03 0.15329712060E+03 0.12389591590E+03 0.94803277678E+02 0.68707864224E+02
 0.47041907472E+02 0.31699384826E+02 0.23113731991E+02 0.18525355899E+02 0.15993225861E+02
 0.14627427826E+02 0.14004939404E+02 0.13923606900E+02 0.13981407474E+02 0.13923606900E+02
 0.14004939404E+02 0.14627427826E+02 0.15993225861E+02 0.18525355899E+02 0.23113731991E+02
 0.31699384826E+02 0.47041907472E+02 0.68707864224E+02 0.94803277678E+02 0.12389591590E+03
 0.15329712060E+03 0.17658149708E+03 0.14053143588E+03 0.13369842794E+03 0.11596431460E+03
 0.93390688455E+02 0.71215474846E+02 0.52112769522E+02 0.37328354210E+02 0.27579817771E+02
 0.22081851350E+02 0.18931488465E+02 0.17421788482E+02 0.16834185428E+02 0.16755484246E+02
 0.16935916350E+02 0.17055309605E+02 0.16935916350E+02 0.16755484246E+02 0.16834185428E+02
 0.17421788482E+02 0.18931488465E+02 0.22081851350E+02 0.27579817771E+02 0.37328354210E+02
 0.52112769522E+02 0.71215474846E+02 0.93390688455E+02 0.11596431460E+03 0.13369842794E+03
 0.99878379760E+02 0.95057378049E+02 0.82524608904E+02 0.66630479438E+02 0.51385055581E+02
 0.39008352719E+02 0.30259950516E+02 0.24907833578E+02 0.21729358865E+02 0.20203551275E+02
 0.19936703285E+02 0.20397521358E+02 0.21202904732E+02 0.21966347650E+02 0.22283646292E+02
 0.21966347650E+02 0.21202904732E+02 0.20397521358E+02 0.19936703285E+02 0.20203551275E+02
 0.21729358865E+02 0.24907833578E+02 0.30259950516E+02 0.39008352719E+02 0.51385055581E+02
 0.66630479438E+02 0.82524608904E+02 0.95057378049E+02 0.65371372057E+02 0.62426477473E+02
 0.54815840933E+02 0.45333241470E+02 0.36608980565E+02 0.30063778573E+02 0.25907805495E+02
 0.23468089620E+02 0.22380562531E+02 0.22641419114E+02 0.24078226962E+02 0.26304075992E+02
 0.28741579257E+02 0.30663618313E+02 0.31398068135E+02 0.30663618313E+02 0.28741579257E+02
 0.26304075992E+02 0.24078226962E+02 0.22641419114E+02 0.22380562531E+02 0.23468089620E+02
 0.25907805495E+02 0.30063778573E+02 0.36608980565E+02 0.45333241470E+02 0.54815840933E+02
 0.62426477473E+02 0.39806537700E+02 0.38420109032E+02 0.34895382816E+02 0.30669744386E+02
 0.27057461835E+02 0.24659362188E+02 0.23362010542E+02 0.23162926921E+02 0.24237422775E+02
 0.26744986340E+02 0.30546703397E+02 0.35165992698E+02 0.39756075263E+02 0.43199759641E+02
 0.44485649732E+02 0.43199759641E+02 0.39756075263E+02 0.35165992698E+02 0.30546703397E+02
 0.26744986340E+02 0.24237422775E+02 0.23162926921E+02 0.23362010542E+02 0.24659362188E+02
 0.27057461835E+02 0.30669744386E+02 0.34895382816E+02 0.38420109032E+02 0.24921603208E+02
 0.24498512545E+02 0.23468260595E+02 0.22347864914E+02 0.21552943059E+02 0.21373665182E+02
 0.22139374853E+02 0.24089956171E+02 0.27574591353E+02 0.32621133142E+02 0.38925699128E+02
 0.45878680997E+02 0.52459942731E+02 0.57287986516E+02 0.59075623160E+02 0.57287986516E+02
 0.52459942731E+02 0.45878680997E+02 0.38925699128E+02 0.32621133142E+02 0.27574591353E+02
 0.24089956171E+02 0.22139374853E+02 0.21373665182E+02 0.21552943059E+02 0.22347864914E+02
 0.23468260595E+02 0.24498512545E+02 0.17851027854E+02 0.17776005414E+02 0.17646996461E+02
 0.17705102913E+02 0.18263119138E+02 0.19658449341E+02 0.22178145756E+02 0.26323992214E+02
 0.32304307066E+02 0.39741781799E+02 0.48049453482E+02 0.56595175993E+02 0.64443856271E+02
 0.70167394296E+02 0.72289944157E+02 0.70167394296E+02 0.64443856271E+02 0.56595175993E+02
 0.48049453482E+02 0.39741781799E+02 0.32304307066E+02 0.26323992214E+02 0.22178145756E+02
 0.19658449341E+02 0.18263119138E+02 0.17705102913E+02 0.17646996461E+02 0.17776005414E+02
 0.13906688314E+02 0.13973700972E+02 0.14270930530E+02 0.15030438167E+02 0.16545672841E+02
 0.19130144352E+02 0.23275934916E+02 0.29669671983E+02 0.38068786856E+02 0.47501736890E+02
 0.57109956609E+02 0.66477238293E+02 0.75024501214E+02 0.81367153896E+02 0.83755021831E+02
 0.81367153896E+02 0.75024501214E+02 0.66477238293E+02 0.57109956609E+02 0.47501736890E+02
 0.38068786856E+02 0.29669671983E+02 0.23275934916E+02 0.19130144352E+02 0.16545672841E+02
 0.15030438167E+02 0.14270930530E+02 0.13973700972E+02 0.11540408086E+02 0.11696845467E+02
 0.12272785025E+02 0.13518215585E+02 0.15740218724E+02 0.19292076128E+02 0.25061538379E+02
 0.33683835371E+02 0.44342399743E+02 0.55439649076E+02 0.65992849049E+02 0.76044249038E+02
 0.85476722643E+02 0.92774737869E+02 0.95593377182E+02 0.92774737869E+02 0.85476722643E+02
 0.76044249038E+02 0.65992849049E+02 0.55439649076E+02 0.44342399743E+02 0.33683835371E+02
 0.25061538379E+02 0.19292076128E+02 0.15740218724E+02 0.13518215585E+02 0.12272785025E+02
 0.11696845467E+02 0.10323279122E+02 0.10521550784E+02 0.11242191091E+02 0.12776138608E+02
 0.15469616074E+02 0.19804442082E+02 0.27037527223E+02 0.37651413465E+02 0.50282846113E+02
 0.62833121779E+02 0.74374783997E+02 0.85512434440E+02 0.96492968780E+02 0.10537198167E+03
 0.10887809173E+03 0.10537198167E+03 0.96492968780E+02 0.85512434440E+02 0.74374783997E+02
 0.62833121779E+02 0.50282846113E+02 0.37651413465E+02 0.27037527223E+02 0.19804442082E+02
 0.15469616074E+02 0.12776138608E+02 0.11242191091E+02 0.10521550784E+02 0.10069171284E+02
 0.10262319132E+02 0.10992476293E+02 0.12607594116E+02 0.15511352463E+02 0.20345005151E+02
 0.28602831627E+02 0.40628371207E+02 0.54671050496E+02 0.68331072149E+02 0.80816175866E+02
 0.93187631485E+02 0.10587555803E+03 0.11641208552E+03 0.12062085978E+03 0.11641208552E+03
 0.10587555803E+03 0.93187631485E+02 0.80816175866E+02 0.68331072149E+02 0.54671050496E+02
 0.40628371207E+02 0.28602831627E+02 0.20345005151E+02 0.15511352463E+02 0.12607594116E+02
 0.10992476293E+02 0.10262319132E+02 0.10131390802E+02 0.10312861023E+02 0.11020441234E+02
 0.12631215371E+02 0.15578667576E+02 0.20577860653E+02 0.29202457453E+02 0.41741517156E+02
 0.56304906815E+02 0.70395514023E+02 0.83289070825E+02 0.96221491628E+02 0.10967003270E+03
 0.12092868302E+03 0.12544024336E+03 0.12092868302E+03 0.10967003270E+03 0.96221491628E+02
 0.83289070825E+02 0.70395514023E+02 0.56304906815E+02 0.41741517156E+02 0.29202457453E+02
 0.20577860653E+02 0.15578667576E+02 0.12631215371E+02 0.11020441234E+02 0.10312861023E+02
 0.10069171284E+02 0.10262319132E+02 0.10992476293E+02 0.12607594116E+02 0.15511352463E+02
 0.20345005151E+02 0.28602831627E+02 0.40628371207E+02 0.54671050496E+02 0.68331072149E+02
 0.80816175866E+02 0.93187631485E+02 0.10587555803E+03 0.11641208552E+03 0.12062085978E+03
 0.11641208552E+03 0.10587555803E+03 0.93187631485E+02 0.80816175866E+02 0.68331072149E+02
 0.54671050496E+02 0.40628371207E+02 0.28602831627E+02 0.20345005151E+02 0.15511352463E+02
 0.12607594116E+02 0.10992476293E+02 0.10262319132E+02 0.10323279122E+02 0.10521550784E+02
 0.11242191091E+02 0.12776138608E+02 0.15469616074E+02 0.19804442082E+02 0.27037527223E+02
 0.37651413465E+02 0.50282846113E+02 0.62833121779E+02 0.74374783997E+02 0.85512434440E+02
 0.96492968780E+02 0.10537198167E+03 0.10887809173E+03 0.10537198167E+03 0.96492968780E+02
 0.85512434440E+02 0.74374783997E+02 0.62833121779E+02 0.50282846113E+02 0.37651413465E+02
 0.27037527223E+02 0.19804442082E+02 0.15469616074E+02 0.12776138608E+02 0.11242191091E+02
 0.10521550784E+02 0.11540408086E+02 0.11696845467E+02 0.12272785025E+02 0.13518215585E+02
 0.15740218724E+02 0.19292076128E+02 0.25061538379E+02 0.33683835371E+02 0.44342399743E+02
 0.55439649076E+02 0.65992849049E+02 0.76044249038E+02 0.85476722643E+02 0.92774737869E+02
 0.95593377182E+02 0.92774737869E+02 0.85476722643E+02 0.76044249038E+02 0.65992849049E+02
 0.55439649076E+02 0.44342399743E+02 0.33683835371E+02 0.25061538379E+02 0.19292076128E+02
 0.15740218724E+02 0.13518215585E+02 0.12272785025E+02 0.11696845467E+02 0.13906688314E+02
 0.13973700972E+02 0.14270930530E+02 0.15030438167E+02 0.16545672841E+02 0.19130144352E+02
 0.23275934916E+02 0.29669671983E+02 0.38068786856E+02 0.47501736890E+02 0.57109956609E+02
 0.66477238293E+02 0.75024501214E+02 0.81367153896E+02 0.83755021831E+02 0.81367153896E+02
 0.75024501214E+02 0.66477238293E+02 0.57109956609E+02 0.47501736890E+02 0.38068786856E+02
 0.29669671983E+02 0.23275934916E+02 0.19130144352E+02 0.16545672841E+02 0.15030438167E+02
 0.14270930530E+02 0.13973700972E+02 0.17851027854E+02 0.17776005414E+02 0.17646996461E+02
 0.17705102913E+02 0.18263119138E+02 0.19658449341E+02 0.22178145756E+02 0.26323992214E+02
 0.32304307066E+02 0.39741781799E+02 0.48049453482E+02 0.56595175993E+02 0.64443856271E+02
 0.70167394296E+02 0.72289944157E+02 0.70167394296E+02 0.64443856271E+02 0.56595175993E+02
 0.48049453482E+02 0.39741781799E+02 0.32304307066E+02 0.26323992214E+02 0.22178145756E+02
 0.19658449341E+02 0.18263119138E+02 0.17705102913E+02 0.17646996461E+02 0.17776005414E+02
 0.24921603208E+02 0.24498512545E+02 0.23468260595E+02 0.22347864914E+02 0.21552943059E+02
 0.21373665182E+02 0.22139374853E+02 0.24089956171E+02 0.27574591353E+02 0.32621133142E+02
 0.38925699128E+02 0.45878680997E+02 0.52459942731E+02 0.57287986516E+02 0.59075623160E+02
 0.57287986516E+02 0.52459942731E+02 0.45878680997E+02 0.38925699128E+02 0.32621133142E+02
 0.27574591353E+02 0.24089956171E+02 0.22139374853E+02 0.21373665182E+02 0.21552943059E+02
 0.22347864914E+02 0.23468260595E+02 0.24498512545E+02 0.39806537700E+02 0.38420109032E+02
 0.34895382816E+02 0.30669744386E+02 0.27057461835E+02 0.24659362188E+02 0.23362010542E+02
 0.23162926921E+02 0.24237422775E+02 0.26744986340E+02 0.30546703397E+02 0.35165992698E+02
 0.39756075263E+02 0.43199759641E+02 0.44485649732E+02 0.43199759641E+02 0.39756075263E+02
 0.35165992698E+02 0.30546703397E+02 0.26744986340E+02 0.24237422775E+02 0.23162926921E+02
 0.23362010542E+02 0.24659362188E+02 0.27057461835E+02 0.30669744386E+02 0.34895382816E+02
 0.38420109032E+02 0.65371372057E+02 0.62426477473E+02 0.54815840933E+02 0.45333241470E+02
 0.36608980565E+02 0.30063778573E+02 0.25907805495E+02 0.23468089620E+02 0.22380562531E+02
 0.22641419114E+02 0.24078226962E+02 0.26304075992E+02 0.28741579257E+02 0.30663618313E+02
 0.31398068135E+02 0.30663618313E+02 0.28741579257E+02 0.26304075992E+02 0.24078226962E+02
 0.22641419114E+02 0.22380562531E+02 0.23468089620E+02 0.25907805495E+02 0.30063778573E+02
 0.36608980565E+02 0.45333241470E+02 0.54815840933E+02 0.62426477473E+02 0.99878379760E+02
 0.95057378049E+02 0.82524608904E+02 0.66630479438E+02 0.51385055581E+02 0.39008352719E+02
 0.30259950516E+02 0.24907833578E+02 0.21729358865E+02 0.20203551275E+02 0.19936703285E+02
 0.20397521358E+02 0.21202904732E+02 0.21966347650E+02 0.22283646292E+02 0.21966347650E+02
 0.21202904732E+02 0.20397521358E+02 0.19936703285E+02 0.20203551275E+02 0.21729358865E+02
 0.24907833578E+02 0.30259950516E+02 0.39008352719E+02 0.51385055581E+02 0.66630479438E+02
 0.82524608904E+02 0.95057378049E+02 0.14053143588E+03 0.13369842794E+03 0.11596431460E+03
 0.93390688455E+02 0.71215474846E+02 0.52112769522E+02 0.37328354210E+02 0.27579817771E+02
 0.22081851350E+02 0.18931488465E+02 0.17421788482E+02 0.16834185428E+02 0.16755484246E+02
 0.16935916350E+02 0.17055309605E+02 0.16935916350E+02 0.16755484246E+02 0.16834185428E+02
 0.17421788482E+02 0.18931488465E+02 0.22081851350E+02 0.27579817771E+02 0.37328354210E+02
 0.52112769522E+02 0.71215474846E+02 0.93390688455E+02 0.11596431460E+03 0.13369842794E+03
 0.18561875457E+03 0.17658149708E+03 0.15329712060E+03 0.12389591590E+03 0.94803277678E+02
 0.68707864224E+02 0.47041907472E+02 0.31699384826E+02 0.23113731991E+02 0.18525355899E+02
 0.15993225861E+02 0.14627427826E+02 0.14004939404E+02 0.13923606900E+02 0.13981407474E+02
 0.13923606900E+02 0.14004939404E+02 0.14627427826E+02 0.15993225861E+02 0.18525355899E+02
 0.23113731991E+02 0.31699384826E+02 0.47041907472E+02 0.68707864224E+02 0.94803277678E+02
 0.12389591590E+03 0.15329712060E+03 0.17658149708E+03 0.23119010653E+03 0.21980010517E+03
 0.19071345633E+03 0.15448230037E+03 0.11882138644E+03 0.86165417013E+02 0.57774907376E+02
 0.36609303348E+02 0.24512320014E+02 0.18617753402E+02 0.15311349992E+02 0.13394033725E+02
 0.12424227417E+02 0.12223551372E+02 0.12273325397E+02 0.12223551372E+02 0.12424227417E+02
 0.13394033725E+02 0.15311349992E+02 0.18617753402E+02 0.24512320014E+02 0.36609303348E+02
 0.57774907376E+02 0.86165417013E+02 0.11882138644E+03 0.15448230037E+03 0.19071345633E+03
 0.21980010517E+03 0.26726969294E+03 0.25390422225E+03 0.21999249924E+03 0.17822434593E+03
 0.13746734499E+03 0.99890547387E+02 0.66430463111E+02 0.40743389443E+02 0.25785588255E+02
 0.18858643178E+02 0.15065884286E+02 0.12821209472E+02 0.11666375469E+02 0.11431547583E+02
 0.11496302753E+02 0.11431547583E+02 0.11666375469E+02 0.12821209472E+02 0.15065884286E+02
 0.18858643178E+02 0.25785588255E+02 0.40743389443E+02 0.66430463111E+02 0.99890547387E+02
 0.13746734499E+03 0.17822434593E+03 0.21999249924E+03 0.25390422225E+03 0.26740034435E+03
 0.25406467840E+03 0.22021309289E+03 0.17847557508E+03 0.13768443483E+03 0.10002559931E+03
 0.66482509258E+02 0.40745463283E+02 0.25770665301E+02 0.18838563170E+02 0.15036892117E+02
 0.12777385356E+02 0.11604899990E+02 0.11355449572E+02 0.11414490104E+02 0.11355449572E+02
 0.11604899990E+02 0.12777385356E+02 0.15036892117E+02 0.18838563170E+02 0.25770665301E+02
 0.40745463283E+02 0.66482509258E+02 0.10002559931E+03 0.13768443483E+03 0.17847557508E+03
 0.22021309289E+03 0.25406467840E+03 0.25463760516E+03 0.24200327405E+03 0.20986012630E+03
 0.17007166320E+03 0.13106145134E+03 0.95121178381E+02 0.63362785865E+02 0.39233650056E+02
 0.25288028026E+02 0.18727295279E+02 0.15087066686E+02 0.12932591560E+02 0.11815868155E+02
 0.11571611722E+02 0.11622834145E+02 0.11571611722E+02 0.11815868155E+02 0.12932591560E+02
 0.15087066686E+02 0.18727295279E+02 0.25288028026E+02 0.39233650056E+02 0.63362785865E+02
 0.95121178381E+02 0.13106145134E+03 0.17007166320E+03 0.20986012630E+03 0.24200327405E+03
 0.22148991281E+03 0.21062051079E+03 0.18279440956E+03 0.14798936691E+03 0.11363712617E+03
 0.82284027395E+02 0.55291065975E+02 0.35398895983E+02 0.24104920495E+02 0.18496934588E+02
 0.15330497301E+02 0.13495165910E+02 0.12560759816E+02 0.12354425705E+02 0.12393772945E+02
 0.12354425705E+02 0.12560759816E+02 0.13495165910E+02 0.15330497301E+02 0.18496934588E+02
 0.24104920495E+02 0.35398895983E+02 0.55291065975E+02 0.82284027395E+02 0.11363712617E+03
 0.14798936691E+03 0.18279440956E+03 0.21062051079E+03 0.17897788390E+03 0.17025238236E+03
 0.14773097794E+03 0.11922485291E+03 0.91021173373E+02 0.65882210515E+02 0.45257195218E+02
 0.30834243650E+02 0.22789283026E+02 0.18407336685E+02 0.15993746267E+02 0.14695079185E+02
 0.14101232861E+02 0.14017113424E+02 0.14067837736E+02 0.14017113424E+02 0.14101232861E+02
 0.14695079185E+02 0.15993746267E+02 0.18407336685E+02 0.22789283026E+02 0.30834243650E+02
 0.45257195218E+02 0.65882210515E+02 0.91021173373E+02 0.11922485291E+03 0.14773097794E+03
 0.17025238236E+03 0.13603955472E+03 0.12939153630E+03 0.11212539794E+03 0.90142184882E+02
 0.68606325400E+02 0.50206379663E+02 0.36146953085E+02 0.26984894774E+02 0.21787453507E+02
 0.18793401115E+02 0.17371947913E+02 0.16829341071E+02 0.16766622280E+02 0.16942987927E+02
 0.17057098919E+02 0.16942987927E+02 0.16766622280E+02 0.16829341071E+02 0.17371947913E+02
 0.18793401115E+02 0.21787453507E+02 0.26984894774E+02 0.36146953085E+02 0.50206379663E+02
 0.68606325400E+02 0.90142184882E+02 0.11212539794E+03 0.12939153630E+03 0.96683892887E+02
 0.91995389798E+02 0.79810541491E+02 0.64379856218E+02 0.49642249971E+02 0.37780739223E+02
 0.29494119691E+02 0.24451730471E+02 0.21431857158E+02 0.20010320374E+02 0.19793081205E+02
 0.20257701431E+02 0.21037739862E+02 0.21768578279E+02 0.22070968588E+02 0.21768578279E+02
 0.21037739862E+02 0.20257701431E+02 0.19793081205E+02 0.20010320374E+02 0.21431857158E+02
 0.24451730471E+02 0.29494119691E+02 0.37780739223E+02 0.49642249971E+02 0.64379856218E+02
 0.79810541491E+02 0.91995389798E+02 0.63185837137E+02 0.60342898879E+02 0.53002160741E+02
 0.43876857089E+02 0.35520651617E+02 0.29298063848E+02 0.25368987271E+02 0.23047972803E+02
 0.22049397428E+02 0.22344024237E+02 0.23747393323E+02 0.25890001533E+02 0.28222601419E+02
 0.30056134424E+02 0.30755734827E+02 0.30056134424E+02 0.28222601419E+02 0.25890001533E+02
 0.23747393323E+02 0.22344024237E+02 0.22049397428E+02 0.23047972803E+02 0.25368987271E+02
 0.29298063848E+02 0.35520651617E+02 0.43876857089E+02 0.53002160741E+02 0.60342898879E+02
 0.38587808394E+02 0.37263901162E+02 0.33900989534E+02 0.29876631045E+02 0.26444158119E+02
 0.24160050142E+02 0.22913712007E+02 0.22755448034E+02 0.23826378736E+02 0.26265395099E+02
 0.29935380523E+02 0.34372846022E+02 0.38765166952E+02 0.42051319099E+02 0.43276610693E+02
 0.42051319099E+02 0.38765166952E+02 0.34372846022E+02 0.29935380523E+02 0.26265395099E+02
 0.23826378736E+02 0.22755448034E+02 0.22913712007E+02 0.24160050142E+02 0.26444158119E+02
 0.29876631045E+02 0.33900989534E+02 0.37263901162E+02 0.24425042750E+02 0.24023928929E+02
 0.23044354277E+02 0.21968486054E+02 0.21183909799E+02 0.21002817679E+02 0.21755340232E+02
 0.23657260994E+02 0.27038415405E+02 0.31932518493E+02 0.38033077269E+02 0.44730235656E+02
 0.51034778095E+02 0.55638918301E+02 0.57339437498E+02 0.55638918301E+02 0.51034778095E+02
 0.44730235656E+02 0.38033077269E+02 0.31932518493E+02 0.27038415405E+02 0.23657260994E+02
 0.21755340232E+02 0.21002817679E+02 0.21183909799E+02 0.21968486054E+02 0.23044354277E+02
 0.24023928929E+02 0.17635614807E+02 0.17563781966E+02 0.17439582436E+02 0.17493829319E+02
 0.18029900734E+02 0.19380028201E+02 0.21822600091E+02 0.25831876150E+02 0.31641444488E+02
 0.38892165939E+02 0.46978782469E+02 0.55236450340E+02 0.62745465260E+02 0.68175399044E+02
 0.70179934999E+02 0.68175399044E+02 0.62745465260E+02 0.55236450340E+02 0.46978782469E+02
 0.38892165939E+02 0.31641444488E+02 0.25831876150E+02 0.21822600091E+02 0.19380028201E+02
 0.18029900734E+02 0.17493829319E+02 0.17439582436E+02 0.17563781966E+02 0.13788707349E+02
 0.13861343296E+02 0.14167005084E+02 0.14919547823E+02 0.16396994610E+02 0.18908005643E+02
 0.22912420050E+02 0.29108563247E+02 0.37313554404E+02 0.46580625234E+02 0.55996439620E+02
 0.65055531628E+02 0.73173479450E+02 0.79111384666E+02 0.81330702872E+02 0.79111384666E+02
 0.73173479450E+02 0.65055531628E+02 0.55996439620E+02 0.46580625234E+02 0.37313554404E+02
 0.29108563247E+02 0.22912420050E+02 0.18908005643E+02 0.16396994610E+02 0.14919547823E+02
 0.14167005084E+02 0.13861343296E+02 0.11451399899E+02 0.11617783673E+02 0.12211527727E+02
 0.13456446460E+02 0.15637850461E+02 0.19094215757E+02 0.24671797490E+02 0.33061755393E+02
 0.43537384946E+02 0.54519442326E+02 0.64910519349E+02 0.74589392417E+02 0.83421220437E+02
 0.90122515094E+02 0.92688232260E+02 0.90122515094E+02 0.83421220437E+02 0.74589392417E+02
 0.64910519349E+02 0.54519442326E+02 0.43537384946E+02 0.33061755393E+02 0.24671797490E+02
 0.19094215757E+02 0.15637850461E+02 0.13456446460E+02 0.12211527727E+02 0.11617783673E+02
 0.10198286621E+02 0.10413199293E+02 0.11167910026E+02 0.12718470853E+02 0.15381932553E+02
 0.19606928311E+02 0.26616281000E+02 0.36983100678E+02 0.49456771071E+02 0.61937942161E+02
 0.73313126112E+02 0.83948629458E+02 0.94077262888E+02 0.10210124667E+03 0.10524426386E+03
 0.10210124667E+03 0.94077262888E+02 0.83948629458E+02 0.73313126112E+02 0.61937942161E+02
 0.49456771071E+02 0.36983100678E+02 0.26616281000E+02 0.19606928311E+02 0.15381932553E+02
 0.12718470853E+02 0.11167910026E+02 0.10413199293E+02 0.98683175028E+01 0.10085641773E+02
 0.10868982558E+02 0.12523233049E+02 0.15415456618E+02 0.20135500391E+02 0.28155290821E+02
 0.39930595078E+02 0.53836558964E+02 0.67451997497E+02 0.79739699156E+02 0.91467480175E+02
 0.10306419781E+03 0.11251101888E+03 0.11625835112E+03 0.11251101888E+03 0.10306419781E+03
 0.91467480175E+02 0.79739699156E+02 0.67451997497E+02 0.53836558964E+02 0.39930595078E+02
 0.28155290821E+02 0.20135500391E+02 0.15415456618E+02 0.12523233049E+02 0.10868982558E+02
 0.10085641773E+02 0.98897550207E+01 0.10098918069E+02 0.10868726411E+02 0.12529642935E+02
 0.15475166882E+02 0.20361238942E+02 0.28744460205E+02 0.41033433498E+02 0.55467872576E+02
 0.69520348000E+02 0.82198741504E+02 0.94425288118E+02 0.10668286366E+03 0.11675595365E+03
 0.12076621527E+03 0.11675595365E+03 0.10668286366E+03 0.94425288118E+02 0.82198741504E+02
 0.69520348000E+02 0.55467872576E+02 0.41033433498E+02 0.28744460205E+02 0.20361238942E+02
 0.15475166882E+02 0.12529642935E+02 0.10868726411E+02 0.10098918069E+02 0.98683175028E+01
 0.10085641773E+02 0.10868982558E+02 0.12523233049E+02 0.15415456618E+02 0.20135500391E+02
 0.28155290821E+02 0.39930595078E+02 0.53836558964E+02 0.67451997497E+02 0.79739699156E+02
 0.91467480175E+02 0.10306419781E+03 0.11251101888E+03 0.11625835112E+03 0.11251101888E+03
 0.10306419781E+03 0.91467480175E+02 0.79739699156E+02 0.67451997497E+02 0.53836558964E+02
 0.39930595078E+02 0.28155290821E+02 0.20135500391E+02 0.15415456618E+02 0.12523233049E+02
 0.10868982558E+02 0.10085641773E+02 0.10198286621E+02 0.10413199293E+02 0.11167910026E+02
 0.12718470853E+02 0.15381932553E+02 0.19606928311E+02 0.26616281000E+02 0.36983100678E+02
 0.49456771071E+02 0.61937942161E+02 0.73313126112E+02 0.83948629458E+02 0.94077262888E+02
 0.10210124667E+03 0.10524426386E+03 0.10210124667E+03 0.94077262888E+02 0.83948629458E+02
 0.73313126112E+02 0.61937942161E+02 0.49456771071E+02 0.36983100678E+02 0.26616281000E+02
 0.19606928311E+02 0.15381932553E+02 0.12718470853E+02 0.11167910026E+02 0.10413199293E+02
 0.11451399899E+02 0.11617783673E+02 0.12211527727E+02 0.13456446460E+02 0.15637850461E+02
 0.19094215757E+02 0.24671797490E+02 0.33061755393E+02 0.43537384946E+02 0.54519442326E+02
 0.64910519349E+02 0.74589392417E+02 0.83421220437E+02 0.90122515094E+02 0.92688232260E+02
 0.90122515094E+02 0.83421220437E+02 0.74589392417E+02 0.64910519349E+02 0.54519442326E+02
 0.43537384946E+02 0.33061755393E+02 0.24671797490E+02 0.19094215757E+02 0.15637850461E+02
 0.13456446460E+02 0.12211527727E+02 0.11617783673E+02 0.13788707349E+02 0.13861343296E+02
 0.14167005084E+02 0.14919547823E+02 0.16396994610E+02 0.18908005643E+02 0.22912420050E+02
 0.29108563247E+02 0.37313554404E+02 0.46580625234E+02 0.55996439620E+02 0.65055531628E+02
 0.73173479450E+02 0.79111384666E+02 0.81330702872E+02 0.79111384666E+02 0.73173479450E+02
 0.65055531628E+02 0.55996439620E+02 0.46580625234E+02 0.37313554404E+02 0.29108563247E+02
 0.22912420050E+02 0.18908005643E+02 0.16396994610E+02 0.14919547823E+02 0.14167005084E+02
 0.13861343296E+02 0.17635614807E+02 0.17563781966E+02 0.17439582436E+02 0.17493829319E+02
 0.18029900734E+02 0.19380028201E+02 0.21822600091E+02 0.25831876150E+02 0.31641444488E+02
 0.38892165939E+02 0.46978782469E+02 0.55236450340E+02 0.62745465260E+02 0.68175399044E+02
 0.70179934999E+02 0.68175399044E+02 0.62745465260E+02 0.55236450340E+02 0.46978782469E+02
 0.38892165939E+02 0.31641444488E+02 0.25831876150E+02 0.21822600091E+02 0.19380028201E+02
 0.18029900734E+02 0.17493829319E+02 0.17439582436E+02 0.17563781966E+02 0.24425042750E+02
 0.24023928929E+02 0.23044354277E+02 0.21968486054E+02 0.21183909799E+02 0.21002817679E+02
 0.21755340232E+02 0.23657260994E+02 0.27038415405E+02 0.31932518493E+02 0.38033077269E+02
 0.44730235656E+02 0.51034778095E+02 0.55638918301E+02 0.57339437498E+02 0.55638918301E+02
 0.51034778095E+02 0.44730235656E+02 0.38033077269E+02 0.31932518493E+02 0.27038415405E+02
 0.23657260994E+02 0.21755340232E+02 0.21002817679E+02 0.21183909799E+02 0.21968486054E+02
 0.23044354277E+02 0.24023928929E+02 0.38587808394E+02 0.37263901162E+02 0.33900989534E+02
 0.29876631045E+02 0.26444158119E+02 0.24160050142E+02 0.22913712007E+02 0.22755448034E+02
 0.23826378736E+02 0.26265395099E+02 0.29935380523E+02 0.34372846022E+02 0.38765166952E+02
 0.42051319099E+02 0.43276610693E+02 0.42051319099E+02 0.38765166952E+02 0.34372846022E+02
 0.29935380523E+02 0.26265395099E+02 0.23826378736E+02 0.22755448034E+02 0.22913712007E+02
 0.24160050142E+02 0.26444158119E+02 0.29876631045E+02 0.33900989534E+02 0.37263901162E+02
 0.63185837137E+02 0.60342898879E+02 0.53002160741E+02 0.43876857089E+02 0.35520651617E+02
 0.29298063848E+02 0.25368987271E+02 0.23047972803E+02 0.22049397428E+02 0.22344024237E+02
 0.23747393323E+02 0.25890001533E+02 0.28222601419E+02 0.30056134424E+02 0.30755734827E+02
 0.30056134424E+02 0.28222601419E+02 0.25890001533E+02 0.23747393323E+02 0.22344024237E+02
 0.22049397428E+02 0.23047972803E+02 0.25368987271E+02 0.29298063848E+02 0.35520651617E+02
 0.43876857089E+02 0.53002160741E+02 0.60342898879E+02 0.96683892887E+02 0.91995389798E+02
 0.79810541491E+02 0.64379856218E+02 0.49642249971E+02 0.37780739223E+02 0.29494119691E+02
 0.24451730471E+02 0.21431857158E+02 0.20010320374E+02 0.19793081205E+02 0.20257701431E+02
 0.21037739862E+02 0.21768578279E+02 0.22070968588E+02 0.21768578279E+02 0.21037739862E+02
 0.20257701431E+02 0.19793081205E+02 0.20010320374E+02 0.21431857158E+02 0.24451730471E+02
 0.29494119691E+02 0.37780739223E+02 0.49642249971E+02 0.64379856218E+02 0.79810541491E+02
 0.91995389798E+02 0.13603955472E+03 0.12939153630E+03 0.11212539794E+03 0.90142184882E+02
 0.68606325400E+02 0.50206379663E+02 0.36146953085E+02 0.26984894774E+02 0.21787453507E+02
 0.18793401115E+02 0.17371947913E+02 0.16829341071E+02 0.16766622280E+02 0.16942987927E+02
 0.17057098919E+02 0.16942987927E+02 0.16766622280E+02 0.16829341071E+02 0.17371947913E+02
 0.18793401115E+02 0.21787453507E+02 0.26984894774E+02 0.36146953085E+02 0.50206379663E+02
 0.68606325400E+02 0.90142184882E+02 0.11212539794E+03 0.12939153630E+03 0.17897788390E+03
 0.17025238236E+03 0.14773097794E+03 0.11922485291E+03 0.91021173373E+02 0.65882210515E+02
 0.45257195218E+02 0.30834243650E+02 0.22789283026E+02 0.18407336685E+02 0.15993746267E+02
 0.14695079185E+02 0.14101232861E+02 0.14017113424E+02 0.14067837736E+02 0.14017113424E+02
 0.14101232861E+02 0.14695079185E+02 0.15993746267E+02 0.18407336685E+02 0.22789283026E+02
 0.30834243650E+02 0.45257195218E+02 0.65882210515E+02 0.91021173373E+02 0.11922485291E+03
 0.14773097794E+03 0.17025238236E+03 0.22148991281E+03 0.21062051079E+03 0.18279440956E+03
 0.14798936691E+03 0.11363712617E+03 0.82284027395E+02 0.55291065975E+02 0.35398895983E+02
 0.24104920495E+02 0.18496934588E+02 0.15330497301E+02 0.13495165910E+02 0.12560759816E+02
 0.12354425705E+02 0.12393772945E+02 0.12354425705E+02 0.12560759816E+02 0.13495165910E+02
 0.15330497301E+02 0.18496934588E+02 0.24104920495E+02 0.35398895983E+02 0.55291065975E+02
 0.82284027395E+02 0.11363712617E+03 0.14798936691E+03 0.18279440956E+03 0.21062051079E+03
 0.25463760516E+03 0.24200327405E+03 0.20986012630E+03 0.17007166320E+03 0.13106145134E+03
 0.95121178381E+02 0.63362785865E+02 0.39233650056E+02 0.25288028026E+02 0.18727295279E+02
 0.15087066686E+02 0.12932591560E+02 0.11815868155E+02 0.11571611722E+02 0.11622834145E+02
 0.11571611722E+02 0.11815868155E+02 0.12932591560E+02 0.15087066686E+02 0.18727295279E+02
 0.25288028026E+02 0.39233650056E+02 0.63362785865E+02 0.95121178381E+02 0.13106145134E+03
 0.17007166320E+03 0.20986012630E+03 0.24200327405E+03 0.23155715046E+03 0.22026347625E+03
 0.19137054555E+03 0.15523687813E+03 0.11946574876E+03 0.86550468173E+02 0.57904543743E+02
 0.36593784244E+02 0.24456757534E+02 0.18558415660E+02 0.15240536971E+02 0.13297676311E+02
 0.12294157151E+02 0.12064119339E+02 0.12102151642E+02 0.12064119339E+02 0.12294157151E+02
 0.13297676311E+02 0.15240536971E+02 0.18558415660E+02 0.24456757534E+02 0.36593784244E+02
 0.57904543743E+02 0.86550468173E+02 0.11946574876E+03 0.15523687813E+03 0.19137054555E+03
 0.22026347625E+03 0.22173319086E+03 0.21093098739E+03 0.18323984475E+03 0.14850236565E+03
 0.11407317936E+03 0.82540567508E+02 0.55372567276E+02 0.35383063770E+02 0.24064552569E+02
 0.18456748507E+02 0.15286195512E+02 0.13438144888E+02 0.12485600166E+02 0.12262937309E+02
 0.12295659461E+02 0.12262937309E+02 0.12485600166E+02 0.13438144888E+02 0.15286195512E+02
 0.18456748507E+02 0.24064552569E+02 0.35383063770E+02 0.55372567276E+02 0.82540567508E+02
 0.11407317936E+03 0.14850236565E+03 0.18323984475E+03 0.21093098739E+03 0.19560851793E+03