   4   4   0   0
  0.1140714E+02  0.3573378E-09  0.3573378E-09  0.3573378E-09  0.5000000E-15
  1.000000000000000E-004
  CAR 
 unknown system                          
     32.58510766      0.03911208  301     13.53962326      1.00000000
      0.039  0.0000E+00  0.0000E+00
      0.148  0.0000E+00  0.0000E+00
      0.256  0.0000E+00  0.0000E+00
      0.365 -0.1174E-31 -0.1274E-32
      0.473 -0.7206E-28 -0.7819E-29
      0.582 -0.2443E-24 -0.2652E-25
      0.690 -0.4574E-21 -0.4965E-22
      0.799 -0.4724E-18 -0.5130E-19
      0.907 -0.2604E-15 -0.2830E-16
      1.015 -0.8108E-13 -0.8824E-14
      1.124 -0.1383E-10 -0.1509E-11
      1.232 -0.1291E-08 -0.1416E-09
      1.341 -0.6578E-07 -0.7277E-08
      1.449 -0.1826E-05 -0.2054E-06
      1.558 -0.2765E-04 -0.3205E-05
      1.666 -0.2283E-03 -0.2798E-04
      1.775 -0.1011E-02 -0.1376E-03
      1.883 -0.1995E-02 -0.3541E-03
      1.992  0.1920E-02 -0.1457E-03
      2.100  0.2264E-01  0.2310E-02
      2.209  0.6498E-01  0.9360E-02
      2.317  0.1039E+00  0.2064E-01
      2.426  0.1063E+00  0.3217E-01
      2.534  0.1017E+00  0.4320E-01
      2.643  0.1603E+00  0.6059E-01
      2.751  0.2408E+00  0.8671E-01
      2.860  0.2159E+00  0.1101E+00
      2.968  0.1346E+00  0.1247E+00
      3.077  0.1692E+00  0.1431E+00
      3.185  0.2788E+00  0.1733E+00
      3.294  0.3152E+00  0.2075E+00
      3.402  0.2844E+00  0.2384E+00
      3.511  0.2664E+00  0.2673E+00
      3.619  0.3389E+00  0.3040E+00
      3.728  0.4204E+00  0.3497E+00
      3.836  0.3589E+00  0.3886E+00
      3.945  0.2702E+00  0.4179E+00
      4.053  0.3339E+00  0.4541E+00
      4.162  0.5676E+00  0.5157E+00
      4.270  0.7731E+00  0.5996E+00
      4.379  0.7855E+00  0.6848E+00
      4.487  0.6804E+00  0.7586E+00
      4.596  0.6995E+00  0.8345E+00
      4.704  0.1010E+01  0.9441E+00
      4.813  0.1360E+01  0.1092E+01
      4.921  0.1502E+01  0.1255E+01
      5.029  0.1661E+01  0.1435E+01
      5.138  0.2031E+01  0.1655E+01
      5.246  0.2350E+01  0.1910E+01
      5.355  0.2405E+01  0.2171E+01
      5.463  0.2292E+01  0.2420E+01
      5.572  0.2397E+01  0.2680E+01
      5.680  0.3222E+01  0.3029E+01
      5.789  0.4322E+01  0.3498E+01
      5.897  0.4596E+01  0.3997E+01
      6.006  0.4355E+01  0.4469E+01
      6.114  0.4601E+01  0.4968E+01
      6.223  0.5121E+01  0.5524E+01
      6.331  0.5411E+01  0.6111E+01
      6.440  0.5345E+01  0.6691E+01
      6.548  0.5035E+01  0.7237E+01
      6.657  0.4738E+01  0.7751E+01
      6.765  0.4533E+01  0.8243E+01
      6.874  0.4531E+01  0.8734E+01
      6.982  0.4640E+01  0.9238E+01
      7.091  0.4391E+01  0.9714E+01
      7.199  0.3863E+01  0.1013E+02
      7.308  0.3515E+01  0.1051E+02
      7.416  0.3303E+01  0.1087E+02
      7.525  0.3197E+01  0.1122E+02
      7.633  0.3259E+01  0.1157E+02
      7.742  0.3284E+01  0.1193E+02
      7.850  0.3234E+01  0.1228E+02
      7.959  0.3364E+01  0.1265E+02
      8.067  0.3780E+01  0.1306E+02
      8.176  0.4199E+01  0.1351E+02
      8.284  0.4467E+01  0.1400E+02
      8.393  0.4885E+01  0.1453E+02
      8.501  0.5280E+01  0.1510E+02
      8.610  0.5139E+01  0.1566E+02
      8.718  0.4571E+01  0.1615E+02
      8.827  0.4202E+01  0.1661E+02
      8.935  0.4350E+01  0.1708E+02
      9.044  0.4462E+01  0.1756E+02
      9.152  0.4437E+01  0.1804E+02
      9.260  0.4991E+01  0.1859E+02
      9.369  0.6252E+01  0.1926E+02
      9.477  0.7671E+01  0.2010E+02
      9.586  0.8790E+01  0.2105E+02
      9.694  0.8998E+01  0.2203E+02
      9.803  0.7959E+01  0.2289E+02
      9.911  0.6474E+01  0.2359E+02
     10.020  0.5647E+01  0.2420E+02
     10.128  0.5546E+01  0.2481E+02
     10.237  0.5719E+01  0.2543E+02
     10.345  0.5973E+01  0.2607E+02
     10.454  0.6066E+01  0.2673E+02
     10.562  0.6243E+01  0.2741E+02
     10.671  0.6517E+01  0.2812E+02
     10.779  0.5943E+01  0.2876E+02
     10.888  0.4694E+01  0.2927E+02
     10.996  0.4041E+01  0.2971E+02
     11.105  0.4241E+01  0.3017E+02
     11.213  0.4289E+01  0.3063E+02
     11.322  0.3666E+01  0.3103E+02
     11.430  0.3024E+01  0.3136E+02
     11.539  0.2714E+01  0.3166E+02
     11.647  0.2559E+01  0.3193E+02
     11.756  0.2640E+01  0.3222E+02
     11.864  0.3074E+01  0.3255E+02
     11.973  0.3864E+01  0.3297E+02
     12.081  0.4742E+01  0.3349E+02
     12.190  0.5469E+01  0.3408E+02
     12.298  0.5789E+01  0.3471E+02
     12.407  0.5382E+01  0.3529E+02
     12.515  0.4691E+01  0.3580E+02
     12.624  0.4395E+01  0.3628E+02
     12.732  0.4370E+01  0.3675E+02
     12.841  0.4071E+01  0.3719E+02
     12.949  0.3807E+01  0.3761E+02
     13.058  0.4191E+01  0.3806E+02
     13.166  0.4778E+01  0.3858E+02
     13.274  0.4709E+01  0.3909E+02
     13.383  0.3907E+01  0.3951E+02
     13.491  0.3167E+01  0.3986E+02
     13.600  0.2960E+01  0.4018E+02
     13.708  0.2993E+01  0.4050E+02
     13.817  0.3066E+01  0.4084E+02
     13.925  0.2971E+01  0.4116E+02
     14.034  0.2602E+01  0.4144E+02
     14.142  0.2411E+01  0.4170E+02
     14.251  0.2581E+01  0.4198E+02
     14.359  0.2623E+01  0.4227E+02
     14.468  0.2294E+01  0.4252E+02
     14.576  0.1905E+01  0.4272E+02
     14.685  0.1614E+01  0.4290E+02
     14.793  0.1338E+01  0.4304E+02
     14.902  0.1203E+01  0.4317E+02
     15.010  0.1215E+01  0.4330E+02
     15.119  0.1087E+01  0.4342E+02
     15.227  0.8777E+00  0.4352E+02
     15.336  0.8294E+00  0.4361E+02
     15.444  0.9200E+00  0.4371E+02
     15.553  0.9417E+00  0.4381E+02
     15.661  0.7349E+00  0.4389E+02
     15.770  0.4578E+00  0.4394E+02
     15.878  0.3976E+00  0.4398E+02
     15.987  0.6008E+00  0.4405E+02
     16.095  0.7878E+00  0.4413E+02
     16.204  0.6787E+00  0.4421E+02
     16.312  0.5073E+00  0.4426E+02
     16.421  0.5549E+00  0.4432E+02
     16.529  0.6565E+00  0.4439E+02
     16.638  0.6094E+00  0.4446E+02
     16.746  0.5247E+00  0.4452E+02
     16.855  0.5937E+00  0.4458E+02
     16.963  0.7985E+00  0.4467E+02
     17.072  0.8673E+00  0.4476E+02
     17.180  0.7103E+00  0.4484E+02
     17.288  0.6408E+00  0.4491E+02
     17.397  0.7683E+00  0.4499E+02
     17.505  0.9643E+00  0.4510E+02
     17.614  0.1213E+01  0.4523E+02
     17.722  0.1357E+01  0.4537E+02
     17.831  0.1316E+01  0.4552E+02
     17.939  0.1218E+01  0.4565E+02
     18.048  0.1185E+01  0.4578E+02
     18.156  0.1155E+01  0.4590E+02
     18.265  0.9832E+00  0.4601E+02
     18.373  0.7298E+00  0.4609E+02
     18.482  0.5619E+00  0.4615E+02
     18.590  0.5934E+00  0.4621E+02
     18.699  0.6930E+00  0.4629E+02
     18.807  0.7528E+00  0.4637E+02
     18.916  0.8352E+00  0.4646E+02
     19.024  0.9301E+00  0.4656E+02
     19.133  0.1104E+01  0.4668E+02
     19.241  0.1216E+01  0.4681E+02
     19.350  0.9629E+00  0.4692E+02
     19.458  0.5039E+00  0.4697E+02
     19.567  0.2546E+00  0.4700E+02
     19.675  0.3613E+00  0.4704E+02
     19.784  0.6911E+00  0.4712E+02
     19.892  0.9620E+00  0.4722E+02
     20.001  0.9292E+00  0.4732E+02
     20.109  0.6300E+00  0.4739E+02
     20.218  0.3374E+00  0.4743E+02
     20.326  0.1914E+00  0.4745E+02
     20.435  0.2466E+00  0.4747E+02
     20.543  0.4804E+00  0.4753E+02
     20.652  0.6369E+00  0.4759E+02
     20.760  0.6474E+00  0.4766E+02
     20.869  0.6840E+00  0.4774E+02
     20.977  0.7380E+00  0.4782E+02
     21.086  0.8754E+00  0.4791E+02
     21.194  0.1168E+01  0.4804E+02
     21.302  0.1343E+01  0.4819E+02
     21.411  0.1252E+01  0.4832E+02
     21.519  0.1096E+01  0.4844E+02
     21.628  0.1098E+01  0.4856E+02
     21.736  0.1213E+01  0.4869E+02
     21.845  0.1312E+01  0.4883E+02
     21.953  0.1316E+01  0.4898E+02
     22.062  0.1214E+01  0.4911E+02
     22.170  0.1222E+01  0.4924E+02
     22.279  0.1390E+01  0.4939E+02
     22.387  0.1415E+01  0.4955E+02
     22.496  0.1221E+01  0.4968E+02
     22.604  0.1056E+01  0.4979E+02
     22.713  0.9536E+00  0.4990E+02
     22.821  0.8955E+00  0.4999E+02
     22.930  0.9371E+00  0.5009E+02
     23.038  0.1083E+01  0.5021E+02
     23.147  0.1213E+01  0.5034E+02
     23.255  0.1157E+01  0.5047E+02
     23.364  0.9686E+00  0.5057E+02
     23.472  0.9050E+00  0.5067E+02
     23.581  0.9822E+00  0.5078E+02
     23.689  0.1035E+01  0.5089E+02
     23.798  0.1095E+01  0.5101E+02
     23.906  0.1279E+01  0.5115E+02
     24.015  0.1377E+01  0.5130E+02
     24.123  0.1179E+01  0.5143E+02
     24.232  0.9729E+00  0.5153E+02
     24.340  0.1129E+01  0.5165E+02
     24.449  0.1519E+01  0.5182E+02
     24.557  0.1562E+01  0.5199E+02
     24.666  0.1131E+01  0.5211E+02
     24.774  0.8229E+00  0.5220E+02
     24.883  0.9259E+00  0.5230E+02
     24.991  0.1101E+01  0.5242E+02
     25.100  0.1214E+01  0.5255E+02
     25.208  0.1426E+01  0.5271E+02
     25.317  0.1562E+01  0.5288E+02
     25.425  0.1400E+01  0.5303E+02
     25.533  0.1147E+01  0.5315E+02
     25.642  0.1110E+01  0.5327E+02
     25.750  0.1233E+01  0.5341E+02
     25.859  0.1447E+01  0.5356E+02
     25.967  0.1808E+01  0.5376E+02
     26.076  0.2044E+01  0.5398E+02
     26.184  0.1916E+01  0.5419E+02
     26.293  0.1705E+01  0.5437E+02
     26.401  0.1602E+01  0.5455E+02
     26.510  0.1525E+01  0.5471E+02
     26.618  0.1457E+01  0.5487E+02
     26.727  0.1424E+01  0.5503E+02
     26.835  0.1471E+01  0.5519E+02
     26.944  0.1691E+01  0.5537E+02
     27.052  0.1799E+01  0.5556E+02
     27.161  0.1576E+01  0.5574E+02
     27.269  0.1375E+01  0.5588E+02
     27.378  0.1462E+01  0.5604E+02
     27.486  0.1751E+01  0.5623E+02
     27.595  0.1940E+01  0.5644E+02
     27.703  0.1894E+01  0.5665E+02
     27.812  0.1850E+01  0.5685E+02
     27.920  0.1807E+01  0.5705E+02
     28.029  0.1620E+01  0.5722E+02
     28.137  0.1468E+01  0.5738E+02
     28.246  0.1513E+01  0.5754E+02
     28.354  0.1602E+01  0.5772E+02
     28.463  0.1544E+01  0.5789E+02
     28.571  0.1316E+01  0.5803E+02
     28.680  0.1110E+01  0.5815E+02
     28.788  0.1084E+01  0.5827E+02
     28.897  0.1197E+01  0.5840E+02
     29.005  0.1379E+01  0.5855E+02
     29.114  0.1450E+01  0.5870E+02
     29.222  0.1406E+01  0.5886E+02
     29.331  0.1339E+01  0.5900E+02
     29.439  0.1169E+01  0.5913E+02
     29.547  0.9416E+00  0.5923E+02
     29.656  0.8233E+00  0.5932E+02
     29.764  0.8683E+00  0.5941E+02
     29.873  0.8929E+00  0.5951E+02
     29.981  0.7269E+00  0.5959E+02
     30.090  0.5034E+00  0.5964E+02
     30.198  0.4550E+00  0.5969E+02
     30.307  0.6089E+00  0.5976E+02
     30.415  0.8011E+00  0.5985E+02
     30.524  0.7876E+00  0.5993E+02
     30.632  0.5020E+00  0.5999E+02
     30.741  0.1613E+00  0.6000E+02
     30.849 -0.7296E-02  0.6000E+02
     30.958 -0.2230E-01  0.6000E+02
     31.066 -0.6508E-02  0.6000E+02
     31.175 -0.8346E-03  0.6000E+02
     31.283 -0.5411E-04  0.6000E+02
     31.392 -0.1855E-05  0.6000E+02
     31.500 -0.3430E-07  0.6000E+02
     31.609 -0.3457E-09  0.6000E+02
     31.717 -0.1911E-11  0.6000E+02
     31.826 -0.5782E-14  0.6000E+02
     31.934  0.0000E+00  0.6000E+02
     32.043  0.0000E+00  0.6000E+02
     32.151  0.0000E+00  0.6000E+02
     32.260  0.0000E+00  0.6000E+02
     32.368  0.0000E+00  0.6000E+02
     32.477  0.0000E+00  0.6000E+02
     32.585  0.0000E+00  0.6000E+02
