    4    4    1    1
  0.1140714E+02  0.3573378E-09  0.3573378E-09  0.3573378E-09  0.5000000E-15
  1.000000000000000E-004
  CAR 
 unknown system                          
     40    216     30
 
  0.0000000E+00  0.0000000E+00  0.0000000E+00  0.7513148E-03
    1        2.039112   1.000000
    2        4.126115   1.000000
    3        5.444628   1.000000
    4        5.503502   1.000000
    5        5.557980   1.000000
    6        5.710922   1.000000
    7        5.749209   1.000000
    8        9.220432   1.000000
    9        9.236843   1.000000
   10        9.405861   1.000000
   11       11.031239   1.000000
   12       11.224613   1.000000
   13       12.212203   1.000000
   14       12.462914   1.000000
   15       12.659821   1.000000
   16       13.619165   0.191129
   17       13.884172  -0.017567
   18       14.115176  -0.000182
   19       14.483367  -0.000000
   20       15.176252  -0.000000
   21       15.501565  -0.000000
   22       15.503833  -0.000000
   23       15.544433  -0.000000
   24       16.032245  -0.000000
   25       24.989145   0.000000
   26       25.166754   0.000000
   27       25.313087   0.000000
   28       25.676894   0.000000
   29       25.969953   0.000000
   30       26.990742   0.000000
 
  0.9090909E-01  0.0000000E+00  0.0000000E+00  0.1502630E-02
    1        2.162918   1.000000
    2        4.218016   1.000000
    3        5.511088   1.000000
    4        5.550654   1.000000
    5        5.642559   1.000000
    6        5.792507   1.000000
    7        5.842094   1.000000
    8        9.160364   1.000000
    9        9.268787   1.000000
   10        9.455929   1.000000
   11       11.037833   1.000000
   12       11.161214   1.000000
   13       12.207768   1.000000
   14       12.300487   1.000000
   15       12.326535   1.000000
   16       12.960794   1.000167
   17       13.824008  -0.030943
   18       13.845917  -0.026229
   19       14.358637  -0.000000
   20       14.478287  -0.000000
   21       15.051846  -0.000000
   22       16.031815  -0.000000
   23       16.386768  -0.000000
   24       16.468598  -0.000000
   25       24.711433   0.000000
   26       24.972591   0.000000
   27       25.771754   0.000000
   28       25.819362   0.000000
   29       26.074501   0.000000
   30       27.541593   0.000000
 
  0.0000000E+00  0.9090909E-01  0.0000000E+00  0.1502630E-02
    1        2.176778   1.000000
    2        4.225416   1.000000
    3        5.498648   1.000000
    4        5.595463   1.000000
    5        5.603469   1.000000
    6        5.792967   1.000000
    7        5.845849   1.000000
    8        9.274158   1.000000
    9        9.288495   1.000000
   10        9.338174   1.000000
   11       10.978412   1.000000
   12       11.239361   1.000000
   13       11.983064   1.000000
   14       12.358887   1.000000
   15       12.431363   1.000000
   16       13.602278   0.248758
   17       13.647717   0.108490
   18       14.109632  -0.000211
   19       14.298863  -0.000001
   20       14.316025  -0.000000
   21       14.722223  -0.000000
   22       15.090949  -0.000000
   23       16.581616  -0.000000
   24       16.936744  -0.000000
   25       24.474698   0.000000
   26       25.361076   0.000000
   27       25.495799   0.000000
   28       25.821306   0.000000
   29       26.429767   0.000000
   30       27.239959   0.000000
 
  0.0000000E+00  0.0000000E+00  0.9090909E-01  0.1502630E-02
    1        2.178027   1.000000
    2        4.228232   1.000000
    3        5.547086   1.000000
    4        5.596863   1.000000
    5        5.644473   1.000000
    6        5.763819   1.000000
    7        5.790277   1.000000
    8        9.140759   1.000000
    9        9.283285   1.000000
   10        9.456041   1.000000
   11       10.999277   1.000000
   12       11.209958   1.000000
   13       11.965692   1.000000
   14       12.368872   1.000000
   15       12.650665   1.000000
   16       13.107879   1.004631
   17       13.610946   0.218430
   18       13.777266  -0.035242
   19       14.282139  -0.000001
   20       14.757743  -0.000000
   21       15.117268  -0.000000
   22       15.170690  -0.000000
   23       16.433071  -0.000000
   24       16.884032  -0.000000
   25       24.227653   0.000000
   26       25.415592   0.000000
   27       25.506260   0.000000
   28       26.095537   0.000000
   29       26.401390   0.000000
   30       27.231867   0.000000
 
  0.1818182E+00  0.0000000E+00  0.0000000E+00  0.1502630E-02
    1        2.520822   1.000000
    2        4.482347   1.000000
    3        5.678082   1.000000
    4        5.687308   1.000000
    5        5.894761   1.000000
    6        6.034766   1.000000
    7        6.126091   1.000000
    8        8.945636   1.000000
    9        9.406965   1.000000
   10        9.604945   1.000000
   11       10.927990   1.000000
   12       11.106118   1.000000
   13       11.486442   1.000000
   14       11.791134   1.000000
   15       11.940699   1.000000
   16       12.198074   1.000000
   17       13.401312   0.956892
   18       13.485844   0.718694
   19       13.764585  -0.033702
   20       13.903412  -0.013714
   21       14.255056  -0.000003
   22       16.030752  -0.000000
   23       17.780802  -0.000000
   24       17.794264  -0.000000
   25       23.902076   0.000000
   26       24.908311   0.000000
   27       26.003423   0.000000
   28       26.105103   0.000000
   29       26.976615   0.000000
   30       27.330855   0.000000
 
  0.0000000E+00  0.1818182E+00  0.0000000E+00  0.1502630E-02
    1        2.579124   1.000000
    2        4.509383   1.000000
    3        5.627032   1.000000
    4        5.734743   1.000000
    5        5.866003   1.000000
    6        6.035175   1.000000
    7        6.144493   1.000000
    8        9.148134   1.000000
    9        9.436345   1.000000
   10        9.445627   1.000000
   11       10.820336   1.000000
   12       11.285636   1.000000
   13       11.387402   1.000000
   14       11.605364   1.000000
   15       12.325512   1.000000
   16       12.961637   1.000171
   17       13.447344   0.848163
   18       13.557982   0.422677
   19       13.746975  -0.028533
   20       13.844050  -0.026654
   21       14.097387  -0.000290
   22       14.144786  -0.000081
   23       17.949296  -0.000000
   24       18.142417  -0.000000
   25       23.682735   0.000000
   26       25.628653   0.000000
   27       25.813691   0.000000
   28       25.929816   0.000000
   29       26.792745   0.000000
   30       27.515302   0.000000
 
  0.0000000E+00  0.0000000E+00  0.1818182E+00  0.1502630E-02
    1        2.584651   1.000000
    2        4.521892   1.000000
    3        5.828888   1.000000
    4        5.872886   1.000000
    5        5.902339   1.000000
    6        5.910650   1.000000
    7        5.919555   1.000000
    8        8.913910   1.000000
    9        9.418173   1.000000
   10        9.606533   1.000000
   11       10.851295   1.000000
   12       11.221790   1.000000
   13       11.342850   1.000000
   14       11.899838   1.000000
   15       12.059481   1.000000
   16       12.628226   1.000000
   17       13.155976   1.010318
   18       13.513236   0.610586
   19       13.563532   0.399630
   20       13.849546  -0.025396
   21       14.260825  -0.000002
   22       15.156709  -0.000000
   23       17.893197  -0.000000
   24       18.072706  -0.000000
   25       23.299776   0.000000
   26       25.808888   0.000000
   27       25.875900   0.000000
   28       26.106515   0.000000
   29       27.023451   0.000000
   30       27.333168   0.000000
 
  0.2727273E+00  0.0000000E+00  0.0000000E+00  0.1502630E-02
    1        3.065710   1.000000
    2        4.880618   1.000000
    3        5.884423   1.000000
    4        5.895521   1.000000
    5        6.307050   1.000000
    6        6.427351   1.000000
    7        6.574627   1.000000
    8        8.637455   1.000000
    9        9.581092   1.000000
   10        9.844153   1.000000
   11       10.601838   1.000000
   12       10.626127   1.000000
   13       10.627314   1.000000
   14       11.152203   1.000000
   15       11.396388   1.000000
   16       12.185566   1.000000
   17       12.330134   1.000000
   18       12.834143   1.000004
   19       13.052349   1.001531
   20       13.353156   1.016605
   21       13.961938  -0.005484
   22       16.029790  -0.000000
   23       19.202283   0.000000
   24       19.299657   0.000000
   25       23.226111   0.000000
   26       24.819598   0.000000
   27       25.669513   0.000000
   28       25.749968   0.000000
   29       26.308232   0.000000
   30       28.081918   0.000000
 
  0.0000000E+00  0.2727273E+00  0.0000000E+00  0.1502630E-02
    1        3.210146   1.000000
    2        4.929571   1.000000
    3        5.766302   1.000000
    4        5.930961   1.000000
    5        6.300956   1.000000
    6        6.425253   1.000000
    7        6.624524   1.000000
    8        8.871700   1.000000
    9        9.702579   1.000000
   10        9.707236   1.000000
   11       10.586230   1.000000
   12       10.594803   1.000000
   13       10.682369   1.000000
   14       11.336879   1.000000
   15       11.806779   1.000000
   16       12.269793   1.000000
   17       12.660167   1.000000
   18       12.813577   1.000002
   19       13.068067   1.002135
   20       13.246912   1.029242
   21       13.503580   0.649799
   22       14.085421  -0.000392
   23       19.403500   0.000000
   24       19.437520   0.000000
   25       23.052087   0.000000
   26       25.509315   0.000000
   27       25.511074   0.000000
   28       25.684398   0.000000
   29       27.017963   0.000000
   30       27.191856   0.000000
 
  0.0000000E+00  0.0000000E+00  0.2727273E+00  0.1502630E-02
    1        3.225076   1.000000
    2        4.959936   1.000000
    3        6.007610   1.000000
    4        6.164483   1.000000
    5        6.300195   1.000000
    6        6.321819   1.000000
    7        6.326445   1.000000
    8        8.574618   1.000000
    9        9.590975   1.000000
   10        9.847744   1.000000
   11       10.580983   1.000000
   12       10.584242   1.000000
   13       10.703463   1.000000
   14       11.276152   1.000000
   15       11.527860   1.000000
   16       12.322274   1.000000
   17       12.588721   1.000000
   18       12.601937   1.000000
   19       12.969491   1.000210
   20       13.173867   1.013350
   21       13.582170   0.324409
   22       15.140870  -0.000000
   23       19.367723   0.000000
   24       19.439319   0.000000
   25       22.590399   0.000000
   26       25.575351   0.000000
   27       25.826545   0.000000
   28       25.887596   0.000000
   29       26.744647   0.000000
   30       27.484556   0.000000
 
  0.3636364E+00  0.0000000E+00  0.0000000E+00  0.1502630E-02
    1        3.688700   1.000000
    2        5.332842   1.000000
    3        6.050709   1.000000
    4        6.133730   1.000000
    5        6.865359   1.000000
    6        6.950449   1.000000
    7        7.084699   1.000000
    8        8.302153   1.000000
    9        9.337373   1.000000
   10        9.550353   1.000000
   11       10.149007   1.000000
   12       10.229488   1.000000
   13       10.268072   1.000000
   14       10.831433   1.000000
   15       11.118987   1.000000
   16       11.242362   1.000000
   17       12.174545   1.000000
   18       12.255903   1.000000
   19       12.382445   1.000000
   20       12.770093   1.000000
   21       13.840476  -0.027461
   22       16.028782  -0.000000
   23       20.652314   0.000000
   24       20.801556   0.000000
   25       22.768170   0.000000
   26       24.718769   0.000000
   27       24.807707   0.000000
   28       24.992829   0.000000
   29       25.601239   0.000000
   30       28.645515   0.000000
 
  0.0000000E+00  0.3636364E+00  0.0000000E+00  0.1502630E-02
    1        3.990838   1.000000
    2        5.372975   1.000000
    3        5.827200   1.000000
    4        6.148998   1.000000
    5        6.860300   1.000000
    6        6.927153   1.000000
    7        7.193201   1.000000
    8        8.574037   1.000000
    9        9.747759   1.000000
   10        9.758886   1.000000
   11       10.076812   1.000000
   12       10.093138   1.000000
   13       10.298787   1.000000
   14       10.777661   1.000000
   15       11.291499   1.000000
   16       11.917502   1.000000
   17       11.965733   1.000000
   18       12.026845   1.000000
   19       12.229977   1.000000
   20       12.657822   1.000000
   21       13.454497   0.826565
   22       14.077019  -0.000482
   23       20.779220   0.000000
   24       20.891394   0.000000
   25       22.637360   0.000000
   26       24.622656   0.000000
   27       24.909287   0.000000
   28       25.296708   0.000000
   29       26.882690   0.000000
   30       27.229610   0.000000
 
  0.0000000E+00  0.0000000E+00  0.3636364E+00  0.1502630E-02
    1        4.027358   1.000000
    2        5.403810   1.000000
    3        6.080779   1.000000
    4        6.467723   1.000000
    5        6.790482   1.000000
    6        6.904906   1.000000
    7        6.922160   1.000000
    8        8.179895   1.000000
    9        9.348452   1.000000
   10        9.577122   1.000000
   11       10.191818   1.000000
   12       10.241484   1.000000
   13       10.256639   1.000000
   14       10.871177   1.000000
   15       11.156509   1.000000
   16       11.390543   1.000000
   17       11.993306   1.000000
   18       12.173585   1.000000
   19       12.578441   1.000000
   20       12.588638   1.000000
   21       13.268625   1.033282
   22       15.126608  -0.000000
   23       20.718106   0.000000
   24       20.999164   0.000000
   25       22.131038   0.000000
   26       24.628062   0.000000
   27       25.088047   0.000000
   28       25.849203   0.000000
   29       26.290635   0.000000
   30       27.744908   0.000000
 
  0.4545455E+00  0.0000000E+00  0.0000000E+00  0.1502630E-02
    1        4.158487   1.000000
    2        5.691003   1.000000
    3        6.093455   1.000000
    4        6.316507   1.000000
    5        7.461856   1.000000
    6        7.505261   1.000000
    7        7.525693   1.000000
    8        8.064419   1.000000
    9        8.645847   1.000000
   10        8.651477   1.000000
   11       10.012442   1.000000
   12       10.226018   1.000000
   13       10.419489   1.000000
   14       10.423760   1.000000
   15       10.638183   1.000000
   16       11.257692   1.000000
   17       11.826302   1.000000
   18       11.899092   1.000000
   19       12.169686   1.000000
   20       12.340865   1.000000
   21       13.786192  -0.035448
   22       16.028334  -0.000000
   23       21.992204   0.000000
   24       22.144493   0.000000
   25       22.540873   0.000000
   26       23.742577   0.000000
   27       23.993658   0.000000
   28       24.635998   0.000000
   29       25.271009   0.000000
   30       28.866264   0.000000
 
  0.0000000E+00  0.4545455E+00  0.0000000E+00  0.1502630E-02
    1        4.734646   1.000000
    2        5.518053   1.000000
    3        5.836693   1.000000
    4        6.307545   1.000000
    5        7.409018   1.000000
    6        7.413542   1.000000
    7        7.640861   1.000000
    8        8.370356   1.000000
    9        9.040641   1.000000
   10        9.068115   1.000000
   11        9.905166   1.000000
   12       10.279685   1.000000
   13       10.528975   1.000000
   14       10.537716   1.000000
   15       11.073100   1.000000
   16       11.255305   1.000000
   17       11.276246   1.000000
   18       11.635939   1.000000
   19       12.024333   1.000000
   20       12.353139   1.000000
   21       13.427279   0.902097
   22       14.073365  -0.000527
   23       22.102970   0.000000
   24       22.356068   0.000000
   25       22.435649   0.000000
   26       23.491012   0.000000
   27       23.743425   0.000000
   28       25.167756   0.000000
   29       26.770478   0.000000
   30       27.282506   0.000000
 
  0.0000000E+00  0.0000000E+00  0.4545455E+00  0.1502630E-02
    1        4.848803   1.000000
    2        5.427878   1.000000
    3        6.172180   1.000000
    4        6.740348   1.000000
    5        7.145238   1.000000
    6        7.595591   1.000000
    7        7.619904   1.000000
    8        7.855195   1.000000
    9        8.580339   1.000000
   10        8.624277   1.000000
   11        9.949610   1.000000
   12       10.210568   1.000000
   13       10.519194   1.000000
   14       10.522735   1.000000
   15       10.719832   1.000000
   16       11.451665   1.000000
   17       11.506674   1.000000
   18       11.571400   1.000000
   19       12.085659   1.000000
   20       12.566415   1.000000
   21       13.164773   1.011745
   22       15.119199  -0.000000
   23       21.909029   0.000000
   24       22.054652   0.000000
   25       22.514983   0.000000
   26       23.466268   0.000000
   27       23.919513   0.000000
   28       25.818756   0.000000
   29       26.051396   0.000000
   30       27.855072   0.000000
 
  0.9090909E-01  0.9090909E-01  0.0000000E+00  0.3005259E-02
    1        2.298916   1.000000
    2        4.316164   1.000000
    3        5.571063   1.000000
    4        5.630613   1.000000
    5        5.699433   1.000000
    6        5.841745   1.000000
    7        5.963065   1.000000
    8        9.170792   1.000000
    9        9.317250   1.000000
   10        9.433109   1.000000
   11       10.983434   1.000000
   12       11.177829   1.000000
   13       11.921055   1.000000
   14       12.025311   1.000000
   15       12.313094   1.000000
   16       13.041558   1.001209
   17       13.561936   0.406236
   18       13.690746   0.022196
   19       13.818012  -0.032063
   20       14.211852  -0.000011
   21       15.165932  -0.000000
   22       15.648802  -0.000000
   23       16.430766  -0.000000
   24       17.323449  -0.000000
   25       24.425106   0.000000
   26       25.118332   0.000000
   27       25.795109   0.000000
   28       25.999271   0.000000
   29       26.419403   0.000000
   30       27.635382   0.000000
 
  0.0000000E+00  0.9090909E-01  0.9090909E-01  0.3005259E-02
    1        2.311729   1.000000
    2        4.326506   1.000000
    3        5.579407   1.000000
    4        5.682351   1.000000
    5        5.699545   1.000000
    6        5.852621   1.000000
    7        5.896771   1.000000
    8        9.154436   1.000000
    9        9.330234   1.000000
   10        9.431482   1.000000
   11       10.956970   1.000000
   12       11.215792   1.000000
   13       11.747586   1.000000
   14       12.238939   1.000000
   15       12.366805   1.000000
   16       13.226775   1.024721
   17       13.546656   0.470261
   18       13.581499   0.327042
   19       13.833302  -0.029035
   20       14.149942  -0.000070
   21       14.700627  -0.000000
   22       15.590009  -0.000000
   23       16.969413  -0.000000
   24       17.111808  -0.000000
   25       24.416222   0.000000
   26       24.795733   0.000000
   27       25.708425   0.000000
   28       26.126221   0.000000
   29       27.186640   0.000000
   30       27.332170   0.000000
 
  0.9090909E-01  0.0000000E+00  0.9090909E-01  0.3005259E-02
    1        2.299926   1.000000
    2        4.319113   1.000000
    3        5.593379   1.000000
    4        5.638170   1.000000
    5        5.742092   1.000000
    6        5.850656   1.000000
    7        5.888861   1.000000
    8        9.091881   1.000000
    9        9.307551   1.000000
   10        9.501734   1.000000
   11       11.013528   1.000000
   12       11.140719   1.000000
   13       11.855505   1.000000
   14       12.242829   1.000000
   15       12.435655   1.000000
   16       12.747773   1.000000
   17       12.921751   1.000056
   18       13.742691  -0.026647
   19       14.286013  -0.000001
   20       14.361250  -0.000000
   21       15.374421  -0.000000
   22       15.827705  -0.000000
   23       16.082259  -0.000000
   24       17.309602  -0.000000
   25       24.244976   0.000000
   26       25.137477   0.000000
   27       25.778140   0.000000
   28       26.250577   0.000000
   29       26.438175   0.000000
   30       27.611477   0.000000
 
  0.1818182E+00  0.9090909E-01  0.0000000E+00  0.3005259E-02
    1        2.652366   1.000000
    2        4.577452   1.000000
    3        5.752786   1.000000
    4        5.761793   1.000000
    5        5.951978   1.000000
    6        6.044546   1.000000
    7        6.259876   1.000000
    8        8.937859   1.000000
    9        9.431779   1.000000
   10        9.598238   1.000000
   11       10.910274   1.000000
   12       11.058525   1.000000
   13       11.294680   1.000000
   14       11.488362   1.000000
   15       11.947026   1.000000
   16       12.353191   1.000000
   17       12.698563   1.000000
   18       13.383565   0.984833
   19       13.513846   0.608075
   20       13.904519  -0.013508
   21       15.059484  -0.000000
   22       15.465977  -0.000000
   23       17.350714  -0.000000
   24       18.368954  -0.000000
   25       23.806758   0.000000
   26       24.969851   0.000000
   27       25.822870   0.000000
   28       26.274798   0.000000
   29       26.986264   0.000000
   30       27.579237   0.000000
 
  0.0000000E+00  0.1818182E+00  0.9090909E-01  0.3005259E-02
    1        2.702858   1.000000
    2        4.607659   1.000000
    3        5.700989   1.000000
    4        5.802085   1.000000
    5        5.944554   1.000000
    6        6.099766   1.000000
    7        6.221018   1.000000
    8        9.067123   1.000000
    9        9.464274   1.000000
   10        9.486724   1.000000
   11       10.814889   1.000000
   12       11.117127   1.000000
   13       11.348270   1.000000
   14       11.464189   1.000000
   15       12.276972   1.000000
   16       12.582489   1.000000
   17       13.104597   1.004361
   18       13.128852   1.006692
   19       13.487018   0.714283
   20       13.716057  -0.008187
   21       14.171779  -0.000037
   22       15.011988  -0.000000
   23       17.825085  -0.000000
   24       18.323053  -0.000000
   25       23.700827   0.000000
   26       24.909744   0.000000
   27       26.078041   0.000000
   28       26.097466   0.000000
   29       27.214901   0.000000
   30       27.593769   0.000000
 
  0.9090909E-01  0.0000000E+00  0.1818182E+00  0.3005259E-02
    1        2.700947   1.000000
    2        4.610155   1.000000
    3        5.827697   1.000000
    4        5.878738   1.000000
    5        5.979303   1.000000
    6        6.036798   1.000000
    7        6.069939   1.000000
    8        8.868876   1.000000
    9        9.437643   1.000000
   10        9.629630   1.000000
   11       10.862192   1.000000
   12       11.139499   1.000000
   13       11.237689   1.000000
   14       11.686011   1.000000
   15       11.981342   1.000000
   16       12.199934   1.000000
   17       12.483999   1.000000
   18       13.492707   0.692591
   19       13.814287  -0.032702
   20       13.939924  -0.007956
   21       14.845275  -0.000000
   22       14.969406  -0.000000
   23       17.402348  -0.000000
   24       18.453696  -0.000000
   25       23.348109   0.000000
   26       25.442769   0.000000
   27       26.248034   0.000000
   28       26.368703   0.000000
   29       26.686460   0.000000
   30       27.356054   0.000000
 
 -0.9090909E-01  0.1818182E+00  0.0000000E+00  0.3005259E-02
    1        2.696465   1.000000
    2        4.597127   1.000000
    3        5.710519   1.000000
    4        5.794461   1.000000
    5        5.932915   1.000000
    6        6.052113   1.000000
    7        6.271063   1.000000
    8        9.074287   1.000000
    9        9.455756   1.000000
   10        9.492621   1.000000
   11       10.825332   1.000000
   12       11.146119   1.000000
   13       11.293285   1.000000
   14       11.458562   1.000000
   15       12.194089   1.000000
   16       12.487569   1.000000
   17       13.065348   1.002018
   18       13.230235   1.025519
   19       13.691517   0.021060
   20       13.794400  -0.035110
   21       14.308992  -0.000000
   22       14.872605  -0.000000
   23       17.528057  -0.000000
   24       18.495797  -0.000000
   25       23.629972   0.000000
   26       25.349843   0.000000
   27       26.187586   0.000000
   28       26.219694   0.000000
   29       26.636767   0.000000
   30       27.281328   0.000000
 
 -0.1818182E+00  0.0000000E+00  0.9090909E-01  0.3005259E-02
    1        2.652673   1.000000
    2        4.580760   1.000000
    3        5.746079   1.000000
    4        5.764002   1.000000
    5        5.976165   1.000000
    6        6.098132   1.000000
    7        6.197104   1.000000
    8        8.892044   1.000000
    9        9.431361   1.000000
   10        9.628711   1.000000
   11       10.934829   1.000000
   12       11.048681   1.000000
   13       11.314454   1.000000
   14       11.560010   1.000000
   15       11.900222   1.000000
   16       12.219608   1.000000
   17       12.350943   1.000000
   18       13.561968   0.406100
   19       13.725237  -0.015962
   20       14.092919  -0.000325
   21       14.957977  -0.000000
   22       15.511908  -0.000000
   23       17.278981  -0.000000
   24       18.341183  -0.000000
   25       23.774927   0.000000
   26       24.965211   0.000000
   27       25.802084   0.000000
   28       26.388940   0.000000
   29       26.954880   0.000000
   30       27.584911   0.000000
 
  0.0000000E+00  0.9090909E-01  0.1818182E+00  0.3005259E-02
    1        2.707064   1.000000
    2        4.617220   1.000000
    3        5.829641   1.000000
    4        5.898269   1.000000
    5        5.926681   1.000000
    6        6.043557   1.000000
    7        6.091265   1.000000
    8        8.907632   1.000000
    9        9.441468   1.000000
   10        9.598336   1.000000
   11       10.837588   1.000000
   12       11.100285   1.000000
   13       11.269431   1.000000
   14       11.608998   1.000000
   15       12.091590   1.000000
   16       12.684601   1.000000
   17       12.694319   1.000000
   18       13.172692   1.013135
   19       13.370566   1.000743
   20       13.663223   0.072072
   21       14.843138  -0.000000
   22       15.072098  -0.000000
   23       17.768328  -0.000000
   24       18.310273  -0.000000
   25       23.404649   0.000000
   26       25.099507   0.000000
   27       26.096702   0.000000
   28       26.136332   0.000000
   29       27.222313   0.000000
   30       27.861911   0.000000
 
  0.2727273E+00  0.9090909E-01  0.0000000E+00  0.3005259E-02
    1        3.191705   1.000000
    2        4.972490   1.000000
    3        5.968549   1.000000
    4        5.969311   1.000000
    5        6.359540   1.000000
    6        6.413505   1.000000
    7        6.697950   1.000000
    8        8.623041   1.000000
    9        9.545918   1.000000
   10        9.840123   1.000000
   11       10.415327   1.000000
   12       10.532037   1.000000
   13       10.635445   1.000000
   14       11.093253   1.000000
   15       11.430854   1.000000
   16       11.771131   1.000000
   17       12.157401   1.000000
   18       12.845830   1.000005
   19       13.037642   1.001108
   20       13.599491   0.258822
   21       14.224857  -0.000007
   22       15.573537  -0.000000
   23       18.622084  -0.000000
   24       19.729525   0.000000
   25       23.092191   0.000000
   26       24.672750   0.000000
   27       25.188971   0.000000
   28       26.058429   0.000000
   29       27.445044   0.000000
   30       28.322247   0.000000
 
  0.0000000E+00  0.2727273E+00  0.9090909E-01  0.3005259E-02
    1        3.317853   1.000000
    2        5.024960   1.000000
    3        5.844528   1.000000
    4        5.993078   1.000000
    5        6.336724   1.000000
    6        6.484423   1.000000
    7        6.720100   1.000000
    8        8.822352   1.000000
    9        9.676130   1.000000
   10        9.719828   1.000000
   11       10.414845   1.000000
   12       10.589745   1.000000
   13       10.624568   1.000000
   14       11.307925   1.000000
   15       11.412703   1.000000
   16       12.196395   1.000000
   17       12.391057   1.000000
   18       12.575575   1.000000
   19       13.072317   1.002329
   20       13.430637   0.893770
   21       13.975648  -0.004281
   22       14.024964  -0.001597
   23       18.968604  -0.000000
   24       19.696011   0.000000
   25       22.973981   0.000000
   26       24.589965   0.000000
   27       25.959121   0.000000
   28       26.018393   0.000000
   29       27.230925   0.000000
   30       27.954084   0.000000
 
  0.9090909E-01  0.0000000E+00  0.2727273E+00  0.3005259E-02
    1        3.332773   1.000000
    2        5.046186   1.000000
    3        6.078758   1.000000
    4        6.182096   1.000000
    5        6.265973   1.000000
    6        6.419871   1.000000
    7        6.507408   1.000000
    8        8.532624   1.000000
    9        9.613608   1.000000
   10        9.821857   1.000000
   11       10.419637   1.000000
   12       10.520773   1.000000
   13       10.636692   1.000000
   14       11.192109   1.000000
   15       11.409741   1.000000
   16       11.622812   1.000000
   17       12.475308   1.000000
   18       12.996556   1.000419
   19       13.059796   1.001796
   20       13.519069   0.586465
   21       13.671235   0.055631
   22       14.870944  -0.000000
   23       18.833587  -0.000000
   24       19.705104   0.000000
   25       22.635492   0.000000
   26       24.983263   0.000000
   27       25.868956   0.000000
   28       26.255936   0.000000
   29       27.162344   0.000000
   30       27.713545   0.000000
 
 -0.9090909E-01  0.2727273E+00  0.0000000E+00  0.3005259E-02
    1        3.320521   1.000000
    2        5.014367   1.000000
    3        5.857026   1.000000
    4        5.995501   1.000000
    5        6.355628   1.000000
    6        6.423462   1.000000
    7        6.738354   1.000000