<?xml version="1.0" encoding="ISO-8859-1"?>
<modeling>
 <generator>
  <i name="program" type="string">vasp </i>
  <i name="version" type="string">6.2.0  </i>
  <i name="subversion" type="string">18Jan21 (build Mar 17 2021 09:06:54) complex                          serial </i>
  <i name="platform" type="string">LinuxIFC </i>
  <i name="date" type="string">2021 06 11 </i>
  <i name="time" type="string">11:35:09 </i>
 </generator>
 <incar>
  <i type="string" name="PREC">normal</i>
  <i type="int" name="ICHARG">     1</i>
  <i type="int" name="IBRION">     1</i>
  <i name="EDIFF">      0.00000100</i>
  <i type="int" name="NSW">     0</i>
  <i type="int" name="ISIF">     2</i>
  <i name="ENCUT">    270.00000000</i>
  <i type="int" name="NBANDS">    30</i>
  <i type="int" name="ISMEAR">     1</i>
  <i name="SIGMA">      0.20000000</i>
  <i type="logical" name="LCHARG"> T  </i>
  <i type="int" name="KPAR">     1</i>
  <i type="int" name="NCORE">     1</i>
  <i type="string" name="GGA">PE</i>
 </incar>
 <primitive_cell>
  <structure name="primitive_cell" >
   <crystal>
    <varray name="basis" >
     <v>       3.57337793       0.00000000       0.00000000 </v>
     <v>       0.00000000       3.57337793       0.00000000 </v>
     <v>       0.00000000       0.00000000       3.57337793 </v>
    </varray>
    <i name="volume">     45.62856923 </i>
    <varray name="rec_basis" >
     <v>       0.27984725       0.00000000       0.00000000 </v>
     <v>       0.00000000       0.27984725       0.00000000 </v>
     <v>       0.00000000       0.00000000       0.27984725 </v>
    </varray>
   </crystal>
   <varray name="positions" >
    <v>       0.00000000       0.00000000       0.00000000 </v>
    <v>       0.50000000       0.50000000       0.00000000 </v>
    <v>       0.50000000       0.00000000       0.50000000 </v>
    <v>       0.00000000       0.50000000       0.50000000 </v>
   </varray>
  </structure>
  <varray name="primitive_index" >
   <v type="int" >        1 </v>
   <v type="int" >        2 </v>
   <v type="int" >        3 </v>
   <v type="int" >        4 </v>
  </varray>
 </primitive_cell>
 <kpoints>
  <generation param="Monkhorst-Pack">
   <v type="int" name="divisions">      11       11       11 </v>
   <v name="usershift">      0.00000000       0.00000000       0.00000000 </v>
   <v name="genvec1">      0.09090909       0.00000000       0.00000000 </v>
   <v name="genvec2">      0.00000000       0.09090909       0.00000000 </v>
   <v name="genvec3">      0.00000000       0.00000000       0.09090909 </v>
   <v name="shift">      0.00000000       0.00000000       0.00000000 </v>
  </generation>
  <varray name="kpointlist" >
   <v>       0.00000000       0.00000000       0.00000000 </v>
   <v>       0.09090909       0.00000000       0.00000000 </v>
   <v>       0.00000000       0.09090909       0.00000000 </v>
   <v>       0.00000000       0.00000000       0.09090909 </v>
   <v>       0.18181818       0.00000000       0.00000000 </v>
   <v>       0.00000000       0.18181818       0.00000000 </v>
   <v>       0.00000000       0.00000000       0.18181818 </v>
   <v>       0.27272727       0.00000000       0.00000000 </v>
   <v>       0.00000000       0.27272727       0.00000000 </v>
   <v>       0.00000000       0.00000000       0.27272727 </v>
   <v>       0.36363636       0.00000000       0.00000000 </v>
   <v>       0.00000000       0.36363636       0.00000000 </v>
   <v>       0.00000000       0.00000000       0.36363636 </v>
   <v>       0.45454545       0.00000000       0.00000000 </v>
   <v>       0.00000000       0.45454545       0.00000000 </v>
   <v>       0.00000000       0.00000000       0.45454545 </v>
   <v>       0.09090909       0.09090909       0.00000000 </v>
   <v>       0.00000000       0.09090909       0.09090909 </v>
   <v>       0.09090909       0.00000000       0.09090909 </v>
   <v>       0.18181818       0.09090909       0.00000000 </v>
   <v>       0.00000000       0.18181818       0.09090909 </v>
   <v>       0.09090909       0.00000000       0.18181818 </v>
   <v>      -0.09090909       0.18181818       0.00000000 </v>
   <v>      -0.18181818       0.00000000       0.09090909 </v>
   <v>       0.00000000       0.09090909       0.18181818 </v>
   <v>       0.27272727       0.09090909       0.00000000 </v>
   <v>       0.00000000       0.27272727       0.09090909 </v>
   <v>       0.09090909       0.00000000       0.27272727 </v>
   <v>      -0.09090909       0.27272727       0.00000000 </v>
   <v>      -0.27272727       0.00000000       0.09090909 </v>
   <v>       0.00000000       0.09090909       0.27272727 </v>
   <v>       0.36363636       0.09090909       0.00000000 </v>
   <v>       0.00000000       0.36363636       0.09090909 </v>
   <v>       0.09090909       0.00000000       0.36363636 </v>
   <v>      -0.09090909       0.36363636       0.00000000 </v>
   <v>      -0.36363636       0.00000000       0.09090909 </v>
   <v>       0.00000000       0.09090909       0.36363636 </v>
   <v>       0.45454545       0.09090909       0.00000000 </v>
   <v>       0.00000000       0.45454545       0.09090909 </v>
   <v>       0.09090909       0.00000000       0.45454545 </v>
   <v>      -0.09090909       0.45454545       0.00000000 </v>
   <v>      -0.45454545       0.00000000       0.09090909 </v>
   <v>       0.00000000       0.09090909       0.45454545 </v>
   <v>       0.18181818       0.18181818       0.00000000 </v>
   <v>       0.00000000       0.18181818       0.18181818 </v>
   <v>       0.18181818       0.00000000       0.18181818 </v>
   <v>       0.27272727       0.18181818       0.00000000 </v>
   <v>       0.00000000       0.27272727       0.18181818 </v>
   <v>       0.18181818       0.00000000       0.27272727 </v>
   <v>      -0.18181818       0.27272727       0.00000000 </v>
   <v>      -0.27272727       0.00000000       0.18181818 </v>
   <v>       0.00000000       0.18181818       0.27272727 </v>
   <v>       0.36363636       0.18181818       0.00000000 </v>
   <v>       0.00000000       0.36363636       0.18181818 </v>
   <v>       0.18181818       0.00000000       0.36363636 </v>
   <v>      -0.18181818       0.36363636       0.00000000 </v>
   <v>      -0.36363636       0.00000000       0.18181818 </v>
   <v>       0.00000000       0.18181818       0.36363636 </v>
   <v>       0.45454545       0.18181818       0.00000000 </v>
   <v>       0.00000000       0.45454545       0.18181818 </v>
   <v>       0.18181818       0.00000000       0.45454545 </v>
   <v>      -0.18181818       0.45454545       0.00000000 </v>
   <v>      -0.45454545       0.00000000       0.18181818 </v>
   <v>       0.00000000       0.18181818       0.45454545 </v>
   <v>       0.27272727       0.27272727       0.00000000 </v>
   <v>       0.00000000       0.27272727       0.27272727 </v>
   <v>       0.27272727       0.00000000       0.27272727 </v>
   <v>       0.36363636       0.27272727       0.00000000 </v>
   <v>       0.00000000       0.36363636       0.27272727 </v>
   <v>       0.27272727       0.00000000       0.36363636 </v>
   <v>      -0.27272727       0.36363636       0.00000000 </v>
   <v>      -0.36363636       0.00000000       0.27272727 </v>
   <v>       0.00000000       0.27272727       0.36363636 </v>
   <v>       0.45454545       0.27272727       0.00000000 </v>
   <v>       0.00000000       0.45454545       0.27272727 </v>
   <v>       0.27272727       0.00000000       0.45454545 </v>
   <v>      -0.27272727       0.45454545       0.00000000 </v>
   <v>      -0.45454545       0.00000000       0.27272727 </v>
   <v>       0.00000000       0.27272727       0.45454545 </v>
   <v>       0.36363636       0.36363636       0.00000000 </v>
   <v>       0.00000000       0.36363636       0.36363636 </v>
   <v>       0.36363636       0.00000000       0.36363636 </v>
   <v>       0.45454545       0.36363636       0.00000000 </v>
   <v>       0.00000000       0.45454545       0.36363636 </v>
   <v>       0.36363636       0.00000000       0.45454545 </v>
   <v>      -0.36363636       0.45454545       0.00000000 </v>
   <v>      -0.45454545       0.00000000       0.36363636 </v>
   <v>       0.00000000       0.36363636       0.45454545 </v>
   <v>       0.45454545       0.45454545       0.00000000 </v>
   <v>       0.00000000       0.45454545       0.45454545 </v>
   <v>       0.45454545       0.00000000       0.45454545 </v>
   <v>       0.09090909       0.09090909       0.09090909 </v>
   <v>       0.18181818       0.09090909       0.09090909 </v>
   <v>       0.09090909       0.18181818       0.09090909 </v>
   <v>       0.09090909       0.09090909       0.18181818 </v>
   <v>       0.27272727       0.09090909       0.09090909 </v>
   <v>       0.09090909       0.27272727       0.09090909 </v>
   <v>       0.09090909       0.09090909       0.27272727 </v>
   <v>       0.36363636       0.09090909       0.09090909 </v>
   <v>       0.09090909       0.36363636       0.09090909 </v>
   <v>       0.09090909       0.09090909       0.36363636 </v>
   <v>       0.45454545       0.09090909       0.09090909 </v>
   <v>       0.09090909       0.45454545       0.09090909 </v>
   <v>       0.09090909       0.09090909       0.45454545 </v>
   <v>       0.18181818       0.18181818       0.09090909 </v>
   <v>       0.09090909       0.18181818       0.18181818 </v>
   <v>       0.18181818       0.09090909       0.18181818 </v>
   <v>       0.27272727       0.18181818       0.09090909 </v>
   <v>       0.09090909       0.27272727       0.18181818 </v>
   <v>       0.18181818       0.09090909       0.27272727 </v>
   <v>      -0.18181818       0.27272727       0.09090909 </v>
   <v>      -0.27272727       0.09090909       0.18181818 </v>
   <v>      -0.09090909       0.18181818       0.27272727 </v>
   <v>       0.36363636       0.18181818       0.09090909 </v>
   <v>       0.09090909       0.36363636       0.18181818 </v>
   <v>       0.18181818       0.09090909       0.36363636 </v>
   <v>      -0.18181818       0.36363636       0.09090909 </v>
   <v>      -0.36363636       0.09090909       0.18181818 </v>
   <v>      -0.09090909       0.18181818       0.36363636 </v>
   <v>       0.45454545       0.18181818       0.09090909 </v>
   <v>       0.09090909       0.45454545       0.18181818 </v>
   <v>       0.18181818       0.09090909       0.45454545 </v>
   <v>      -0.18181818       0.45454545       0.09090909 </v>
   <v>      -0.45454545       0.09090909       0.18181818 </v>
   <v>      -0.09090909       0.18181818       0.45454545 </v>
   <v>       0.27272727       0.27272727       0.09090909 </v>
   <v>       0.09090909       0.27272727       0.27272727 </v>
   <v>       0.27272727       0.09090909       0.27272727 </v>
   <v>       0.36363636       0.27272727       0.09090909 </v>
   <v>       0.09090909       0.36363636       0.27272727 </v>
   <v>       0.27272727       0.09090909       0.36363636 </v>
   <v>      -0.27272727       0.36363636       0.09090909 </v>
   <v>      -0.36363636       0.09090909       0.27272727 </v>
   <v>      -0.09090909       0.27272727       0.36363636 </v>
   <v>       0.45454545       0.27272727       0.09090909 </v>
   <v>       0.09090909       0.45454545       0.27272727 </v>
   <v>       0.27272727       0.09090909       0.45454545 </v>
   <v>      -0.27272727       0.45454545       0.09090909 </v>
   <v>      -0.45454545       0.09090909       0.27272727 </v>
   <v>      -0.09090909       0.27272727       0.45454545 </v>
   <v>       0.36363636       0.36363636       0.09090909 </v>
   <v>       0.09090909       0.36363636       0.36363636 </v>
   <v>       0.36363636       0.09090909       0.36363636 </v>
   <v>       0.45454545       0.36363636       0.09090909 </v>
   <v>       0.09090909       0.45454545       0.36363636 </v>
   <v>       0.36363636       0.09090909       0.45454545 </v>
   <v>      -0.36363636       0.45454545       0.09090909 </v>
   <v>      -0.45454545       0.09090909       0.36363636 </v>
   <v>      -0.09090909       0.36363636       0.45454545 </v>
   <v>       0.45454545       0.45454545       0.09090909 </v>
   <v>       0.09090909       0.45454545       0.45454545 </v>
   <v>       0.45454545       0.09090909       0.45454545 </v>
   <v>       0.18181818       0.18181818       0.18181818 </v>
   <v>       0.27272727       0.18181818       0.18181818 </v>
   <v>       0.18181818       0.27272727       0.18181818 </v>
   <v>       0.18181818       0.18181818       0.27272727 </v>
   <v>       0.36363636       0.18181818       0.18181818 </v>
   <v>       0.18181818       0.36363636       0.18181818 </v>
   <v>       0.18181818       0.18181818       0.36363636 </v>
   <v>       0.45454545       0.18181818       0.18181818 </v>
   <v>       0.18181818       0.45454545       0.18181818 </v>
   <v>       0.18181818       0.18181818       0.45454545 </v>
   <v>       0.27272727       0.27272727       0.18181818 </v>
   <v>       0.18181818       0.27272727       0.27272727 </v>
   <v>       0.27272727       0.18181818       0.27272727 </v>
   <v>       0.36363636       0.27272727       0.18181818 </v>
   <v>       0.18181818       0.36363636       0.27272727 </v>
   <v>       0.27272727       0.18181818       0.36363636 </v>
   <v>      -0.27272727       0.36363636       0.18181818 </v>
   <v>      -0.36363636       0.18181818       0.27272727 </v>
   <v>      -0.18181818       0.27272727       0.36363636 </v>
   <v>       0.45454545       0.27272727       0.18181818 </v>
   <v>       0.18181818       0.45454545       0.27272727 </v>
   <v>       0.27272727       0.18181818       0.45454545 </v>
   <v>      -0.27272727       0.45454545       0.18181818 </v>
   <v>      -0.45454545       0.18181818       0.27272727 </v>
   <v>      -0.18181818       0.27272727       0.45454545 </v>
   <v>       0.36363636       0.36363636       0.18181818 </v>
   <v>       0.18181818       0.36363636       0.36363636 </v>
   <v>       0.36363636       0.18181818       0.36363636 </v>
   <v>       0.45454545       0.36363636       0.18181818 </v>
   <v>       0.18181818       0.45454545       0.36363636 </v>
   <v>       0.36363636       0.18181818       0.45454545 </v>
   <v>      -0.36363636       0.45454545       0.18181818 </v>
   <v>      -0.45454545       0.18181818       0.36363636 </v>
   <v>      -0.18181818       0.36363636       0.45454545 </v>
   <v>       0.45454545       0.45454545       0.18181818 </v>
   <v>       0.18181818       0.45454545       0.45454545 </v>
   <v>       0.45454545       0.18181818       0.45454545 </v>
   <v>       0.27272727       0.27272727       0.27272727 </v>
   <v>       0.36363636       0.27272727       0.27272727 </v>
   <v>       0.27272727       0.36363636       0.27272727 </v>
   <v>       0.27272727       0.27272727       0.36363636 </v>
   <v>       0.45454545       0.27272727       0.27272727 </v>
   <v>       0.27272727       0.45454545       0.27272727 </v>
   <v>       0.27272727       0.27272727       0.45454545 </v>
   <v>       0.36363636       0.36363636       0.27272727 </v>
   <v>       0.27272727       0.36363636       0.36363636 </v>
   <v>       0.36363636       0.27272727       0.36363636 </v>
   <v>       0.45454545       0.36363636       0.27272727 </v>
   <v>       0.27272727       0.45454545       0.36363636 </v>
   <v>       0.36363636       0.27272727       0.45454545 </v>
   <v>      -0.36363636       0.45454545       0.27272727 </v>
   <v>      -0.45454545       0.27272727       0.36363636 </v>
   <v>      -0.27272727       0.36363636       0.45454545 </v>
   <v>       0.45454545       0.45454545       0.27272727 </v>
   <v>       0.27272727       0.45454545       0.45454545 </v>
   <v>       0.45454545       0.27272727       0.45454545 </v>
   <v>       0.36363636       0.36363636       0.36363636 </v>
   <v>       0.45454545       0.36363636       0.36363636 </v>
   <v>       0.36363636       0.45454545       0.36363636 </v>
   <v>       0.36363636       0.36363636       0.45454545 </v>
   <v>       0.45454545       0.45454545       0.36363636 </v>
   <v>       0.36363636       0.45454545       0.45454545 </v>
   <v>       0.45454545       0.36363636       0.45454545 </v>
   <v>       0.45454545       0.45454545       0.45454545 </v>
  </varray>
  <varray name="weights" >
   <v>       0.00075131 </v>
   <v>       0.00150263 </v>
   <v>       0.00150263 </v>
   <v>       0.00150263 </v>
   <v>       0.00150263 </v>
   <v>       0.00150263 </v>
   <v>       0.00150263 </v>
   <v>       0.00150263 </v>
   <v>       0.00150263 </v>
   <v>       0.00150263 </v>
   <v>       0.00150263 </v>
   <v>       0.00150263 </v>
   <v>       0.00150263 </v>
   <v>       0.00150263 </v>
   <v>       0.00150263 </v>
   <v>       0.00150263 </v>
   <v>       0.00300526 </v>
   <v>       0.00300526 </v>
   <v>       0.00300526 </v>
   <v>       0.00300526 </v>
   <v>       0.00300526 </v>
   <v>       0.00300526 </v>
   <v>       0.00300526 </v>
   <v>       0.00300526 </v>
   <v>       0.00300526 </v>
   <v>       0.00300526 </v>
   <v>       0.00300526 </v>
   <v>       0.00300526 </v>
   <v>       0.00300526 </v>
   <v>       0.00300526 </v>
   <v>       0.00300526 </v>
   <v>       0.00300526 </v>
   <v>       0.00300526 </v>
   <v>       0.00300526 </v>
   <v>       0.00300526 </v>
   <v>       0.00300526 </v>
   <v>       0.00300526 </v>
   <v>       0.00300526 </v>
   <v>       0.00300526 </v>
   <v>       0.00300526 </v>
   <v>       0.00300526 </v>
   <v>       0.00300526 </v>
   <v>       0.00300526 </v>
   <v>       0.00300526 </v>
   <v>       0.00300526 </v>
   <v>       0.00300526 </v>
   <v>       0.00300526 </v>
   <v>       0.00300526 </v>
   <v>       0.00300526 </v>
   <v>       0.00300526 </v>
   <v>       0.00300526 </v>
   <v>       0.00300526 </v>
   <v>       0.00300526 </v>
   <v>       0.00300526 </v>
   <v>       0.00300526 </v>
   <v>       0.00300526 </v>
   <v>       0.00300526 </v>
   <v>       0.00300526 </v>
   <v>       0.00300526 </v>
   <v>       0.00300526 </v>
   <v>       0.00300526 </v>
   <v>       0.00300526 </v>
   <v>       0.00300526 </v>
   <v>       0.00300526 </v>
   <v>       0.00300526 </v>
   <v>       0.00300526 </v>
   <v>       0.00300526 </v>
   <v>       0.00300526 </v>
   <v>       0.00300526 </v>
   <v>       0.00300526 </v>
   <v>       0.00300526 </v>
   <v>       0.00300526 </v>
   <v>       0.00300526 </v>
   <v>       0.00300526 </v>
   <v>       0.00300526 </v>
   <v>       0.00300526 </v>
   <v>       0.00300526 </v>
   <v>       0.00300526 </v>
   <v>       0.00300526 </v>
   <v>       0.00300526 </v>
   <v>       0.00300526 </v>
   <v>       0.00300526 </v>
   <v>       0.00300526 </v>
   <v>       0.00300526 </v>
   <v>       0.00300526 </v>
   <v>       0.00300526 </v>
   <v>       0.00300526 </v>
   <v>       0.00300526 </v>
   <v>       0.00300526 </v>
   <v>       0.00300526 </v>
   <v>       0.00300526 </v>
   <v>       0.00601052 </v>
   <v>       0.00601052 </v>
   <v>       0.00601052 </v>
   <v>       0.00601052 </v>
   <v>       0.00601052 </v>
   <v>       0.00601052 </v>
   <v>       0.00601052 </v>
   <v>       0.00601052 </v>
   <v>       0.00601052 </v>
   <v>       0.00601052 </v>
   <v>       0.00601052 </v>
   <v>       0.00601052 </v>
   <v>       0.00601052 </v>
   <v>       0.00601052 </v>
   <v>       0.00601052 </v>
   <v>       0.00601052 </v>
   <v>       0.00601052 </v>
   <v>       0.00601052 </v>
   <v>       0.00601052 </v>
   <v>       0.00601052 </v>
   <v>       0.00601052 </v>
   <v>       0.00601052 </v>
   <v>       0.00601052 </v>
   <v>       0.00601052 </v>
   <v>       0.00601052 </v>
   <v>       0.00601052 </v>
   <v>       0.00601052 </v>
   <v>       0.00601052 </v>
   <v>       0.00601052 </v>
   <v>       0.00601052 </v>
   <v>       0.00601052 </v>
   <v>       0.00601052 </v>
   <v>       0.00601052 </v>
   <v>       0.00601052 </v>
   <v>       0.00601052 </v>
   <v>       0.00601052 </v>
   <v>       0.00601052 </v>
   <v>       0.00601052 </v>
   <v>       0.00601052 </v>
   <v>       0.00601052 </v>
   <v>       0.00601052 </v>
   <v>       0.00601052 </v>
   <v>       0.00601052 </v>
   <v>       0.00601052 </v>
   <v>       0.00601052 </v>
   <v>       0.00601052 </v>
   <v>       0.00601052 </v>
   <v>       0.00601052 </v>
   <v>       0.00601052 </v>
   <v>       0.00601052 </v>
   <v>       0.00601052 </v>
   <v>       0.00601052 </v>
   <v>       0.00601052 </v>
   <v>       0.00601052 </v>
   <v>       0.00601052 </v>
   <v>       0.00601052 </v>
   <v>       0.00601052 </v>
   <v>       0.00601052 </v>
   <v>       0.00601052 </v>
   <v>       0.00601052 </v>
   <v>       0.00601052 </v>
   <v>       0.00601052 </v>
   <v>       0.00601052 </v>
   <v>       0.00601052 </v>
   <v>       0.00601052 </v>
   <v>       0.00601052 </v>
   <v>       0.00601052 </v>
   <v>       0.00601052 </v>
   <v>       0.00601052 </v>
   <v>       0.00601052 </v>
   <v>       0.00601052 </v>
   <v>       0.00601052 </v>
   <v>       0.00601052 </v>
   <v>       0.00601052 </v>
   <v>       0.00601052 </v>
   <v>       0.00601052 </v>
   <v>       0.00601052 </v>
   <v>       0.00601052 </v>
   <v>       0.00601052 </v>
   <v>       0.00601052 </v>
   <v>       0.00601052 </v>
   <v>       0.00601052 </v>
   <v>       0.00601052 </v>
   <v>       0.00601052 </v>
   <v>       0.00601052 </v>
   <v>       0.00601052 </v>
   <v>       0.00601052 </v>
   <v>       0.00601052 </v>
   <v>       0.00601052 </v>
   <v>       0.00601052 </v>
   <v>       0.00601052 </v>
   <v>       0.00601052 </v>
   <v>       0.00601052 </v>
   <v>       0.00601052 </v>
   <v>       0.00601052 </v>
   <v>       0.00601052 </v>
   <v>       0.00601052 </v>
   <v>       0.00601052 </v>
   <v>       0.00601052 </v>
   <v>       0.00601052 </v>
   <v>       0.00601052 </v>
   <v>       0.00601052 </v>
   <v>       0.00601052 </v>
   <v>       0.00601052 </v>
   <v>       0.00601052 </v>
   <v>       0.00601052 </v>
   <v>       0.00601052 </v>
   <v>       0.00601052 </v>
   <v>       0.00601052 </v>
   <v>       0.00601052 </v>
   <v>       0.00601052 </v>
   <v>       0.00601052 </v>
   <v>       0.00601052 </v>
   <v>       0.00601052 </v>
   <v>       0.00601052 </v>
   <v>       0.00601052 </v>
   <v>       0.00601052 </v>
   <v>       0.00601052 </v>
   <v>       0.00601052 </v>
   <v>       0.00601052 </v>
   <v>       0.00601052 </v>
   <v>       0.00601052 </v>
   <v>       0.00601052 </v>
   <v>       0.00601052 </v>
   <v>       0.00601052 </v>
  </varray>
 </kpoints>
 <parameters>
  <separator name="general" >
   <i type="string" name="SYSTEM">unknown system</i>
   <i type="logical" name="LCOMPAT"> F  </i>
  </separator>
  <separator name="electronic" >
   <i type="string" name="PREC">normal</i>
   <i name="ENMAX">    270.00000000</i>
   <i name="ENAUG">    586.98000000</i>
   <i name="EDIFF">      0.00000100</i>
   <i type="int" name="IALGO">    38</i>
   <i type="int" name="IWAVPR">     0</i>
   <i type="int" name="NBANDS">    30</i>
   <i type="int" name="NBANDSLOW">    -1</i>
   <i type="int" name="NBANDSHIGH">    -1</i>
   <i name="NELECT">     40.00000000</i>
   <i type="int" name="TURBO">     0</i>
   <i type="int" name="IRESTART">     0</i>
   <i type="int" name="NREBOOT">     0</i>
   <i type="int" name="NMIN">     0</i>
   <i name="EREF">      0.00000000</i>
   <separator name="electronic smearing" >
    <i type="int" name="ISMEAR">     1</i>
    <i name="SIGMA">      0.20000000</i>
    <i name="KSPACING">      0.50000000</i>
    <i type="logical" name="KGAMMA"> T  </i>
    <i type="logical" name="KBLOWUP"> T  </i>
   </separator>
   <separator name="electronic projectors" >
    <i type="logical" name="LREAL"> F  </i>
    <v name="ROPT">      0.00000000      0.00000000      0.00000000      0.00000000</v>
    <i type="int" name="LMAXPAW">  -100</i>
    <i type="int" name="LMAXMIX">     2</i>
    <i type="logical" name="NLSPLINE"> F  </i>
   </separator>
   <separator name="electronic startup" >
    <i type="int" name="ISTART">     0</i>
    <i type="int" name="ICHARG">     1</i>
    <i type="int" name="INIWAV">     1</i>
   </separator>
   <separator name="electronic spin" >
    <i type="int" name="ISPIN">     1</i>
    <i type="logical" name="LNONCOLLINEAR"> F  </i>
    <v name="MAGMOM">      1.00000000      1.00000000      1.00000000      1.00000000</v>
    <i name="NUPDOWN">     -1.00000000</i>
    <i type="logical" name="LSORBIT"> F  </i>
    <v name="SAXIS">      0.00000000      0.00000000      1.00000000</v>
    <i type="logical" name="LSPIRAL"> F  </i>
    <v name="QSPIRAL">      0.00000000      0.00000000      0.00000000</v>
    <i type="logical" name="LZEROZ"> F  </i>
   </separator>
   <separator name="electronic exchange-correlation" >
    <i type="logical" name="LASPH"> F  </i>
    <i type="logical" name="LMETAGGA"> F  </i>
   </separator>
   <separator name="electronic convergence" >
    <i type="int" name="NELM">    60</i>
    <i type="int" name="NELMDL">    -5</i>
    <i type="int" name="NELMIN">     2</i>
    <i name="ENINI">    270.00000000</i>
    <separator name="electronic convergence detail" >
     <i type="logical" name="LDIAG"> T  </i>
     <i type="logical" name="LSUBROT"> F  </i>
     <i name="WEIMIN">      0.00000000</i>
     <i name="EBREAK">      0.00000001</i>
     <i name="DEPER">      0.30000000</i>
     <i type="int" name="NRMM">     4</i>
     <i name="TIME">      0.40000000</i>
    </separator>
   </separator>
   <separator name="electronic mixer" >
    <i name="AMIX">      0.40000000</i>
    <i name="BMIX">      1.00000000</i>
    <i name="AMIN">      0.10000000</i>
    <i name="AMIX_MAG">      1.60000000</i>
    <i name="BMIX_MAG">      1.00000000</i>
    <separator name="electronic mixer details" >
     <i type="int" name="IMIX">     4</i>
     <i type="logical" name="MIXFIRST"> F  </i>
     <i type="int" name="MAXMIX">   -45</i>
     <i name="WC">    100.00000000</i>
     <i type="int" name="INIMIX">     1</i>
     <i type="int" name="MIXPRE">     1</i>
     <i type="int" name="MREMOVE">     5</i>
    </separator>
   </separator>
   <separator name="electronic dipolcorrection" >
    <i type="logical" name="LDIPOL"> F  </i>
    <i type="logical" name="LMONO"> F  </i>
    <i type="int" name="IDIPOL">     0</i>
    <i name="EPSILON">      1.00000000</i>
    <v name="DIPOL">   -100.00000000   -100.00000000   -100.00000000</v>
    <i name="EFIELD">      0.00000000</i>
   </separator>
  </separator>
  <separator name="grids" >
   <i type="int" name="NGX">    14</i>
   <i type="int" name="NGY">    14</i>
   <i type="int" name="NGZ">    14</i>
   <i type="int" name="NGXF">    28</i>
   <i type="int" name="NGYF">    28</i>
   <i type="int" name="NGZF">    28</i>
   <i type="logical" name="ADDGRID"> F  </i>
  </separator>
  <separator name="ionic" >
   <i type="int" name="NSW">     0</i>
   <i type="int" name="IBRION">    -1</i>
   <i type="int" name="MDALGO">     0</i>
   <i type="int" name="ISIF">     2</i>
   <i name="PSTRESS">      0.00000000</i>
   <i name="EDIFFG">      0.00001000</i>
   <i type="int" name="NFREE">     0</i>
   <i name="POTIM">      0.50000000</i>
   <i name="SMASS">     -3.00000000</i>
   <i name="SCALEE">      1.00000000</i>
  </separator>
  <separator name="ionic md" >
   <i name="TEBEG">      0.00010000</i>
   <i name="TEEND">      0.00010000</i>
   <i type="int" name="NBLOCK">     1</i>
   <i type="int" name="KBLOCK">     1</i>
   <i type="int" name="NPACO">   256</i>
   <i name="APACO">     16.00000000</i>
  </separator>
  <separator name="symmetry" >
   <i type="int" name="ISYM">     2</i>
   <i name="SYMPREC">      0.00001000</i>
  </separator>
  <separator name="dos" >
   <i type="int" name="LORBIT">     0</i>
   <v name="RWIGS">     -1.00000000     -1.00000000     -1.00000000     -1.00000000</v>
   <i type="int" name="NEDOS">   301</i>
   <i name="EMIN">     10.00000000</i>
   <i name="EMAX">    -10.00000000</i>
   <i name="EFERMI">      0.00000000</i>
  </separator>
  <separator name="writing" >
   <i type="int" name="NWRITE">     2</i>
   <i type="logical" name="LWAVE"> T  </i>
   <i type="logical" name="LDOWNSAMPLE"> F  </i>
   <i type="logical" name="LCHARG"> T  </i>
   <i type="logical" name="LPARD"> F  </i>
   <i type="logical" name="LVTOT"> F  </i>
   <i type="logical" name="LVHAR"> F  </i>
   <i type="logical" name="LELF"> F  </i>
   <i type="logical" name="LOPTICS"> F  </i>
   <v name="STM">      0.00000000      0.00000000      0.00000000      0.00000000      0.00000000      0.00000000      0.00000000</v>
  </separator>
  <separator name="performance" >
   <i type="int" name="NPAR">     1</i>
   <i type="int" name="NSIM">     4</i>
   <i type="int" name="NBLK">    -1</i>
   <i type="logical" name="LPLANE"> T  </i>
   <i type="logical" name="LSCALAPACK"> F  </i>
   <i type="logical" name="LSCAAWARE"> F  </i>
   <i type="logical" name="LSCALU"> F  </i>
   <i type="logical" name="LASYNC"> F  </i>
   <i type="logical" name="LORBITALREAL"> F  </i>
  </separator>
  <separator name="miscellaneous" >
   <i type="int" name="IDIOT">     3</i>
   <i type="int" name="PHON_NSTRUCT">    -1</i>
   <i type="logical" name="LMUSIC"> F  </i>
   <v name="POMASS">    106.42000000    192.22000000    195.08000000     63.54600000</v>
   <v name="DARWINR">      0.00000000      0.00000000      0.00000000      0.00000000</v>
   <v name="DARWINV">      1.00000000      1.00000000      1.00000000      1.00000000</v>
   <i type="logical" name="LCORR"> T  </i>
  </separator>
  <i type="logical" name="GGA_COMPAT"> T  </i>
  <i type="logical" name="LBERRY"> F  </i>
  <i type="int" name="ICORELEVEL">     0</i>
  <i type="logical" name="LDAU"> F  </i>
  <i type="int" name="I_CONSTRAINED_M">     0</i>
  <separator name="electronic exchange-correlation" >
   <i type="string" name="GGA">PE</i>
   <i type="int" name="VOSKOWN">     0</i>
   <i type="logical" name="LHFCALC"> F  </i>
   <i type="string" name="PRECFOCK"></i>
   <i type="logical" name="LSYMGRAD"> F  </i>
   <i type="logical" name="LHFONE"> F  </i>
   <i type="logical" name="LRHFCALC"> F  </i>
   <i type="logical" name="LTHOMAS"> F  </i>
   <i type="logical" name="LMODELHF"> F  </i>
   <i type="logical" name="LFOCKACE"> F  </i>
   <i name="ENCUT4O">     -1.00000000</i>
   <i type="int" name="EXXOEP">     0</i>
   <i type="int" name="FOURORBIT">     0</i>
   <i name="AEXX">      0.00000000</i>
   <i name="HFALPHA">      0.00000000</i>
   <i name="MCALPHA">      0.00000000</i>
   <i name="ALDAX">      1.00000000</i>
   <i name="AGGAX">      1.00000000</i>
   <i name="ALDAC">      1.00000000</i>
   <i name="AGGAC">      1.00000000</i>
   <i type="int" name="NKREDX">     1</i>
   <i type="int" name="NKREDY">     1</i>
   <i type="int" name="NKREDZ">     1</i>
   <i type="logical" name="SHIFTRED"> F  </i>
   <i type="logical" name="ODDONLY"> F  </i>
   <i type="logical" name="EVENONLY"> F  </i>
   <i type="int" name="LMAXFOCK">     0</i>
   <i type="int" name="NMAXFOCKAE">     0</i>
   <i type="logical" name="LFOCKAEDFT"> F  </i>
   <i name="HFSCREEN">      0.00000000</i>
   <i name="HFSCREENC">      0.00000000</i>
   <i type="int" name="NBANDSGWLOW">     0</i>
  </separator>
  <separator name="vdW DFT" >
   <i type="logical" name="LUSE_VDW"> F  </i>
   <i name="Zab_VDW">     -0.84910000</i>
   <i name="PARAM1">      0.12340000</i>
   <i name="PARAM2">      1.00000000</i>
   <i name="PARAM3">      0.00000000</i>
  </separator>
  <separator name="model GW" >
   <i type="int" name="MODEL_GW">     0</i>
   <i name="MODEL_EPS0">      6.84428538</i>
   <i name="MODEL_ALPHA">      1.00000000</i>
  </separator>
  <separator name="linear response parameters" >
   <i type="logical" name="LEPSILON"> F  </i>
   <i type="logical" name="LRPA"> F  </i>
   <i type="logical" name="LNABLA"> F  </i>
   <i type="logical" name="LVEL"> F  </i>
   <i type="int" name="KINTER">     0</i>
   <i name="CSHIFT">      0.10000000</i>
   <i name="OMEGAMAX">     -1.00000000</i>
   <i name="DEG_THRESHOLD">      0.00200000</i>
   <i name="RTIME">     -0.10000000</i>
   <i name="WPLASMAI">      0.00000000</i>
   <v name="DFIELD">      0.00000000      0.00000000      0.00000000</v>
   <v name="WPLASMA">      0.00000000      0.00000000      0.00000000      0.00000000      0.00000000      0.00000000      0.00000000      0.00000000      0.00000000</v>
  </separator>
  <separator name="orbital magnetization" >
   <i type="logical" name="NUCIND"> F  </i>
   <v name="MAGPOS">      0.00000000      0.00000000      0.00000000</v>
   <i type="logical" name="LNICSALL"> T  </i>
   <i type="logical" name="ORBITALMAG"> F  </i>
   <i type="logical" name="LMAGBLOCH"> F  </i>
   <i type="logical" name="LCHIMAG"> F  </i>
   <i type="logical" name="LGAUGE"> T  </i>
   <i type="int" name="MAGATOM">     0</i>
   <v name="MAGDIPOL">      0.00000000      0.00000000      0.00000000</v>
   <v name="AVECCONST">      0.00000000      0.00000000      0.00000000</v>
  </separator>
  <separator name="response functions" >
   <i type="logical" name="LFINITE_TEMPERATURE"> F  </i>
   <i type="logical" name="LADDER"> F  </i>
   <i type="logical" name="LRPAFORCE"> F  </i>
   <i type="logical" name="LFXC"> F  </i>
   <i type="logical" name="LHARTREE"> T  </i>
   <i type="int" name="IBSE">     0</i>
   <v type="int" name="KPOINT">    -1     0     0     0</v>
   <i type="logical" name="LTCTC"> F  </i>
   <i type="logical" name="LTCTE"> F  </i>
   <i type="logical" name="LTETE"> F  </i>
   <i type="logical" name="LTRIPLET"> F  </i>
   <i type="logical" name="LFXCEPS"> F  </i>
   <i type="logical" name="LFXHEG"> F  </i>
   <i type="int" name="NATURALO">     2</i>
   <i type="logical" name="LHOLEGF"> F  </i>
   <i type="logical" name="L2ORDER"> F  </i>
   <i type="logical" name="LDMP1"> F  </i>
   <i type="logical" name="LMP2LT"> F  </i>
   <i type="logical" name="LSMP2LT"> F  </i>
   <i type="logical" name="LGWLF"> F  </i>
   <i name="ENCUTGW">     -2.00000000</i>
   <i name="ENCUTGWSOFT">     -2.00000000</i>
   <i name="ENCUTLF">     -1.00000000</i>
   <i type="logical" name="LESF_SPLINES"> F  </i>
   <i type="int" name="LMAXMP2">    -1</i>
   <i name="SCISSOR">      0.00000000</i>
   <i type="int" name="NOMEGA">     0</i>
   <i type="int" name="NOMEGAR">     0</i>
   <i type="int" name="NBANDSGW">    -1</i>
   <i type="int" name="NBANDSO">    -1</i>
   <i type="int" name="NBANDSV">    -1</i>
   <i type="int" name="NELM">     1</i>
   <i type="int" name="NELMHF">     1</i>
   <i type="int" name="DIM">     3</i>
   <i type="int" name="IESPILON">     4</i>
   <i type="int" name="ANTIRES">     0</i>
   <i name="OMEGAMAX">    -30.00000000</i>
   <i name="OMEGAMIN">    -30.00000000</i>
   <i name="OMEGATL">   -200.00000000</i>
   <i type="int" name="OMEGAGRID">     0</i>
   <i name="CSHIFT">     -0.10000000</i>
   <i type="logical" name="LSELFENERGY"> F  </i>
   <i type="logical" name="LSPECTRAL"> F  </i>
   <i type="logical" name="LSPECTRALGW"> F  </i>
   <i type="logical" name="LSINGLES"> F  </i>
   <i type="logical" name="LFERMIGW"> F  </i>
   <i type="logical" name="ODDONLYGW"> F  </i>
   <i type="logical" name="EVENONLYGW"> F  </i>
   <i type="int" name="NKREDLFX">     1</i>
   <i type="int" name="NKREDLFY">     1</i>
   <i type="int" name="NKREDLFZ">     1</i>
   <i type="int" name="MAXMEM">  2800</i>
   <i type="int" name="TELESCOPE">     0</i>
   <i type="int" name="NTAUPAR">    -1</i>
   <i type="int" name="NOMEGAPAR">    -1</i>
   <i name="DAMP_NEWTON">      0.80000001</i>
   <i name="LAMBDA">      1.00000000</i>
  </separator>
  <separator name="External order field" >
   <i name="OFIELD_KAPPA">      0.00000000</i>
   <v name="OFIELD_K">      0.00000000      0.00000000      0.00000000</v>
   <i name="OFIELD_Q6_NEAR">      0.00000000</i>
   <i name="OFIELD_Q6_FAR">      0.00000000</i>
   <i name="OFIELD_A">      0.00000000</i>
  </separator>
 </parameters>
 <atominfo>
  <atoms>       4 </atoms>
  <types>       4 </types>
  <array name="atoms" >
   <dimension dim="1">ion</dimension>
   <field type="string">element</field>
   <field type="int">atomtype</field>
   <set>
    <rc><c>Pd</c><c>   1</c></rc>
    <rc><c>Ir</c><c>   2</c></rc>
    <rc><c>Pt</c><c>   3</c></rc>
    <rc><c>Cu</c><c>   4</c></rc>
   </set>
  </array>
  <array name="atomtypes" >
   <dimension dim="1">type</dimension>
   <field type="int">atomspertype</field>
   <field type="string">element</field>
   <field>mass</field>
   <field>valence</field>
   <field type="string">pseudopotential</field>
   <set>
    <rc><c>   1</c><c>Pd</c><c>    106.42000000</c><c>     10.00000000</c><c>  PAW_PBE Pd 04Jan2005                  </c></rc>
    <rc><c>   1</c><c>Ir</c><c>    192.22000000</c><c>      9.00000000</c><c>  PAW_PBE Ir 06Sep2000                  </c></rc>
    <rc><c>   1</c><c>Pt</c><c>    195.08000000</c><c>     10.00000000</c><c>  PAW_PBE Pt 04Feb2005                  </c></rc>
    <rc><c>   1</c><c>Cu</c><c>     63.54600000</c><c>     11.00000000</c><c>  PAW_PBE Cu 22Jun2005                  </c></rc>
   </set>
  </array>
 </atominfo>
 <structure name="initialpos" >
  <crystal>
   <varray name="basis" >
    <v>       3.57337793       0.00000000       0.00000000 </v>
    <v>       0.00000000       3.57337793       0.00000000 </v>
    <v>       0.00000000       0.00000000       3.57337793 </v>
   </varray>
   <i name="volume">     45.62856923 </i>
   <varray name="rec_basis" >
    <v>       0.27984725       0.00000000       0.00000000 </v>
    <v>       0.00000000       0.27984725       0.00000000 </v>
    <v>       0.00000000       0.00000000       0.27984725 </v>
   </varray>
  </crystal>
  <varray name="positions" >
   <v>       0.00000000       0.00000000       0.00000000 </v>
   <v>       0.50000000       0.50000000       0.00000000 </v>
   <v>       0.50000000       0.00000000       0.50000000 </v>
   <v>       0.00000000       0.50000000       0.50000000 </v>
  </varray>
 </structure>
 <calculation>
  <scstep>
   <time name="dav">    1.97    2.00</time>
   <time name="total">    1.99    2.02</time>
   <energy>
    <i name="alphaZ">    309.81468405 </i>
    <i name="ewald">  -3704.24744297 </i>
    <i name="hartreedc">   -550.59807229 </i>
    <i name="XCdc">      7.32905998 </i>
    <i name="pawpsdc">   3282.45812088 </i>
    <i name="pawaedc">  -3257.47686163 </i>
    <i name="eentropy">      0.00125473 </i>
    <i name="bandstr">    656.06840857 </i>
    <i name="atom">   3489.78669473 </i>
    <i name="e_fr_energy">    233.13584604 </i>
    <i name="e_wo_entrp">    233.13459131 </i>
    <i name="e_0_energy">    233.13542780 </i>
   </energy>
  </scstep>
  <scstep>
   <time name="dav">    1.88    1.88</time>
   <time name="total">    1.90    1.90</time>
   <energy>
    <i name="e_fr_energy">    -11.24544225 </i>
    <i name="e_wo_entrp">    -11.24926932 </i>
    <i name="e_0_energy">    -11.24671794 </i>
   </energy>
  </scstep>
  <scstep>
   <time name="dav">    2.00    2.00</time>
   <time name="total">    2.01    2.01</time>
   <energy>
    <i name="e_fr_energy">    -22.75739142 </i>
    <i name="e_wo_entrp">    -22.75670714 </i>
    <i name="e_0_energy">    -22.75716333 </i>
   </energy>
  </scstep>
  <scstep>
   <time name="dav">    2.24    2.24</time>
   <time name="total">    2.25    2.25</time>
   <energy>
    <i name="e_fr_energy">    -23.03214803 </i>
    <i name="e_wo_entrp">    -23.03146943 </i>
    <i name="e_0_energy">    -23.03192183 </i>
   </energy>
  </scstep>
  <scstep>
   <time name="dav">    2.45    2.45</time>
   <time name="total">    2.59    2.59</time>
   <energy>
    <i name="e_fr_energy">    -23.04437114 </i>
    <i name="e_wo_entrp">    -23.04369302 </i>
    <i name="e_0_energy">    -23.04414510 </i>
   </energy>
  </scstep>
  <scstep>
   <time name="dav">    2.00    2.00</time>
   <time name="total">    2.15    2.15</time>
   <energy>
    <i name="e_fr_energy">    -23.74699056 </i>
    <i name="e_wo_entrp">    -23.74573326 </i>
    <i name="e_0_energy">    -23.74657146 </i>
   </energy>
  </scstep>
  <scstep>
   <time name="dav">    2.23    2.23</time>
   <time name="total">    2.37    2.37</time>
   <energy>
    <i name="e_fr_energy">    -20.89106655 </i>
    <i name="e_wo_entrp">    -20.89053447 </i>
    <i name="e_0_energy">    -20.89088919 </i>
   </energy>
  </scstep>
  <scstep>
   <time name="dav">    2.58    2.58</time>
   <time name="total">    2.72    2.72</time>
   <energy>
    <i name="e_fr_energy">    -20.73955593 </i>
    <i name="e_wo_entrp">    -20.74241466 </i>
    <i name="e_0_energy">    -20.74050884 </i>
   </energy>
  </scstep>
  <scstep>
   <time name="dav">    2.51    2.51</time>
   <time name="total">    2.65    2.65</time>
   <energy>
    <i name="e_fr_energy">    -20.72157770 </i>
    <i name="e_wo_entrp">    -20.72486098 </i>
    <i name="e_0_energy">    -20.72267213 </i>
   </energy>
  </scstep>
  <scstep>
   <time name="dav">    2.55    2.55</time>
   <time name="total">    2.69    2.69</time>
   <energy>
    <i name="e_fr_energy">    -20.71567449 </i>
    <i name="e_wo_entrp">    -20.71924184 </i>
    <i name="e_0_energy">    -20.71686361 </i>
   </energy>
  </scstep>
  <scstep>
   <time name="dav">    2.49    2.49</time>
   <time name="total">    2.63    2.63</time>
   <energy>
    <i name="e_fr_energy">    -20.71511126 </i>
    <i name="e_wo_entrp">    -20.71840279 </i>
    <i name="e_0_energy">    -20.71620844 </i>
   </energy>
  </scstep>
  <scstep>
   <time name="dav">    2.37    2.38</time>
   <time name="total">    2.51    2.51</time>
   <energy>
    <i name="e_fr_energy">    -20.71504326 </i>
    <i name="e_wo_entrp">    -20.71840606 </i>
    <i name="e_0_energy">    -20.71616419 </i>
   </energy>
  </scstep>
  <scstep>
   <time name="dav">    1.99    1.99</time>
   <time name="total">    2.13    2.13</time>
   <energy>
    <i name="e_fr_energy">    -20.71501692 </i>
    <i name="e_wo_entrp">    -20.71837899 </i>
    <i name="e_0_energy">    -20.71613761 </i>
   </energy>
  </scstep>
  <scstep>
   <time name="dav">    2.23    2.23</time>
   <time name="total">    2.37    2.37</time>
   <energy>
    <i name="e_fr_energy">    -20.71500679 </i>
    <i name="e_wo_entrp">    -20.71834644 </i>
    <i name="e_0_energy">    -20.71612000 </i>
   </energy>
  </scstep>
  <scstep>
   <time name="dav">    1.79    1.79</time>
   <time name="total">    1.93    1.93</time>
   <energy>
    <i name="e_fr_energy">    -20.71500499 </i>
    <i name="e_wo_entrp">    -20.71835764 </i>
    <i name="e_0_energy">    -20.71612254 </i>
   </energy>
  </scstep>
  <scstep>
   <time name="dav">    1.30    1.30</time>
   <time name="total">    1.33    1.33</time>
   <energy>
    <i name="alphaZ">    309.81468405 </i>
    <i name="ewald">  -3704.24744297 </i>
    <i name="hartreedc">   -497.43058756 </i>
    <i name="XCdc">      5.51653262 </i>
    <i name="pawpsdc">   4773.07732977 </i>
    <i name="pawaedc">  -4766.25173274 </i>
    <i name="eentropy">      0.00334895 </i>
    <i name="bandstr">    369.01616848 </i>
    <i name="atom">   3489.78669473 </i>
    <i name="e_fr_energy">    -20.71500469 </i>
    <i name="e_wo_entrp">    -20.71835363 </i>
    <i name="e_0_energy">    -20.71612100 </i>
   </energy>
  </scstep>
  <structure>
   <crystal>
    <varray name="basis" >
     <v>       3.57337793       0.00000000       0.00000000 </v>
     <v>       0.00000000       3.57337793       0.00000000 </v>
     <v>       0.00000000       0.00000000       3.57337793 </v>
    </varray>
    <i name="volume">     45.62856923 </i>
    <varray name="rec_basis" >
     <v>       0.27984725       0.00000000       0.00000000 </v>
     <v>       0.00000000       0.27984725       0.00000000 </v>
     <v>       0.00000000       0.00000000       0.27984725 </v>
    </varray>
   </crystal>
   <varray name="positions" >
    <v>       0.00000000       0.00000000       0.00000000 </v>
    <v>       0.50000000       0.50000000       0.00000000 </v>
    <v>       0.50000000       0.00000000       0.50000000 </v>
    <v>       0.00000000       0.50000000       0.50000000 </v>
   </varray>
  </structure>
  <varray name="forces" >
   <v>      -0.00000000      -0.00000000       0.00000000 </v>
   <v>       0.00000000      -0.00000000       0.00000000 </v>
   <v>      -0.00000000      -0.00000000       0.00000000 </v>
   <v>       0.00000000       0.00000000      -0.00000000 </v>
  </varray>
  <varray name="stress" >
   <v>     890.18982520       0.00000000       0.00000000 </v>
   <v>       0.00000000     926.49345186       0.00000000 </v>
   <v>       0.00000000       0.00000000     899.31667251 </v>
  </varray>
  <energy>
   <i name="e_fr_energy">    -20.71500469 </i>
   <i name="e_wo_entrp">    -20.71835363 </i>
   <i name="e_0_energy">    -20.71612100 </i>
  </energy>
  <time name="totalsc">   38.17   38.19</time>
  <eigenvalues>
   <array>
    <dimension dim="1">band</dimension>
    <dimension dim="2">kpoint</dimension>
    <dimension dim="3">spin</dimension>
    <field>eigene</field>
    <field>occ</field>
    <set>
     <set comment="spin 1">
      <set comment="kpoint 1">
       <r>    2.0391    1.0000 </r>
       <r>    4.1261    1.0000 </r>
       <r>    5.4446    1.0000 </r>
       <r>    5.5035    1.0000 </r>
       <r>    5.5580    1.0000 </r>
       <r>    5.7109    1.0000 </r>
       <r>    5.7492    1.0000 </r>
       <r>    9.2204    1.0000 </r>
       <r>    9.2368    1.0000 </r>
       <r>    9.4059    1.0000 </r>
       <r>   11.0312    1.0000 </r>
       <r>   11.2246    1.0000 </r>
       <r>   12.2122    1.0000 </r>
       <r>   12.4629    1.0000 </r>
       <r>   12.6598    1.0000 </r>
       <r>   13.6192    0.1911 </r>
       <r>   13.8842   -0.0176 </r>
       <r>   14.1152   -0.0002 </r>
       <r>   14.4834   -0.0000 </r>
       <r>   15.1763   -0.0000 </r>
       <r>   15.5016   -0.0000 </r>
       <r>   15.5038   -0.0000 </r>
       <r>   15.5444   -0.0000 </r>
       <r>   16.0322   -0.0000 </r>
       <r>   24.9891    0.0000 </r>
       <r>   25.1668    0.0000 </r>
       <r>   25.3131    0.0000 </r>
       <r>   25.6769    0.0000 </r>
       <r>   25.9700    0.0000 </r>
       <r>   26.9907    0.0000 </r>
      </set>
      <set comment="kpoint 2">
       <r>    2.1629    1.0000 </r>
       <r>    4.2180    1.0000 </r>
       <r>    5.5111    1.0000 </r>
       <r>    5.5507    1.0000 </r>
       <r>    5.6426    1.0000 </r>
       <r>    5.7925    1.0000 </r>
       <r>    5.8421    1.0000 </r>
       <r>    9.1604    1.0000 </r>
       <r>    9.2688    1.0000 </r>
       <r>    9.4559    1.0000 </r>
       <r>   11.0378    1.0000 </r>
       <r>   11.1612    1.0000 </r>
       <r>   12.2078    1.0000 </r>
       <r>   12.3005    1.0000 </r>
       <r>   12.3265    1.0000 </r>
       <r>   12.9608    1.0002 </r>
       <r>   13.8240   -0.0309 </r>
       <r>   13.8459   -0.0262 </r>
       <r>   14.3586   -0.0000 </r>
       <r>   14.4783   -0.0000 </r>
       <r>   15.0518   -0.0000 </r>
       <r>   16.0318   -0.0000 </r>
       <r>   16.3868   -0.0000 </r>
       <r>   16.4686   -0.0000 </r>
       <r>   24.7114    0.0000 </r>
       <r>   24.9726    0.0000 </r>
       <r>   25.7718    0.0000 </r>
       <r>   25.8194    0.0000 </r>
       <r>   26.0745    0.0000 </r>
       <r>   27.5416    0.0000 </r>
      </set>
      <set comment="kpoint 3">
       <r>    2.1768    1.0000 </r>
       <r>    4.2254    1.0000 </r>
       <r>    5.4986    1.0000 </r>
       <r>    5.5955    1.0000 </r>
       <r>    5.6035    1.0000 </r>
       <r>    5.7930    1.0000 </r>
       <r>    5.8458    1.0000 </r>
       <r>    9.2742    1.0000 </r>
       <r>    9.2885    1.0000 </r>
       <r>    9.3382    1.0000 </r>
       <r>   10.9784    1.0000 </r>
       <r>   11.2394    1.0000 </r>
       <r>   11.9831    1.0000 </r>
       <r>   12.3589    1.0000 </r>
       <r>   12.4314    1.0000 </r>
       <r>   13.6023    0.2488 </r>
       <r>   13.6477    0.1085 </r>
       <r>   14.1096   -0.0002 </r>
       <r>   14.2989   -0.0000 </r>
       <r>   14.3160   -0.0000 </r>
       <r>   14.7222   -0.0000 </r>
       <r>   15.0909   -0.0000 </r>
       <r>   16.5816   -0.0000 </r>
       <r>   16.9367   -0.0000 </r>
       <r>   24.4747    0.0000 </r>
       <r>   25.3611    0.0000 </r>
       <r>   25.4958    0.0000 </r>
       <r>   25.8213    0.0000 </r>
       <r>   26.4298    0.0000 </r>
       <r>   27.2400    0.0000 </r>
      </set>
      <set comment="kpoint 4">
       <r>    2.1780    1.0000 </r>
       <r>    4.2282    1.0000 </r>
       <r>    5.5471    1.0000 </r>
       <r>    5.5969    1.0000 </r>
       <r>    5.6445    1.0000 </r>
       <r>    5.7638    1.0000 </r>
       <r>    5.7903    1.0000 </r>
       <r>    9.1408    1.0000 </r>
       <r>    9.2833    1.0000 </r>
       <r>    9.4560    1.0000 </r>
       <r>   10.9993    1.0000 </r>
       <r>   11.2100    1.0000 </r>
       <r>   11.9657    1.0000 </r>
       <r>   12.3689    1.0000 </r>
       <r>   12.6507    1.0000 </r>
       <r>   13.1079    1.0046 </r>
       <r>   13.6109    0.2184 </r>
       <r>   13.7773   -0.0352 </r>
       <r>   14.2821   -0.0000 </r>
       <r>   14.7577   -0.0000 </r>
       <r>   15.1173   -0.0000 </r>
       <r>   15.1707   -0.0000 </r>
       <r>   16.4331   -0.0000 </r>
       <r>   16.8840   -0.0000 </r>
       <r>   24.2277    0.0000 </r>
       <r>   25.4156    0.0000 </r>
       <r>   25.5063    0.0000 </r>
       <r>   26.0955    0.0000 </r>
       <r>   26.4014    0.0000 </r>
       <r>   27.2319    0.0000 </r>
      </set>
      <set comment="kpoint 5">
       <r>    2.5208    1.0000 </r>
       <r>    4.4823    1.0000 </r>
       <r>    5.6781    1.0000 </r>
       <r>    5.6873    1.0000 </r>
       <r>    5.8948    1.0000 </r>
       <r>    6.0348    1.0000 </r>
       <r>    6.1261    1.0000 </r>
       <r>    8.9456    1.0000 </r>
       <r>    9.4070    1.0000 </r>
       <r>    9.6049    1.0000 </r>
       <r>   10.9280    1.0000 </r>
       <r>   11.1061    1.0000 </r>
       <r>   11.4864    1.0000 </r>
       <r>   11.7911    1.0000 </r>
       <r>   11.9407    1.0000 </r>
       <r>   12.1981    1.0000 </r>
       <r>   13.4013    0.9569 </r>
       <r>   13.4858    0.7187 </r>
       <r>   13.7646   -0.0337 </r>
       <r>   13.9034   -0.0137 </r>
       <r>   14.2551   -0.0000 </r>
       <r>   16.0308   -0.0000 </r>
       <r>   17.7808   -0.0000 </r>
       <r>   17.7943   -0.0000 </r>
       <r>   23.9021    0.0000 </r>
       <r>   24.9083    0.0000 </r>
       <r>   26.0034    0.0000 </r>
       <r>   26.1051    0.0000 </r>
       <r>   26.9766    0.0000 </r>
       <r>   27.3309    0.0000 </r>
      </set>
      <set comment="kpoint 6">
       <r>    2.5791    1.0000 </r>
       <r>    4.5094    1.0000 </r>
       <r>    5.6270    1.0000 </r>
       <r>    5.7347    1.0000 </r>
       <r>    5.8660    1.0000 </r>
       <r>    6.0352    1.0000 </r>
       <r>    6.1445    1.0000 </r>
       <r>    9.1481    1.0000 </r>
       <r>    9.4363    1.0000 </r>
       <r>    9.4456    1.0000 </r>
       <r>   10.8203    1.0000 </r>
       <r>   11.2856    1.0000 </r>
       <r>   11.3874    1.0000 </r>
       <r>   11.6054    1.0000 </r>
       <r>   12.3255    1.0000 </r>
       <r>   12.9616    1.0002 </r>
       <r>   13.4473    0.8482 </r>
       <r>   13.5580    0.4227 </r>
       <r>   13.7470   -0.0285 </r>
       <r>   13.8441   -0.0267 </r>
       <r>   14.0974   -0.0003 </r>
       <r>   14.1448   -0.0001 </r>
       <r>   17.9493   -0.0000 </r>
       <r>   18.1424   -0.0000 </r>
       <r>   23.6827    0.0000 </r>
       <r>   25.6287    0.0000 </r>
       <r>   25.8137    0.0000 </r>
       <r>   25.9298    0.0000 </r>
       <r>   26.7927    0.0000 </r>
       <r>   27.5153    0.0000 </r>
      </set>
      <set comment="kpoint 7">
       <r>    2.5847    1.0000 </r>
       <r>    4.5219    1.0000 </r>
       <r>    5.8289    1.0000 </r>
       <r>    5.8729    1.0000 </r>
       <r>    5.9023    1.0000 </r>
       <r>    5.9106    1.0000 </r>
       <r>    5.9196    1.0000 </r>
       <r>    8.9139    1.0000 </r>
       <r>    9.4182    1.0000 </r>
       <r>    9.6065    1.0000 </r>
       <r>   10.8513    1.0000 </r>
       <r>   11.2218    1.0000 </r>
       <r>   11.3429    1.0000 </r>
       <r>   11.8998    1.0000 </r>
       <r>   12.0595    1.0000 </r>
       <r>   12.6282    1.0000 </r>
       <r>   13.1560    1.0103 </r>
       <r>   13.5132    0.6106 </r>
       <r>   13.5635    0.3996 </r>
       <r>   13.8495   -0.0254 </r>
       <r>   14.2608   -0.0000 </r>
       <r>   15.1567   -0.0000 </r>
       <r>   17.8932   -0.0000 </r>
       <r>   18.0727   -0.0000 </r>
       <r>   23.2998    0.0000 </r>
       <r>   25.8089    0.0000 </r>
       <r>   25.8759    0.0000 </r>
       <r>   26.1065    0.0000 </r>
       <r>   27.0235    0.0000 </r>
       <r>   27.3332    0.0000 </r>
      </set>
      <set comment="kpoint 8">
       <r>    3.0657    1.0000 </r>
       <r>    4.8806    1.0000 </r>
       <r>    5.8844    1.0000 </r>
       <r>    5.8955    1.0000 </r>
       <r>    6.3070    1.0000 </r>
       <r>    6.4274    1.0000 </r>
       <r>    6.5746    1.0000 </r>
       <r>    8.6375    1.0000 </r>
       <r>    9.5811    1.0000 </r>
       <r>    9.8442    1.0000 </r>
       <r>   10.6018    1.0000 </r>
       <r>   10.6261    1.0000 </r>
       <r>   10.6273    1.0000 </r>
       <r>   11.1522    1.0000 </r>
       <r>   11.3964    1.0000 </r>
       <r>   12.1856    1.0000 </r>
       <r>   12.3301    1.0000 </r>
       <r>   12.8341    1.0000 </r>
       <r>   13.0523    1.0015 </r>
       <r>   13.3532    1.0166 </r>
       <r>   13.9619   -0.0055 </r>
       <r>   16.0298   -0.0000 </r>
       <r>   19.2023    0.0000 </r>
       <r>   19.2997    0.0000 </r>
       <r>   23.2261    0.0000 </r>
       <r>   24.8196    0.0000 </r>
       <r>   25.6695    0.0000 </r>
       <r>   25.7500    0.0000 </r>
       <r>   26.3082    0.0000 </r>
       <r>   28.0819    0.0000 </r>
      </set>
      <set comment="kpoint 9">
       <r>    3.2101    1.0000 </r>
       <r>    4.9296    1.0000 </r>
       <r>    5.7663    1.0000 </r>
       <r>    5.9310    1.0000 </r>
       <r>    6.3010    1.0000 </r>
       <r>    6.4253    1.0000 </r>
       <r>    6.6245    1.0000 </r>
       <r>    8.8717    1.0000 </r>
       <r>    9.7026    1.0000 </r>
       <r>    9.7072    1.0000 </r>
       <r>   10.5862    1.0000 </r>
       <r>   10.5948    1.0000 </r>
       <r>   10.6824    1.0000 </r>
       <r>   11.3369    1.0000 </r>
       <r>   11.8068    1.0000 </r>
       <r>   12.2698    1.0000 </r>
       <r>   12.6602    1.0000 </r>
       <r>   12.8136    1.0000 </r>
       <r>   13.0681    1.0021 </r>
       <r>   13.2469    1.0292 </r>
       <r>   13.5036    0.6498 </r>
       <r>   14.0854   -0.0004 </r>
       <r>   19.4035    0.0000 </r>
       <r>   19.4375    0.0000 </r>
       <r>   23.0521    0.0000 </r>
       <r>   25.5093    0.0000 </r>
       <r>   25.5111    0.0000 </r>
       <r>   25.6844    0.0000 </r>
       <r>   27.0180    0.0000 </r>
       <r>   27.1919    0.0000 </r>
      </set>
      <set comment="kpoint 10">
       <r>    3.2251    1.0000 </r>
       <r>    4.9599    1.0000 </r>
       <r>    6.0076    1.0000 </r>
       <r>    6.1645    1.0000 </r>
       <r>    6.3002    1.0000 </r>
       <r>    6.3218    1.0000 </r>
       <r>    6.3264    1.0000 </r>
       <r>    8.5746    1.0000 </r>
       <r>    9.5910    1.0000 </r>
       <r>    9.8477    1.0000 </r>
       <r>   10.5810    1.0000 </r>
       <r>   10.5842    1.0000 </r>
       <r>   10.7035    1.0000 </r>
       <r>   11.2762    1.0000 </r>
       <r>   11.5279    1.0000 </r>
       <r>   12.3223    1.0000 </r>
       <r>   12.5887    1.0000 </r>
       <r>   12.6019    1.0000 </r>
       <r>   12.9695    1.0002 </r>
       <r>   13.1739    1.0133 </r>
       <r>   13.5822    0.3244 </r>
       <r>   15.1409   -0.0000 </r>
       <r>   19.3677    0.0000 </r>
       <r>   19.4393    0.0000 </r>
       <r>   22.5904    0.0000 </r>
       <r>   25.5754    0.0000 </r>
       <r>   25.8265    0.0000 </r>
       <r>   25.8876    0.0000 </r>
       <r>   26.7446    0.0000 </r>
       <r>   27.4846    0.0000 </r>
      </set>
      <set comment="kpoint 11">
       <r>    3.6887    1.0000 </r>
       <r>    5.3328    1.0000 </r>
       <r>    6.0507    1.0000 </r>
       <r>    6.1337    1.0000 </r>
       <r>    6.8654    1.0000 </r>
       <r>    6.9504    1.0000 </r>
       <r>    7.0847    1.0000 </r>
       <r>    8.3022    1.0000 </r>
       <r>    9.3374    1.0000 </r>
       <r>    9.5504    1.0000 </r>
       <r>   10.1490    1.0000 </r>
       <r>   10.2295    1.0000 </r>
       <r>   10.2681    1.0000 </r>
       <r>   10.8314    1.0000 </r>
       <r>   11.1190    1.0000 </r>
       <r>   11.2424    1.0000 </r>
       <r>   12.1745    1.0000 </r>
       <r>   12.2559    1.0000 </r>
       <r>   12.3824    1.0000 </r>
       <r>   12.7701    1.0000 </r>
       <r>   13.8405   -0.0275 </r>
       <r>   16.0288   -0.0000 </r>
       <r>   20.6523    0.0000 </r>
       <r>   20.8016    0.0000 </r>
       <r>   22.7682    0.0000 </r>
       <r>   24.7188    0.0000 </r>
       <r>   24.8077    0.0000 </r>
       <r>   24.9928    0.0000 </r>
       <r>   25.6012    0.0000 </r>
       <r>   28.6455    0.0000 </r>
      </set>
      <set comment="kpoint 12">
       <r>    3.9908    1.0000 </r>
       <r>    5.3730    1.0000 </r>
       <r>    5.8272    1.0000 </r>
       <r>    6.1490    1.0000 </r>
       <r>    6.8603    1.0000 </r>
       <r>    6.9272    1.0000 </r>
       <r>    7.1932    1.0000 </r>
       <r>    8.5740    1.0000 </r>
       <r>    9.7478    1.0000 </r>
       <r>    9.7589    1.0000 </r>
       <r>   10.0768    1.0000 </r>
       <r>   10.0931    1.0000 </r>
       <r>   10.2988    1.0000 </r>
       <r>   10.7777    1.0000 </r>
       <r>   11.2915    1.0000 </r>
       <r>   11.9175    1.0000 </r>
       <r>   11.9657    1.0000 </r>
       <r>   12.0268    1.0000 </r>
       <r>   12.2300    1.0000 </r>
       <r>   12.6578    1.0000 </r>
       <r>   13.4545    0.8266 </r>
       <r>   14.0770   -0.0005 </r>
       <r>   20.7792    0.0000 </r>
       <r>   20.8914    0.0000 </r>
       <r>   22.6374    0.0000 </r>
       <r>   24.6227    0.0000 </r>
       <r>   24.9093    0.0000 </r>
       <r>   25.2967    0.0000 </r>
       <r>   26.8827    0.0000 </r>
       <r>   27.2296    0.0000 </r>
      </set>
      <set comment="kpoint 13">
       <r>    4.0274    1.0000 </r>
       <r>    5.4038    1.0000 </r>
       <r>    6.0808    1.0000 </r>
       <r>    6.4677    1.0000 </r>
       <r>    6.7905    1.0000 </r>
       <r>    6.9049    1.0000 </r>
       <r>    6.9222    1.0000 </r>
       <r>    8.1799    1.0000 </r>
       <r>    9.3485    1.0000 </r>
       <r>    9.5771    1.0000 </r>
       <r>   10.1918    1.0000 </r>
       <r>   10.2415    1.0000 </r>
       <r>   10.2566    1.0000 </r>
       <r>   10.8712    1.0000 </r>
       <r>   11.1565    1.0000 </r>
       <r>   11.3905    1.0000 </r>
       <r>   11.9933    1.0000 </r>
       <r>   12.1736    1.0000 </r>
       <r>   12.5784    1.0000 </r>
       <r>   12.5886    1.0000 </r>
       <r>   13.2686    1.0333 </r>
       <r>   15.1266   -0.0000 </r>
       <r>   20.7181    0.0000 </r>
       <r>   20.9992    0.0000 </r>
       <r>   22.1310    0.0000 </r>
       <r>   24.6281    0.0000 </r>
       <r>   25.0880    0.0000 </r>
       <r>   25.8492    0.0000 </r>
       <r>   26.2906    0.0000 </r>
       <r>   27.7449    0.0000 </r>
      </set>
      <set comment="kpoint 14">
       <r>    4.1585    1.0000 </r>
       <r>    5.6910    1.0000 </r>
       <r>    6.0935    1.0000 </r>
       <r>    6.3165    1.0000 </r>
       <r>    7.4619    1.0000 </r>
       <r>    7.5053    1.0000 </r>
       <r>    7.5257    1.0000 </r>
       <r>    8.0644    1.0000 </r>
       <r>    8.6458    1.0000 </r>
       <r>    8.6515    1.0000 </r>
       <r>   10.0124    1.0000 </r>
       <r>   10.2260    1.0000 </r>
       <r>   10.4195    1.0000 </r>
       <r>   10.4238    1.0000 </r>
       <r>   10.6382    1.0000 </r>
       <r>   11.2577    1.0000 </r>
       <r>   11.8263    1.0000 </r>
       <r>   11.8991    1.0000 </r>
       <r>   12.1697    1.0000 </r>
       <r>   12.3409    1.0000 </r>
       <r>   13.7862   -0.0354 </r>
       <r>   16.0283   -0.0000 </r>
       <r>   21.9922    0.0000 </r>
       <r>   22.1445    0.0000 </r>
       <r>   22.5409    0.0000 </r>
       <r>   23.7426    0.0000 </r>
       <r>   23.9937    0.0000 </r>
       <r>   24.6360    0.0000 </r>
       <r>   25.2710    0.0000 </r>
       <r>   28.8663    0.0000 </r>
      </set>
      <set comment="kpoint 15">
       <r>    4.7346    1.0000 </r>
       <r>    5.5181    1.0000 </r>
       <r>    5.8367    1.0000 </r>
       <r>    6.3075    1.0000 </r>
       <r>    7.4090    1.0000 </r>
       <r>    7.4135    1.0000 </r>
       <r>    7.6409    1.0000 </r>
       <r>    8.3704    1.0000 </r>
       <r>    9.0406    1.0000 </r>
       <r>    9.0681    1.0000 </r>
       <r>    9.9052    1.0000 </r>
       <r>   10.2797    1.0000 </r>
       <r>   10.5290    1.0000 </r>
       <r>   10.5377    1.0000 </r>
       <r>   11.0731    1.0000 </r>
       <r>   11.2553    1.0000 </r>
       <r>   11.2762    1.0000 </r>
       <r>   11.6359    1.0000 </r>
       <r>   12.0243    1.0000 </r>
       <r>   12.3531    1.0000 </r>
       <r>   13.4273    0.9021 </r>
       <r>   14.0734   -0.0005 </r>
       <r>   22.1030    0.0000 </r>
       <r>   22.3561    0.0000 </r>
       <r>   22.4356    0.0000 </r>
       <r>   23.4910    0.0000 </r>
       <r>   23.7434    0.0000 </r>
       <r>   25.1678    0.0000 </r>
       <r>   26.7705    0.0000 </r>
       <r>   27.2825    0.0000 </r>
      </set>
      <set comment="kpoint 16">
       <r>    4.8488    1.0000 </r>
       <r>    5.4279    1.0000 </r>
       <r>    6.1722    1.0000 </r>
       <r>    6.7403    1.0000 </r>
       <r>    7.1452    1.0000 </r>
       <r>    7.5956    1.0000 </r>
       <r>    7.6199    1.0000 </r>
       <r>    7.8552    1.0000 </r>
       <r>    8.5803    1.0000 </r>
       <r>    8.6243    1.0000 </r>
       <r>    9.9496    1.0000 </r>
       <r>   10.2106    1.0000 </r>
       <r>   10.5192    1.0000 </r>
       <r>   10.5227    1.0000 </r>
       <r>   10.7198    1.0000 </r>
       <r>   11.4517    1.0000 </r>
       <r>   11.5067    1.0000 </r>
       <r>   11.5714    1.0000 </r>
       <r>   12.0857    1.0000 </r>
       <r>   12.5664    1.0000 </r>
       <r>   13.1648    1.0117 </r>
       <r>   15.1192   -0.0000 </r>
       <r>   21.9090    0.0000 </r>
       <r>   22.0547    0.0000 </r>
       <r>   22.5150    0.0000 </r>
       <r>   23.4663    0.0000 </r>
       <r>   23.9195    0.0000 </r>
       <r>   25.8188    0.0000 </r>
       <r>   26.0514    0.0000 </r>
       <r>   27.8551    0.0000 </r>
      </set>
      <set comment="kpoint 17">
       <r>    2.2989    1.0000 </r>
       <r>    4.3162    1.0000 </r>
       <r>    5.5711    1.0000 </r>
       <r>    5.6306    1.0000 </r>
       <r>    5.6994    1.0000 </r>
       <r>    5.8417    1.0000 </r>
       <r>    5.9631    1.0000 </r>
       <r>    9.1708    1.0000 </r>
       <r>    9.3172    1.0000 </r>
       <r>    9.4331    1.0000 </r>
       <r>   10.9834    1.0000 </r>
       <r>   11.1778    1.0000 </r>
       <r>   11.9211    1.0000 </r>
       <r>   12.0253    1.0000 </r>
       <r>   12.3131    1.0000 </r>
       <r>   13.0416    1.0012 </r>
       <r>   13.5619    0.4062 </r>
       <r>   13.6907    0.0222 </r>
       <r>   13.8180   -0.0321 </r>
       <r>   14.2119   -0.0000 </r>
       <r>   15.1659   -0.0000 </r>
       <r>   15.6488   -0.0000 </r>
       <r>   16.4308   -0.0000 </r>
       <r>   17.3234   -0.0000 </r>
       <r>   24.4251    0.0000 </r>
       <r>   25.1183    0.0000 </r>
       <r>   25.7951    0.0000 </r>
       <r>   25.9993    0.0000 </r>
       <r>   26.4194    0.0000 </r>
       <r>   27.6354    0.0000 </r>
      </set>
      <set comment="kpoint 18">
       <r>    2.3117    1.0000 </r>
       <r>    4.3265    1.0000 </r>
       <r>    5.5794    1.0000 </r>
       <r>    5.6824    1.0000 </r>
       <r>    5.6995    1.0000 </r>
       <r>    5.8526    1.0000 </r>
       <r>    5.8968    1.0000 </r>
       <r>    9.1544    1.0000 </r>
       <r>    9.3302    1.0000 </r>
       <r>    9.4315    1.0000 </r>
       <r>   10.9570    1.0000 </r>
       <r>   11.2158    1.0000 </r>
       <r>   11.7476    1.0000 </r>
       <r>   12.2389    1.0000 </r>
       <r>   12.3668    1.0000 </r>
       <r>   13.2268    1.0247 </r>
       <r>   13.5467    0.4703 </r>
       <r>   13.5815    0.3270 </r>
       <r>   13.8333   -0.0290 </r>
       <r>   14.1499   -0.0001 </r>
       <r>   14.7006   -0.0000 </r>
       <r>   15.5900   -0.0000 </r>
       <r>   16.9694   -0.0000 </r>
       <r>   17.1118   -0.0000 </r>
       <r>   24.4162    0.0000 </r>
       <r>   24.7957    0.0000 </r>
       <r>   25.7084    0.0000 </r>
       <r>   26.1262    0.0000 </r>
       <r>   27.1866    0.0000 </r>
       <r>   27.3322    0.0000 </r>
      </set>
      <set comment="kpoint 19">
       <r>    2.2999    1.0000 </r>
       <r>    4.3191    1.0000 </r>
       <r>    5.5934    1.0000 </r>
       <r>    5.6382    1.0000 </r>
       <r>    5.7421    1.0000 </r>
       <r>    5.8507    1.0000 </r>
       <r>    5.8889    1.0000 </r>
       <r>    9.0919    1.0000 </r>
       <r>    9.3076    1.0000 </r>
       <r>    9.5017    1.0000 </r>
       <r>   11.0135    1.0000 </r>
       <r>   11.1407    1.0000 </r>
       <r>   11.8555    1.0000 </r>
       <r>   12.2428    1.0000 </r>
       <r>   12.4357    1.0000 </r>
       <r>   12.7478    1.0000 </r>
       <r>   12.9218    1.0001 </r>
       <r>   13.7427   -0.0266 </r>
       <r>   14.2860   -0.0000 </r>
       <r>   14.3613   -0.0000 </r>
       <r>   15.3744   -0.0000 </r>
       <r>   15.8277   -0.0000 </r>
       <r>   16.0823   -0.0000 </r>
       <r>   17.3096   -0.0000 </r>
       <r>   24.2450    0.0000 </r>
       <r>   25.1375    0.0000 </r>
       <r>   25.7781    0.0000 </r>
       <r>   26.2506    0.0000 </r>
       <r>   26.4382    0.0000 </r>
       <r>   27.6115    0.0000 </r>
      </set>
      <set comment="kpoint 20">
       <r>    2.6524    1.0000 </r>
       <r>    4.5775    1.0000 </r>
       <r>    5.7528    1.0000 </r>
       <r>    5.7618    1.0000 </r>
       <r>    5.9520    1.0000 </r>
       <r>    6.0445    1.0000 </r>
       <r>    6.2599    1.0000 </r>
       <r>    8.9379    1.0000 </r>
       <r>    9.4318    1.0000 </r>
       <r>    9.5982    1.0000 </r>
       <r>   10.9103    1.0000 </r>
       <r>   11.0585    1.0000 </r>
       <r>   11.2947    1.0000 </r>
       <r>   11.4884    1.0000 </r>
       <r>   11.9470    1.0000 </r>
       <r>   12.3532    1.0000 </r>
       <r>   12.6986    1.0000 </r>
       <r>   13.3836    0.9848 </r>
       <r>   13.5138    0.6081 </r>
       <r>   13.9045   -0.0135 </r>
       <r>   15.0595   -0.0000 </r>
       <r>   15.4660   -0.0000 </r>
       <r>   17.3507   -0.0000 </r>
       <r>   18.3690   -0.0000 </r>
       <r>   23.8068    0.0000 </r>
       <r>   24.9699    0.0000 </r>
       <r>   25.8229    0.0000 </r>
       <r>   26.2748    0.0000 </r>
       <r>   26.9863    0.0000 </r>
       <r>   27.5792    0.0000 </r>
      </set>
      <set comment="kpoint 21">
       <r>    2.7029    1.0000 </r>
       <r>    4.6077    1.0000 </r>
       <r>    5.7010    1.0000 </r>
       <r>    5.8021    1.0000 </r>
       <r>    5.9446    1.0000 </r>
       <r>    6.0998    1.0000 </r>
       <r>    6.2210    1.0000 </r>
       <r>    9.0671    1.0000 </r>
       <r>    9.4643    1.0000 </r>
       <r>    9.4867    1.0000 </r>
       <r>   10.8149    1.0000 </r>
       <r>   11.1171    1.0000 </r>
       <r>   11.3483    1.0000 </r>
       <r>   11.4642    1.0000 </r>
       <r>   12.2770    1.0000 </r>
       <r>   12.5825    1.0000 </r>
       <r>   13.1046    1.0044 </r>
       <r>   13.1289    1.0067 </r>
       <r>   13.4870    0.7143 </r>
       <r>   13.7161   -0.0082 </r>
       <r>   14.1718   -0.0000 </r>
       <r>   15.0120   -0.0000 </r>
       <r>   17.8251   -0.0000 </r>
       <r>   18.3231   -0.0000 </r>
       <r>   23.7008    0.0000 </r>
       <r>   24.9097    0.0000 </r>
       <r>   26.0780    0.0000 </r>
       <r>   26.0975    0.0000 </r>
       <r>   27.2149    0.0000 </r>
       <r>   27.5938    0.0000 </r>
      </set>
      <set comment="kpoint 22">
       <r>    2.7009    1.0000 </r>
       <r>    4.6102    1.0000 </r>
       <r>    5.8277    1.0000 </r>
       <r>    5.8787    1.0000 </r>
       <r>    5.9793    1.0000 </r>
       <r>    6.0368    1.0000 </r>
       <r>    6.0699    1.0000 </r>
       <r>    8.8689    1.0000 </r>
       <r>    9.4376    1.0000 </r>
       <r>    9.6296    1.0000 </r>
       <r>   10.8622    1.0000 </r>
       <r>   11.1395    1.0000 </r>
       <r>   11.2377    1.0000 </r>
       <r>   11.6860    1.0000 </r>
       <r>   11.9813    1.0000 </r>
       <r>   12.1999    1.0000 </r>
       <r>   12.4840    1.0000 </r>
       <r>   13.4927    0.6926 </r>
       <r>   13.8143   -0.0327 </r>
       <r>   13.9399   -0.0080 </r>
       <r>   14.8453   -0.0000 </r>
       <r>   14.9694   -0.0000 </r>
       <r>   17.4023   -0.0000 </r>
       <r>   18.4537   -0.0000 </r>
       <r>   23.3481    0.0000 </r>
       <r>   25.4428    0.0000 </r>
       <r>   26.2480    0.0000 </r>
       <r>   26.3687    0.0000 </r>
       <r>   26.6865    0.0000 </r>
       <r>   27.3561    0.0000 </r>
      </set>
      <set comment="kpoint 23">
       <r>    2.6965    1.0000 </r>
       <r>    4.5971    1.0000 </r>
       <r>    5.7105    1.0000 </r>
       <r>    5.7945    1.0000 </r>
       <r>    5.9329    1.0000 </r>
       <r>    6.0521    1.0000 </r>
       <r>    6.2711    1.0000 </r>
       <r>    9.0743    1.0000 </r>
       <r>    9.4558    1.0000 </r>
       <r>    9.4926    1.0000 </r>
       <r>   10.8253    1.0000 </r>
       <r>   11.1461    1.0000 </r>
       <r>   11.2933    1.0000 </r>
       <r>   11.4586    1.0000 </r>
       <r>   12.1941    1.0000 </r>
       <r>   12.4876    1.0000 </r>
       <r>   13.0653    1.0020 </r>
       <r>   13.2302    1.0255 </r>
       <r>   13.6915    0.0211 </r>
       <r>   13.7944   -0.0351 </r>
       <r>   14.3090   -0.0000 </r>
       <r>   14.8726   -0.0000 </r>
       <r>   17.5281   -0.0000 </r>
       <r>   18.4958   -0.0000 </r>
       <r>   23.6300    0.0000 </r>
       <r>   25.3498    0.0000 </r>
       <r>   26.1876    0.0000 </r>
       <r>   26.2197    0.0000 </r>
       <r>   26.6368    0.0000 </r>
       <r>   27.2813    0.0000 </r>
      </set>
      <set comment="kpoint 24">
       <r>    2.6527    1.0000 </r>
       <r>    4.5808    1.0000 </r>
       <r>    5.7461    1.0000 </r>
       <r>    5.7640    1.0000 </r>
       <r>    5.9762    1.0000 </r>
       <r>    6.0981    1.0000 </r>
       <r>    6.1971    1.0000 </r>
       <r>    8.8920    1.0000 </r>
       <r>    9.4314    1.0000 </r>
       <r>    9.6287    1.0000 </r>
       <r>   10.9348    1.0000 </r>
       <r>   11.0487    1.0000 </r>
       <r>   11.3145    1.0000 </r>
       <r>   11.5600    1.0000 </r>
       <r>   11.9002    1.0000 </r>
       <r>   12.2196    1.0000 </r>
       <r>   12.3509    1.0000 </r>
       <r>   13.5620    0.4061 </r>
       <r>   13.7252   -0.0160 </r>
       <r>   14.0929   -0.0003 </r>
       <r>   14.9580   -0.0000 </r>
       <r>   15.5119   -0.0000 </r>
       <r>   17.2790   -0.0000 </r>
       <r>   18.3412   -0.0000 </r>
       <r>   23.7749    0.0000 </r>
       <r>   24.9652    0.0000 </r>
       <r>   25.8021    0.0000 </r>
       <r>   26.3889    0.0000 </r>
       <r>   26.9549    0.0000 </r>
       <r>   27.5849    0.0000 </r>
      </set>
      <set comment="kpoint 25">
       <r>    2.7071    1.0000 </r>
       <r>    4.6172    1.0000 </r>
       <r>    5.8296    1.0000 </r>
       <r>    5.8983    1.0000 </r>
       <r>    5.9267    1.0000 </r>
       <r>    6.0436    1.0000 </r>
       <r>    6.0913    1.0000 </r>
       <r>    8.9076    1.0000 </r>
       <r>    9.4415    1.0000 </r>
       <r>    9.5983    1.0000 </r>
       <r>   10.8376    1.0000 </r>
       <r>   11.1003    1.0000 </r>
       <r>   11.2694    1.0000 </r>
       <r>   11.6090    1.0000 </r>
       <r>   12.0916    1.0000 </r>
       <r>   12.6846    1.0000 </r>
       <r>   12.6943    1.0000 </r>
       <r>   13.1727    1.0131 </r>
       <r>   13.3706    1.0007 </r>
       <r>   13.6632    0.0721 </r>
       <r>   14.8431   -0.0000 </r>
       <r>   15.0721   -0.0000 </r>
       <r>   17.7683   -0.0000 </r>
       <r>   18.3103   -0.0000 </r>
       <r>   23.4046    0.0000 </r>
       <r>   25.0995    0.0000 </r>
       <r>   26.0967    0.0000 </r>
       <r>   26.1363    0.0000 </r>
       <r>   27.2223    0.0000 </r>
       <r>   27.8619    0.0000 </r>
      </set>
      <set comment="kpoint 26">
       <r>    3.1917    1.0000 </r>
       <r>    4.9725    1.0000 </r>
       <r>    5.9685    1.0000 </r>
       <r>    5.9693    1.0000 </r>
       <r>    6.3595    1.0000 </r>
       <r>    6.4135    1.0000 </r>
       <r>    6.6979    1.0000 </r>
       <r>    8.6230    1.0000 </r>
       <r>    9.5459    1.0000 </r>
       <r>    9.8401    1.0000 </r>
       <r>   10.4153    1.0000 </r>
       <r>   10.5320    1.0000 </r>
       <r>   10.6354    1.0000 </r>
       <r>   11.0933    1.0000 </r>
       <r>   11.4309    1.0000 </r>
       <r>   11.7711    1.0000 </r>
       <r>   12.1574    1.0000 </r>
       <r>   12.8458    1.0000 </r>
       <r>   13.0376    1.0011 </r>
       <r>   13.5995    0.2588 </r>
       <r>   14.2249   -0.0000 </r>
       <r>   15.5735   -0.0000 </r>
       <r>   18.6221   -0.0000 </r>
       <r>   19.7295    0.0000 </r>
       <r>   23.0922    0.0000 </r>
       <r>   24.6728    0.0000 </r>
       <r>   25.1890    0.0000 </r>
       <r>   26.0584    0.0000 </r>
       <r>   27.4450    0.0000 </r>
       <r>   28.3222    0.0000 </r>
      </set>
      <set comment="kpoint 27">
       <r>    3.3179    1.0000 </r>
       <r>    5.0250    1.0000 </r>
       <r>    5.8445    1.0000 </r>
       <r>    5.9931    1.0000 </r>
       <r>    6.3367    1.0000 </r>
       <r>    6.4844    1.0000 </r>
       <r>    6.7201    1.0000 </r>
       <r>    8.8224    1.0000 </r>
       <r>    9.6761    1.0000 </r>
       <r>    9.7198    1.0000 </r>
       <r>   10.4148    1.0000 </r>
       <r>   10.5897    1.0000 </r>
       <r>   10.6246    1.0000 </r>
       <r>   11.3079    1.0000 </r>
       <r>   11.4127    1.0000 </r>
       <r>   12.1964    1.0000 </r>
       <r>   12.3911    1.0000 </r>
       <r>   12.5756    1.0000 </r>
       <r>   13.0723    1.0023 </r>
       <r>   13.4306    0.8938 </r>
       <r>   13.9756   -0.0043 </r>
       <r>   14.0250   -0.0016 </r>
       <r>   18.9686   -0.0000 </r>
       <r>   19.6960    0.0000 </r>
       <r>   22.9740    0.0000 </r>
       <r>   24.5900    0.0000 </r>
       <r>   25.9591    0.0000 </r>
       <r>   26.0184    0.0000 </r>
       <r>   27.2309    0.0000 </r>
       <r>   27.9541    0.0000 </r>
      </set>
      <set comment="kpoint 28">
       <r>    3.3328    1.0000 </r>
       <r>    5.0462    1.0000 </r>
       <r>    6.0788    1.0000 </r>
       <r>    6.1821    1.0000 </r>
       <r>    6.2660    1.0000 </r>
       <r>    6.4199    1.0000 </r>
       <r>    6.5074    1.0000 </r>
       <r>    8.5326    1.0000 </r>
       <r>    9.6136    1.0000 </r>
       <r>    9.8219    1.0000 </r>
       <r>   10.4196    1.0000 </r>
       <r>   10.5208    1.0000 </r>
       <r>   10.6367    1.0000 </r>
       <r>   11.1921    1.0000 </r>
       <r>   11.4097    1.0000 </r>
       <r>   11.6228    1.0000 </r>
       <r>   12.4753    1.0000 </r>
       <r>   12.9966    1.0004 </r>
       <r>   13.0598    1.0018 </r>
       <r>   13.5191    0.5865 </r>
       <r>   13.6712    0.0556 </r>
       <r>   14.8709   -0.0000 </r>
       <r>   18.8336   -0.0000 </r>
       <r>   19.7051    0.0000 </r>
       <r>   22.6355    0.0000 </r>
       <r>   24.9833    0.0000 </r>
       <r>   25.8690    0.0000 </r>
       <r>   26.2559    0.0000 </r>
       <r>   27.1623    0.0000 </r>
       <r>   27.7135    0.0000 </r>
      </set>
      <set comment="kpoint 29">
       <r>    3.3205    1.0000 </r>
       <r>    5.0144    1.0000 </r>
       <r>    5.8570    1.0000 </r>
       <r>    5.9955    1.0000 </r>
       <r>    6.3556    1.0000 </r>
       <r>    6.4235    1.0000 </r>
       <r>    6.7384    1.0000 </r>
       <r>    8.8271    1.0000 </r>
       <r>    9.6718    1.0000 </r>
       <r>    9.7249    1.0000 </r>
       <r>   10.4286    1.0000 </r>
       <r>   10.5240    1.0000 </r>
       <r>   10.6474    1.0000 </r>
       <r>   11.3117    1.0000 </r>
       <r>   11.4581    1.0000 </r>
       <r>   11.9790    1.0000 </r>
       <r>   12.6197    1.0000 </r>
       <r>   12.6848    1.0000 </r>
       <r>   13.1792    1.0143 </r>
       <r>   13.4424    0.8625 </r>
       <r>   13.8006   -0.0346 </r>
       <r>   13.9623   -0.0054 </r>
       <r>   18.8518   -0.0000 </r>
       <r>   19.7535    0.0000 </r>
       <r>   22.9545    0.0000 </r>
       <r>   24.8588    0.0000 </r>
       <r>   25.7928    0.0000 </r>
       <r>   26.2418    0.0000 </r>
       <r>   27.2021    0.0000 </r>
       <r>   27.4291    0.0000 </r>
      </set>
      <set comment="kpoint 30">
       <r>    3.1910    1.0000 </r>
       <r>    4.9763    1.0000 </r>
       <r>    5.9580    1.0000 </r>
       <r>    5.9656    1.0000 </r>
       <r>    6.3385    1.0000 </r>
       <r>    6.4896    1.0000 </r>
       <r>    6.6713    1.0000 </r>
       <r>    8.5887    1.0000 </r>
       <r>    9.6051    1.0000 </r>
       <r>    9.8170    1.0000 </r>
       <r>   10.3921    1.0000 </r>
       <r>   10.5343    1.0000 </r>
       <r>   10.6416    1.0000 </r>
       <r>   11.0834    1.0000 </r>
       <r>   11.3776    1.0000 </r>
       <r>   11.6212    1.0000 </r>
       <r>   12.1581    1.0000 </r>
       <r>   13.0245    1.0008 </r>
       <r>   13.1816    1.0148 </r>
       <r>   13.7264   -0.0168 </r>
       <r>   14.0117   -0.0021 </r>
       <r>   15.5709   -0.0000 </r>
       <r>   18.6615   -0.0000 </r>
       <r>   19.6429    0.0000 </r>
       <r>   23.1155    0.0000 </r>
       <r>   24.7127    0.0000 </r>
       <r>   25.1868    0.0000 </r>
       <r>   25.9832    0.0000 </r>
       <r>   27.4440    0.0000 </r>
       <r>   28.2246    0.0000 </r>
      </set>
      <set comment="kpoint 31">
       <r>    3.3310    1.0000 </r>
       <r>    5.0518    1.0000 </r>
       <r>    6.0857    1.0000 </r>
       <r>    6.1851    1.0000 </r>
       <r>    6.2443    1.0000 </r>
       <r>    6.4165    1.0000 </r>
       <r>    6.5177    1.0000 </r>
       <r>    8.5616    1.0000 </r>
       <r>    9.5565    1.0000 </r>
       <r>    9.8435    1.0000 </r>
       <r>   10.4124    1.0000 </r>
       <r>   10.5910    1.0000 </r>
       <r>   10.6083    1.0000 </r>
       <r>   11.2091    1.0000 </r>
       <r>   11.5363    1.0000 </r>
       <r>   11.7174    1.0000 </r>
       <r>   12.3849    1.0000 </r>
       <r>   12.7892    1.0000 </r>
       <r>   12.9385    1.0001 </r>
       <r>   13.1379    1.0078 </r>
       <r>   14.1645   -0.0000 </r>
       <r>   14.8760   -0.0000 </r>
       <r>   18.9009   -0.0000 </r>
       <r>   19.7436    0.0000 </r>
       <r>   22.6361    0.0000 </r>
       <r>   24.6512    0.0000 </r>
       <r>   26.0865    0.0000 </r>
       <r>   26.1106    0.0000 </r>
       <r>   27.2206    0.0000 </r>
       <r>   28.3061    0.0000 </r>
      </set>
[...]
       <r>   13.7667   -0.0341 </r>
       <r>   14.0495   -0.0009 </r>
       <r>   14.2960   -0.0000 </r>
       <r>   15.3109   -0.0000 </r>
       <r>   15.5449   -0.0000 </r>
       <r>   21.4363    0.0000 </r>
       <r>   21.8602    0.0000 </r>
       <r>   22.3163    0.0000 </r>
       <r>   23.8470    0.0000 </r>
       <r>   29.9049    0.0000 </r>
       <r>   29.9456    0.0000 </r>
      </set>
      <set comment="kpoint 214">
       <r>    4.8411    1.0000 </r>
       <r>    5.1436    1.0000 </r>
       <r>    5.2410    1.0000 </r>
       <r>    5.7673    1.0000 </r>
       <r>    8.4226    1.0000 </r>
       <r>    8.7127    1.0000 </r>
       <r>    8.7910    1.0000 </r>
       <r>    8.9691    1.0000 </r>
       <r>    9.0594    1.0000 </r>
       <r>    9.4093    1.0000 </r>
       <r>    9.5409    1.0000 </r>
       <r>    9.7571    1.0000 </r>
       <r>   10.9606    1.0000 </r>
       <r>   11.0788    1.0000 </r>
       <r>   11.1470    1.0000 </r>
       <r>   11.4844    1.0000 </r>
       <r>   12.3329    1.0000 </r>
       <r>   12.9950    1.0004 </r>
       <r>   13.2580    1.0315 </r>
       <r>   13.5241    0.5653 </r>
       <r>   14.0410   -0.0011 </r>
       <r>   14.1801   -0.0000 </r>
       <r>   15.5659   -0.0000 </r>
       <r>   15.8575   -0.0000 </r>
       <r>   21.3795    0.0000 </r>
       <r>   21.6094    0.0000 </r>
       <r>   22.3205    0.0000 </r>
       <r>   23.8293    0.0000 </r>
       <r>   29.7658    0.0000 </r>
       <r>   29.9309    0.0000 </r>
      </set>
      <set comment="kpoint 215">
       <r>    4.8379    1.0000 </r>
       <r>    5.1256    1.0000 </r>
       <r>    5.3405    1.0000 </r>
       <r>    5.7165    1.0000 </r>
       <r>    8.3646    1.0000 </r>
       <r>    8.5632    1.0000 </r>
       <r>    8.9362    1.0000 </r>
       <r>    9.1005    1.0000 </r>
       <r>    9.1408    1.0000 </r>
       <r>    9.4412    1.0000 </r>
       <r>    9.5464    1.0000 </r>
       <r>    9.6235    1.0000 </r>
       <r>   10.9329    1.0000 </r>
       <r>   11.0403    1.0000 </r>
       <r>   11.1971    1.0000 </r>
       <r>   11.6373    1.0000 </r>
       <r>   12.3040    1.0000 </r>
       <r>   12.8350    1.0000 </r>
       <r>   12.9455    1.0001 </r>
       <r>   13.9126   -0.0121 </r>
       <r>   14.4029   -0.0000 </r>
       <r>   14.5317   -0.0000 </r>
       <r>   14.9327   -0.0000 </r>
       <r>   15.3661   -0.0000 </r>
       <r>   21.4019    0.0000 </r>
       <r>   21.9274    0.0000 </r>
       <r>   22.2820    0.0000 </r>
       <r>   23.8717    0.0000 </r>
       <r>   29.8545    0.0000 </r>
       <r>   29.9143    0.0000 </r>
      </set>
      <set comment="kpoint 216">
       <r>    4.6626    1.0000 </r>
       <r>    5.0369    1.0000 </r>
       <r>    5.1145    1.0000 </r>
       <r>    5.5726    1.0000 </r>
       <r>    8.4895    1.0000 </r>
       <r>    8.6642    1.0000 </r>
       <r>    8.9124    1.0000 </r>
       <r>    8.9279    1.0000 </r>
       <r>    9.0440    1.0000 </r>
       <r>    9.4447    1.0000 </r>
       <r>    9.4925    1.0000 </r>
       <r>    9.6719    1.0000 </r>
       <r>   11.6418    1.0000 </r>
       <r>   11.7352    1.0000 </r>
       <r>   11.9782    1.0000 </r>
       <r>   12.2896    1.0000 </r>
       <r>   12.4601    1.0000 </r>
       <r>   12.9170    1.0000 </r>
       <r>   12.9383    1.0001 </r>
       <r>   13.6647    0.0689 </r>
       <r>   13.9141   -0.0118 </r>
       <r>   14.3407   -0.0000 </r>
       <r>   14.6461   -0.0000 </r>
       <r>   14.9191   -0.0000 </r>
       <r>   21.2842    0.0000 </r>
       <r>   21.4437    0.0000 </r>
       <r>   21.8199    0.0000 </r>
       <r>   23.5669    0.0000 </r>
       <r>   29.4403    0.0000 </r>
       <r>   29.6392    0.0000 </r>
      </set>
     </set>
    </set>
   </array>
  </eigenvalues>
  <separator name="orbital magnetization" >
   <v name="MAGDIPOLOUT">      0.00000000      0.00000000      0.00000000</v>
  </separator>
  <dos>
   <i name="efermi">     13.53962326 </i>
   <total>
    <array>
     <dimension dim="1">gridpoints</dimension>
     <dimension dim="2">spin</dimension>
     <field>energy</field>
     <field>total</field>
     <field>integrated</field>
     <set>
      <set comment="spin 1">
       <r>     0.0391     0.0000     0.0000 </r>
       <r>     0.1476     0.0000     0.0000 </r>
       <r>     0.2561     0.0000     0.0000 </r>
       <r>     0.3646    -0.0000    -0.0000 </r>
       <r>     0.4731    -0.0000    -0.0000 </r>
       <r>     0.5815    -0.0000    -0.0000 </r>
       <r>     0.6900    -0.0000    -0.0000 </r>
       <r>     0.7985    -0.0000    -0.0000 </r>
       <r>     0.9070    -0.0000    -0.0000 </r>
       <r>     1.0155    -0.0000    -0.0000 </r>
       <r>     1.1240    -0.0000    -0.0000 </r>
       <r>     1.2325    -0.0000    -0.0000 </r>
       <r>     1.3410    -0.0000    -0.0000 </r>
       <r>     1.4494    -0.0000    -0.0000 </r>
       <r>     1.5579    -0.0000    -0.0000 </r>
       <r>     1.6664    -0.0002    -0.0000 </r>
       <r>     1.7749    -0.0010    -0.0001 </r>
       <r>     1.8834    -0.0020    -0.0004 </r>
       <r>     1.9919     0.0019    -0.0001 </r>
       <r>     2.1004     0.0226     0.0023 </r>
       <r>     2.2088     0.0650     0.0094 </r>
       <r>     2.3173     0.1039     0.0206 </r>
       <r>     2.4258     0.1063     0.0322 </r>
       <r>     2.5343     0.1017     0.0432 </r>
       <r>     2.6428     0.1603     0.0606 </r>
       <r>     2.7513     0.2408     0.0867 </r>
       <r>     2.8598     0.2159     0.1101 </r>
       <r>     2.9683     0.1346     0.1247 </r>
       <r>     3.0767     0.1692     0.1431 </r>
       <r>     3.1852     0.2788     0.1733 </r>
       <r>     3.2937     0.3152     0.2075 </r>
       <r>     3.4022     0.2844     0.2384 </r>
       <r>     3.5107     0.2664     0.2673 </r>
       <r>     3.6192     0.3389     0.3040 </r>
       <r>     3.7277     0.4204     0.3497 </r>
       <r>     3.8361     0.3589     0.3886 </r>
       <r>     3.9446     0.2702     0.4179 </r>
       <r>     4.0531     0.3339     0.4541 </r>
       <r>     4.1616     0.5676     0.5157 </r>
       <r>     4.2701     0.7731     0.5996 </r>
       <r>     4.3786     0.7855     0.6848 </r>
       <r>     4.4871     0.6804     0.7586 </r>
       <r>     4.5956     0.6995     0.8345 </r>
       <r>     4.7040     1.0102     0.9441 </r>
       <r>     4.8125     1.3603     1.0917 </r>
       <r>     4.9210     1.5022     1.2546 </r>
       <r>     5.0295     1.6607     1.4348 </r>
       <r>     5.1380     2.0306     1.6551 </r>
       <r>     5.2465     2.3502     1.9100 </r>
       <r>     5.3550     2.4048     2.1709 </r>
       <r>     5.4634     2.2923     2.4196 </r>
       <r>     5.5719     2.3973     2.6797 </r>
       <r>     5.6804     3.2219     3.0292 </r>
       <r>     5.7889     4.3220     3.4981 </r>
       <r>     5.8974     4.5960     3.9967 </r>
       <r>     6.0059     4.3547     4.4691 </r>
       <r>     6.1144     4.6006     4.9682 </r>
       <r>     6.2229     5.1210     5.5238 </r>
       <r>     6.3313     5.4112     6.1108 </r>
       <r>     6.4398     5.3454     6.6907 </r>
       <r>     6.5483     5.0354     7.2370 </r>
       <r>     6.6568     4.7378     7.7510 </r>
       <r>     6.7653     4.5326     8.2427 </r>
       <r>     6.8738     4.5312     8.7343 </r>
       <r>     6.9823     4.6397     9.2376 </r>
       <r>     7.0907     4.3911     9.7140 </r>
       <r>     7.1992     3.8633    10.1331 </r>
       <r>     7.3077     3.5149    10.5145 </r>
       <r>     7.4162     3.3027    10.8728 </r>
       <r>     7.5247     3.1967    11.2196 </r>
       <r>     7.6332     3.2587    11.5731 </r>
       <r>     7.7417     3.2836    11.9293 </r>
       <r>     7.8502     3.2339    12.2801 </r>
       <r>     7.9586     3.3639    12.6451 </r>
       <r>     8.0671     3.7802    13.0552 </r>
       <r>     8.1756     4.1989    13.5107 </r>
       <r>     8.2841     4.4667    13.9953 </r>
       <r>     8.3926     4.8849    14.5252 </r>
       <r>     8.5011     5.2797    15.0980 </r>
       <r>     8.6096     5.1392    15.6555 </r>
       <r>     8.7180     4.5710    16.1514 </r>
       <r>     8.8265     4.2023    16.6073 </r>
       <r>     8.9350     4.3495    17.0792 </r>
       <r>     9.0435     4.4622    17.5633 </r>
       <r>     9.1520     4.4370    18.0446 </r>
       <r>     9.2605     4.9911    18.5861 </r>
       <r>     9.3690     6.2522    19.2644 </r>
       <r>     9.4775     7.6705    20.0965 </r>
       <r>     9.5859     8.7896    21.0501 </r>
       <r>     9.6944     8.9984    22.0263 </r>
       <r>     9.8029     7.9590    22.8897 </r>
       <r>     9.9114     6.4743    23.5921 </r>
       <r>    10.0199     5.6469    24.2047 </r>
       <r>    10.1284     5.5463    24.8064 </r>
       <r>    10.2369     5.7195    25.4269 </r>
       <r>    10.3453     5.9730    26.0749 </r>
       <r>    10.4538     6.0659    26.7330 </r>
       <r>    10.5623     6.2433    27.4103 </r>
       <r>    10.6708     6.5166    28.1173 </r>
       <r>    10.7793     5.9431    28.7620 </r>
       <r>    10.8878     4.6942    29.2713 </r>
       <r>    10.9963     4.0411    29.7097 </r>
       <r>    11.1048     4.2405    30.1697 </r>
       <r>    11.2132     4.2887    30.6350 </r>
       <r>    11.3217     3.6664    31.0327 </r>
       <r>    11.4302     3.0240    31.3608 </r>
       <r>    11.5387     2.7139    31.6552 </r>
       <r>    11.6472     2.5589    31.9328 </r>
       <r>    11.7557     2.6401    32.2192 </r>
       <r>    11.8642     3.0736    32.5527 </r>
       <r>    11.9726     3.8640    32.9719 </r>
       <r>    12.0811     4.7416    33.4863 </r>
       <r>    12.1896     5.4695    34.0797 </r>
       <r>    12.2981     5.7885    34.7076 </r>
       <r>    12.4066     5.3820    35.2915 </r>
       <r>    12.5151     4.6912    35.8005 </r>
       <r>    12.6236     4.3946    36.2772 </r>
       <r>    12.7321     4.3697    36.7513 </r>
       <r>    12.8405     4.0706    37.1929 </r>
       <r>    12.9490     3.8069    37.6059 </r>
       <r>    13.0575     4.1909    38.0605 </r>
       <r>    13.1660     4.7781    38.5789 </r>
       <r>    13.2745     4.7087    39.0897 </r>
       <r>    13.3830     3.9065    39.5135 </r>
       <r>    13.4915     3.1675    39.8571 </r>
       <r>    13.5999     2.9602    40.1783 </r>
       <r>    13.7084     2.9932    40.5030 </r>
       <r>    13.8169     3.0656    40.8356 </r>
       <r>    13.9254     2.9710    41.1579 </r>
       <r>    14.0339     2.6024    41.4402 </r>
       <r>    14.1424     2.4111    41.7018 </r>
       <r>    14.2509     2.5813    41.9818 </r>
       <r>    14.3594     2.6234    42.2664 </r>
       <r>    14.4678     2.2945    42.5154 </r>
       <r>    14.5763     1.9049    42.7220 </r>
       <r>    14.6848     1.6141    42.8971 </r>
       <r>    14.7933     1.3375    43.0422 </r>
       <r>    14.9018     1.2034    43.1728 </r>
       <r>    15.0103     1.2151    43.3046 </r>
       <r>    15.1188     1.0875    43.4226 </r>
       <r>    15.2272     0.8777    43.5178 </r>
       <r>    15.3357     0.8294    43.6078 </r>
       <r>    15.4442     0.9200    43.7076 </r>
       <r>    15.5527     0.9417    43.8097 </r>
       <r>    15.6612     0.7349    43.8895 </r>
       <r>    15.7697     0.4578    43.9391 </r>
       <r>    15.8782     0.3976    43.9823 </r>
       <r>    15.9866     0.6008    44.0475 </r>
       <r>    16.0951     0.7878    44.1329 </r>
       <r>    16.2036     0.6787    44.2065 </r>
       <r>    16.3121     0.5073    44.2616 </r>
       <r>    16.4206     0.5549    44.3218 </r>
       <r>    16.5291     0.6565    44.3930 </r>
       <r>    16.6376     0.6094    44.4591 </r>
       <r>    16.7461     0.5247    44.5160 </r>
       <r>    16.8545     0.5937    44.5805 </r>
       <r>    16.9630     0.7985    44.6671 </r>
       <r>    17.0715     0.8673    44.7612 </r>
       <r>    17.1800     0.7103    44.8382 </r>
       <r>    17.2885     0.6408    44.9077 </r>
       <r>    17.3970     0.7683    44.9911 </r>
       <r>    17.5055     0.9643    45.0957 </r>
       <r>    17.6139     1.2134    45.2273 </r>
       <r>    17.7224     1.3568    45.3745 </r>
       <r>    17.8309     1.3160    45.5173 </r>
       <r>    17.9394     1.2178    45.6494 </r>
       <r>    18.0479     1.1847    45.7779 </r>
       <r>    18.1564     1.1554    45.9033 </r>
       <r>    18.2649     0.9832    46.0099 </r>
       <r>    18.3734     0.7298    46.0891 </r>
       <r>    18.4818     0.5619    46.1501 </r>
       <r>    18.5903     0.5934    46.2145 </r>
       <r>    18.6988     0.6930    46.2896 </r>
       <r>    18.8073     0.7528    46.3713 </r>
       <r>    18.9158     0.8352    46.4619 </r>
       <r>    19.0243     0.9301    46.5628 </r>
       <r>    19.1328     1.1040    46.6826 </r>
       <r>    19.2412     1.2157    46.8145 </r>
       <r>    19.3497     0.9629    46.9189 </r>
       <r>    19.4582     0.5039    46.9736 </r>
       <r>    19.5667     0.2546    47.0012 </r>
       <r>    19.6752     0.3613    47.0404 </r>
       <r>    19.7837     0.6911    47.1154 </r>
       <r>    19.8922     0.9620    47.2198 </r>
       <r>    20.0007     0.9292    47.3206 </r>
       <r>    20.1091     0.6300    47.3889 </r>
       <r>    20.2176     0.3374    47.4255 </r>
       <r>    20.3261     0.1914    47.4463 </r>
       <r>    20.4346     0.2466    47.4730 </r>
       <r>    20.5431     0.4804    47.5252 </r>
       <r>    20.6516     0.6369    47.5942 </r>
       <r>    20.7601     0.6474    47.6645 </r>
       <r>    20.8685     0.6840    47.7387 </r>
       <r>    20.9770     0.7380    47.8187 </r>
       <r>    21.0855     0.8754    47.9137 </r>
       <r>    21.1940     1.1677    48.0404 </r>
       <r>    21.3025     1.3425    48.1860 </r>
       <r>    21.4110     1.2523    48.3219 </r>
       <r>    21.5195     1.0963    48.4408 </r>
       <r>    21.6280     1.0981    48.5600 </r>
       <r>    21.7364     1.2129    48.6915 </r>
       <r>    21.8449     1.3123    48.8339 </r>
       <r>    21.9534     1.3156    48.9766 </r>
       <r>    22.0619     1.2138    49.1083 </r>
       <r>    22.1704     1.2224    49.2409 </r>
       <r>    22.2789     1.3903    49.3918 </r>
       <r>    22.3874     1.4153    49.5453 </r>
       <r>    22.4958     1.2215    49.6778 </r>
       <r>    22.6043     1.0564    49.7924 </r>
       <r>    22.7128     0.9536    49.8959 </r>
       <r>    22.8213     0.8955    49.9930 </r>
       <r>    22.9298     0.9371    50.0947 </r>
       <r>    23.0383     1.0829    50.2122 </r>
       <r>    23.1468     1.2132    50.3438 </r>
       <r>    23.2553     1.1575    50.4694 </r>
       <r>    23.3637     0.9686    50.5744 </r>
       <r>    23.4722     0.9050    50.6726 </r>
       <r>    23.5807     0.9822    50.7792 </r>
       <r>    23.6892     1.0346    50.8914 </r>
       <r>    23.7977     1.0947    51.0102 </r>
       <r>    23.9062     1.2785    51.1489 </r>
       <r>    24.0147     1.3768    51.2983 </r>
       <r>    24.1231     1.1793    51.4262 </r>
       <r>    24.2316     0.9729    51.5317 </r>
       <r>    24.3401     1.1291    51.6542 </r>
       <r>    24.4486     1.5194    51.8191 </r>
       <r>    24.5571     1.5616    51.9885 </r>
       <r>    24.6656     1.1311    52.1112 </r>
       <r>    24.7741     0.8229    52.2005 </r>
       <r>    24.8826     0.9259    52.3009 </r>
       <r>    24.9910     1.1007    52.4203 </r>
       <r>    25.0995     1.2144    52.5521 </r>
       <r>    25.2080     1.4256    52.7067 </r>
       <r>    25.3165     1.5617    52.8761 </r>
       <r>    25.4250     1.4004    53.0281 </r>
       <r>    25.5335     1.1469    53.1525 </r>
       <r>    25.6420     1.1097    53.2729 </r>
       <r>    25.7504     1.2325    53.4066 </r>
       <r>    25.8589     1.4470    53.5636 </r>
       <r>    25.9674     1.8076    53.7597 </r>
       <r>    26.0759     2.0436    53.9814 </r>
       <r>    26.1844     1.9157    54.1892 </r>
       <r>    26.2929     1.7051    54.3742 </r>
       <r>    26.4014     1.6021    54.5480 </r>
       <r>    26.5099     1.5250    54.7134 </r>
       <r>    26.6183     1.4574    54.8715 </r>
       <r>    26.7268     1.4240    55.0260 </r>
       <r>    26.8353     1.4706    55.1855 </r>
       <r>    26.9438     1.6905    55.3689 </r>
       <r>    27.0523     1.7993    55.5641 </r>
       <r>    27.1608     1.5758    55.7351 </r>
       <r>    27.2693     1.3750    55.8842 </r>
       <r>    27.3777     1.4617    56.0428 </r>
       <r>    27.4862     1.7509    56.2328 </r>
       <r>    27.5947     1.9400    56.4432 </r>
       <r>    27.7032     1.8941    56.6487 </r>
       <r>    27.8117     1.8502    56.8494 </r>
       <r>    27.9202     1.8074    57.0455 </r>
       <r>    28.0287     1.6205    57.2213 </r>
       <r>    28.1372     1.4679    57.3806 </r>
       <r>    28.2456     1.5135    57.5448 </r>
       <r>    28.3541     1.6017    57.7185 </r>
       <r>    28.4626     1.5437    57.8860 </r>
       <r>    28.5711     1.3163    58.0288 </r>
       <r>    28.6796     1.1103    58.1493 </r>
       <r>    28.7881     1.0840    58.2669 </r>
       <r>    28.8966     1.1974    58.3968 </r>
       <r>    29.0050     1.3789    58.5464 </r>
       <r>    29.1135     1.4499    58.7036 </r>
       <r>    29.2220     1.4058    58.8562 </r>
       <r>    29.3305     1.3391    59.0014 </r>
       <r>    29.4390     1.1692    59.1283 </r>
       <r>    29.5475     0.9416    59.2304 </r>
       <r>    29.6560     0.8233    59.3197 </r>
       <r>    29.7645     0.8683    59.4139 </r>
       <r>    29.8729     0.8929    59.5108 </r>
       <r>    29.9814     0.7269    59.5897 </r>
       <r>    30.0899     0.5034    59.6443 </r>
       <r>    30.1984     0.4550    59.6936 </r>
       <r>    30.3069     0.6089    59.7597 </r>
       <r>    30.4154     0.8011    59.8466 </r>
       <r>    30.5239     0.7876    59.9321 </r>
       <r>    30.6323     0.5020    59.9865 </r>
       <r>    30.7408     0.1613    60.0040 </r>
       <r>    30.8493    -0.0073    60.0032 </r>
       <r>    30.9578    -0.0223    60.0008 </r>
       <r>    31.0663    -0.0065    60.0001 </r>
       <r>    31.1748    -0.0008    60.0000 </r>
       <r>    31.2833    -0.0001    60.0000 </r>
       <r>    31.3918    -0.0000    60.0000 </r>
       <r>    31.5002    -0.0000    60.0000 </r>
       <r>    31.6087    -0.0000    60.0000 </r>
       <r>    31.7172    -0.0000    60.0000 </r>
       <r>    31.8257    -0.0000    60.0000 </r>
       <r>    31.9342     0.0000    60.0000 </r>
       <r>    32.0427     0.0000    60.0000 </r>
       <r>    32.1512     0.0000    60.0000 </r>
       <r>    32.2596     0.0000    60.0000 </r>
       <r>    32.3681     0.0000    60.0000 </r>
       <r>    32.4766     0.0000    60.0000 </r>
       <r>    32.5851     0.0000    60.0000 </r>
      </set>
     </set>
    </array>
   </total>
  </dos>
 </calculation>
 <structure name="finalpos" >
  <crystal>
   <varray name="basis" >
    <v>       3.57337793       0.00000000       0.00000000 </v>
    <v>       0.00000000       3.57337793       0.00000000 </v>
    <v>       0.00000000       0.00000000       3.57337793 </v>
   </varray>
   <i name="volume">     45.62856923 </i>
   <varray name="rec_basis" >
    <v>       0.27984725       0.00000000       0.00000000 </v>
    <v>       0.00000000       0.27984725       0.00000000 </v>
    <v>       0.00000000       0.00000000       0.27984725 </v>
   </varray>
  </crystal>
  <varray name="positions" >
   <v>       0.00000000       0.00000000       0.00000000 </v>
   <v>       0.50000000       0.50000000       0.00000000 </v>
   <v>       0.50000000       0.00000000       0.50000000 </v>
   <v>       0.00000000       0.50000000       0.50000000 </v>
  </varray>
 </structure>
</modeling>
