 vasp.6.2.0 18Jan21 (build Mar 17 2021 09:06:54) complex                        
  
 POSCAR found type information on POSCAR PdIrPtCu
 POSCAR found :  4 types and       4 ions
 LDA part: xc-table for Pade appr. of Perdew
 POSCAR, INCAR and KPOINTS ok, starting setup
 FFT: planning ...
 WAVECAR not read
 WARNING: chargedensity file is incomplete
 entering main loop
       N       E                     dE             d eps       ncg     rms          rms(c)
DAV:   1     0.233135846043E+03    0.23314E+03   -0.11899E+04 13632   0.987E+02
DAV:   2    -0.112454422469E+02   -0.24438E+03   -0.23022E+03 13796   0.286E+02
DAV:   3    -0.227573914193E+02   -0.11512E+02   -0.11227E+02 15050   0.727E+01
DAV:   4    -0.230321480303E+02   -0.27476E+00   -0.27451E+00 16206   0.108E+01
DAV:   5    -0.230443711405E+02   -0.12223E-01   -0.12222E-01 18492   0.221E+00    0.369E+01
DAV:   6    -0.237469905602E+02   -0.70262E+00   -0.33778E+01 15428   0.149E+02    0.186E+01
DAV:   7    -0.208910665546E+02    0.28559E+01   -0.10125E+01 16406   0.124E+02    0.129E+01
DAV:   8    -0.207395559270E+02    0.15151E+00   -0.86729E-01 20098   0.156E+01    0.299E+00
DAV:   9    -0.207215777029E+02    0.17978E-01   -0.88852E-02 20440   0.511E+00    0.141E+00
DAV:  10    -0.207156744864E+02    0.59032E-02   -0.27514E-02 19880   0.261E+00    0.215E-01
DAV:  11    -0.207151112568E+02    0.56323E-03   -0.26387E-03 20068   0.156E+00    0.890E-02
DAV:  12    -0.207150432576E+02    0.67999E-04   -0.23731E-04 18560   0.278E-01    0.441E-02
DAV:  13    -0.207150169235E+02    0.26334E-04   -0.27049E-05 15670   0.406E-02    0.258E-02
DAV:  14    -0.207150067877E+02    0.10136E-04   -0.14536E-05 17776   0.150E-01    0.808E-03
DAV:  15    -0.207150049888E+02    0.17989E-05   -0.42601E-06 13122   0.685E-02    0.340E-03
DAV:  16    -0.207150046861E+02    0.30274E-06   -0.42082E-07  8448   0.204E-02
   1 F= -.20715005E+02 E0= -.20716121E+02  d E =0.334895E-02
 writing wavefunctions
