unknown system                          
   1.00000000000000     
     2.260100    0.000000    0.000000
    -1.130050    1.957304    0.000000
     0.000000    0.000000    3.897460
   Fe
     2
Direct
  0.000000  0.000000  0.000000
  0.333333  0.666667  0.500000
 
   20   20   32
  144.55      137.41      118.09      91.854      64.692      41.326      24.375      14.379      10.071      8.9174    
  8.6323      8.9174      10.071      14.379      24.375      41.326      64.692      91.854      118.09      137.41    
  137.41      137.41      124.21      101.58      75.207      50.422      30.832      17.960      11.402      9.1789    
  8.6163      8.6162      9.1787      11.402      17.960      30.831      50.421      75.209      101.59      124.22    
  118.10      124.18      118.09      101.58      79.078      55.713      35.643      21.234      12.952      9.5465    
  8.6158      8.3419      8.6155      9.5466      12.952      21.234      35.641      55.712      79.080      101.59    
  91.852      101.51      101.51      91.854      75.207      55.713      37.423      23.191      14.206      9.9666    
  8.6251      8.1330      8.1329      8.6250      9.9672      14.206      23.191      37.422      55.710      75.204    
  64.685      75.107      78.940      75.112      64.692      50.422      35.643      23.191      14.687      10.253    
  8.6413      8.0024      7.7729      8.0023      8.6413      10.253      14.689      23.193      35.643      50.418    
  41.325      50.341      55.569      55.570      50.344      41.326      30.832      21.234      14.206      10.253    
  8.6516      7.9425      7.5615      7.5615      7.9422      8.6508      10.252      14.208      21.238      30.835    
  24.380      30.803      35.562      37.317      35.560      30.799      24.375      17.960      12.952      9.9666    
  8.6413      7.9425      7.4932      7.3418      7.4935      7.9418      8.6392      9.9645      12.952      17.964    
  14.379      17.978      21.241      23.179      23.176      21.236      17.975      14.379      11.402      9.5465    
  8.6251      8.0024      7.5615      7.3418      7.3422      7.5624      8.0023      8.6229      9.5427      11.399    
  10.066      11.440      13.017      14.281      14.763      14.280      13.017      11.443      10.071      9.1789    
  8.6158      8.1330      7.7729      7.5615      7.4935      7.5624      7.7748      8.1351      8.6158      9.1755    
  8.9173      9.2239      9.6337      10.086      10.389      10.389      10.088      9.6375      9.2271      8.9174    
  8.6163      8.3419      8.1329      8.0023      7.9422      7.9418      8.0022      8.1351      8.3460      8.6195    
  8.6370      8.6685      8.7113      8.7583      8.8019      8.8232      8.8040      8.7604      8.7111      8.6652    
  8.6323      8.6162      8.6156      8.6250      8.6413      8.6508      8.6392      8.6229      8.6158      8.6195    
  8.9172      8.6685      8.4426      8.2752      8.1770      8.1361      8.1365      8.1770      8.2730      8.4385    
  8.6653      8.9174      9.1787      9.5466      9.9672      10.253      10.252      9.9645      9.5427      9.1755    
  10.066      9.2239      8.7113      8.2752      7.9540      7.7693      7.7106      7.7686      7.9522      8.2732    
  8.7113      9.2272      10.071      11.402      12.952      14.206      14.689      14.208      12.952      11.399    
  14.379      11.440      9.6337      8.7583      8.1770      7.7693      7.5678      7.5674      7.7685      8.1771    
  8.7604      9.6374      11.443      14.379      17.960      21.234      23.191      23.193      21.238      17.964    
  24.380      17.978      13.017      10.086      8.8019      8.1361      7.7106      7.5674      7.7104      8.1368    
  8.8040      10.088      13.017      17.975      24.375      30.831      35.641      37.422      35.643      30.835    
  41.325      30.803      21.241      14.281      10.389      8.8232      8.1365      7.7685      7.7685      8.1368    
  8.8241      10.389      14.279      21.237      30.800      41.326      50.421      55.712      55.710      50.418    
  64.685      50.341      35.562      23.179      14.763      10.389      8.8040      8.1770      7.9522      8.1771    
  8.8040      10.389      14.761      23.176      35.562      50.345      64.692      75.209      79.080      75.204    
  91.852      75.107      55.569      37.317      23.176      14.280      10.088      8.7604      8.2730      8.2732    
  8.7604      10.088      14.279      23.176      37.319      55.572      75.110      91.854      101.59      101.59    
  118.10      101.51      78.940      55.570      35.560      21.236      13.017      9.6376      8.7111      8.4385    
  8.7113      9.6374      13.017      21.237      35.562      55.572      78.938      101.51      118.09      124.22    
  137.41      124.18      101.51      75.112      50.344      30.799      17.975      11.443      9.2271      8.6652    
  8.6653      9.2272      11.443      17.975      30.800      50.345      75.110      101.51      124.18      137.41    
  136.26      129.54      111.34      86.590      60.959      38.938      23.037      13.755      9.8289      8.7761    
  8.4965      8.7762      9.8289      13.755      23.037      38.938      60.959      86.590      111.34      129.54    
  129.54      129.54      117.10      95.762      70.869      47.488      29.063      17.048      11.014      9.0093    
  8.4696      8.4695      9.0092      11.014      17.047      29.062      47.487      70.871      95.768      117.11    
  111.34      117.08      111.34      95.762      74.517      52.466      33.565      20.076      12.412      9.3233    
  8.4622      8.1953      8.4619      9.3233      12.413      20.075      33.563      52.465      74.519      95.767    
  86.588      95.708      95.709      86.590      70.869      52.466      35.233      21.891      13.552      9.6863    
  8.4676      7.9891      7.9890      8.4675      9.6868      13.553      21.890      35.232      52.463      70.866    
  60.953      70.799      74.420      70.804      60.959      47.488      33.565      21.891      13.991      9.9361    
  8.4783      7.8613      7.6401      7.8612      8.4783      9.9367      13.993      21.893      33.565      47.484    
  38.937      47.442      52.379      52.380      47.445      38.938      29.063      20.076      13.552      9.9360    
  8.4854      7.8029      7.4366      7.4366      7.8027      8.4846      9.9359      13.554      20.079      29.065    
  23.041      29.070      33.548      35.202      33.546      29.066      23.037      17.048      12.412      9.6863    
  8.4783      7.8030      7.3710      7.2261      7.3713      7.8023      8.4763      9.6843      12.413      17.051    
  13.755      17.098      20.144      21.958      21.956      20.139      17.094      13.755      11.014      9.3232    
  8.4676      7.8613      7.4365      7.2261      7.2265      7.4373      7.8611      8.4655      9.3197      11.011    
  9.8242      11.081      12.534      13.704      14.151      13.702      12.534      11.084      9.8289      9.0093    
  8.4622      7.9891      7.6401      7.4366      7.3713      7.4373      7.6418      7.9910      8.4622      9.0062    
  8.7760      9.0810      9.4621      9.8771      10.155      10.156      9.8795      9.4657      9.0840      8.7761    
  8.4696      8.1953      7.9890      7.8612      7.8027      7.8023      7.8611      7.9910      8.1991      8.4726    
  8.5009      8.5471      8.6070      8.6698      8.7210      8.7436      8.7229      8.6717      8.6068      8.5441    
  8.4965      8.4695      8.4619      8.4675      8.4783      8.4846      8.4763      8.4655      8.4622      8.4726    
  8.7760      8.5471      8.3443      8.1989      8.1176      8.0856      8.0860      8.1176      8.1969      8.3406    
  8.5442      8.7762      9.0092      9.3233      9.6868      9.9367      9.9359      9.6843      9.3197      9.0062    
  9.8242      9.0810      8.6070      8.1989      7.9025      7.7343      7.6813      7.7336      7.9008      8.1970    
  8.6070      9.0841      9.8289      11.014      12.413      13.553      13.993      13.554      12.413      11.011    
  13.755      11.081      9.4621      8.6697      8.1175      7.7343      7.5462      7.5458      7.7335      8.1177    
  8.6717      9.4656      11.084      13.755      17.047      20.075      21.890      21.893      20.079      17.051    
  23.041      17.098      12.534      9.8771      8.7210      8.0856      7.6813      7.5458      7.6810      8.0862    
  8.7229      9.8790      12.534      17.095      23.037      29.062      33.563      35.232      33.565      29.065    
  38.937      29.070      20.144      13.704      10.155      8.7437      8.0860      7.7336      7.7335      8.0862    
  8.7444      10.155      13.702      20.140      29.067      38.938      47.487      52.465      52.463      47.484    
  60.953      47.442      33.548      21.958      14.151      10.156      8.7229      8.1176      7.9008      8.1177    
  8.7229      10.155      14.149      21.956      33.548      47.446      60.959      70.871      74.519      70.866    
  86.588      70.799      52.379      35.202      21.956      13.702      9.8795      8.6717      8.1969      8.1970    
  8.6717      9.8790      13.702      21.956      35.203      52.382      70.802      86.590      95.768      95.767    
  111.34      95.708      74.420      52.380      33.546      20.139      12.534      9.4657      8.6068      8.3406    
  8.6070      9.4656      12.534      20.140      33.548      52.382      74.418      95.703      111.34      117.11    
  129.54      117.08      95.709      70.804      47.445      29.066      17.094      11.084      9.0840      8.5441    
  8.5442      9.0841      11.084      17.095      29.067      47.446      70.802      95.703      117.07      129.54    
  114.19      108.56      93.312      72.531      51.003      32.610      19.543      12.168      9.2209      8.3908    
  8.1288      8.3908      9.2210      12.168      19.543      32.610      51.004      72.531      93.312      108.56    
  108.57      108.56      98.140      80.217      59.288      39.685      24.410      14.696      10.042      8.5667    
  8.0742      8.0741      8.5666      10.042      14.696      24.409      39.685      59.289      80.222      98.145    
  93.316      98.138      93.312      80.217      62.340      43.819      28.078      17.067      11.047      8.7584    
  8.0468      7.8013      8.0465      8.7584      11.048      17.066      28.076      43.818      62.341      80.221    
  72.530      80.213      80.214      72.531      59.288      43.819      29.443      18.502      11.887      8.9819    
  8.0390      7.6013      7.6012      8.0389      8.9823      11.887      18.502      29.441      43.816      59.285    
  50.998      59.296      62.351      59.300      51.003      39.685      28.078      18.502      12.214      9.1410    
  8.0404      7.4791      7.2815      7.4790      8.0404      9.1414      12.215      18.503      28.078      39.682    
  32.609      39.733      43.884      43.885      39.735      32.610      24.410      17.067      11.887      9.1410    
  8.0420      7.4236      7.0980      7.0981      7.4235      8.0414      9.1408      11.889      17.070      24.412    
  19.547      24.508      28.227      29.606      28.226      24.505      19.543      14.696      11.047      8.9819    
  8.0404      7.4236      7.0394      6.9122      7.0397      7.4232      8.0388      8.9804      11.048      14.699    
  12.168      14.828      17.292      18.773      18.771      17.289      14.825      12.168      10.042      8.7584    
  8.0390      7.4791      7.0980      6.9122      6.9125      7.0986      7.4789      8.0374      8.7555      10.040    
  9.2171      10.181      11.310      12.231      12.585      12.230      11.310      10.184      9.2209      8.5667    
  8.0468      7.6013      7.2815      7.0981      7.0397      7.0986      7.2828      7.6028      8.0468      8.5642    
  8.3907      8.7039      9.0245      9.3495      9.5646      9.5652      9.3514      9.0273      8.7063      8.3908    
  8.0742      7.8013      7.6012      7.4790      7.4236      7.4232      7.4789      7.6028      7.8044      8.0766    
  8.1324      8.2134      8.3110      8.4079      8.4808      8.5086      8.4823      8.4094      8.3108      8.2109    
  8.1288      8.0741      8.0465      8.0389      8.0404      8.0414      8.0388      8.0374      8.0468      8.0766    
  8.3907      8.2134      8.0667      7.9721      7.9280      7.9154      7.9157      7.9281      7.9705      8.0636    
  8.2110      8.3908      8.5666      8.7584      8.9822      9.1414      9.1409      8.9804      8.7555      8.5642    
  9.2171      8.7039      8.3110      7.9721      7.7341      7.6035      7.5633      7.6030      7.7329      7.9706    
  8.3110      8.7065      9.2210      10.042      11.048      11.887      12.215      11.889      11.048      10.040    
  12.168      10.181      9.0245      8.4079      7.9280      7.6035      7.4470      7.4467      7.6029      7.9281    
  8.4094      9.0273      10.184      12.168      14.696      17.066      18.502      18.503      17.070      14.699    
  19.547      14.828      11.310      9.3495      8.4807      7.9154      7.5633      7.4467      7.5631      7.9158    
  8.4823      9.3510      11.310      14.825      19.543      24.409      28.076      29.441      28.078      24.412    
  32.610      24.508      17.292      12.231      9.5646      8.5086      7.9157      7.6030      7.6029      7.9158    
  8.5092      9.5647      12.229      17.289      24.506      32.610      39.685      43.818      43.816      39.682    
  50.998      39.733      28.227      18.773      12.585      9.5652      8.4823      7.9281      7.7329      7.9281    
  8.4823      9.5647      12.584      18.771      28.227      39.736      51.004      59.289      62.341      59.285    
  72.530      59.296      43.884      29.606      18.771      12.230      9.3514      8.4094      7.9705      7.9706    
  8.4094      9.3510      12.229      18.771      29.607      43.886      59.299      72.531      80.222      80.221    
  93.316      80.213      62.351      43.885      28.226      17.289      11.310      9.0273      8.3108      8.0636    
  8.3110      9.0273      11.310      17.289      28.227      43.886      62.350      80.209      93.312      98.145    
  108.57      98.138      80.214      59.300      39.735      24.505      14.825      10.184      8.7063      8.2109    
  8.2110      8.7065      10.184      14.825      24.506      39.736      59.299      80.209      98.133      108.56    
  85.124      80.923      69.521      53.975      37.939      24.446      15.190      10.297      8.5052      7.8617    
  7.6318      7.8618      8.5053      10.297      15.190      24.446      37.939      53.975      69.521      80.923    
  80.925      80.923      73.120      59.691      44.040      29.531      18.509      11.848      8.9206      7.9762    
  7.5417      7.5416      7.9761      8.9208      11.849      18.509      29.530      44.041      59.694      73.123    
  69.524      73.143      69.521      59.691      46.294      32.525      21.057      13.361      9.4523      8.0697    
  7.4833      7.2733      7.4831      8.0697      9.4525      13.360      21.056      32.524      46.295      59.693    
  53.974      59.752      59.752      53.975      44.040      32.525      22.013      14.295      9.9180      8.1520    
  7.4512      7.0789      7.0788      7.4510      8.1522      9.9184      14.295      22.012      32.523      44.039    
  37.935      44.150      46.446      44.153      37.939      29.531      21.057      14.295      10.104      8.2118    
  7.4367      6.9597      6.7969      6.9598      7.4367      8.2120      10.105      14.296      21.057      29.529    
  24.446      29.696      32.782      32.783      29.698      24.446      18.509      13.361      9.9180      8.2118    
  7.4327      6.9051      6.6376      6.6377      6.9052      7.4324      8.2117      9.9191      13.363      18.511    
  15.192      18.721      21.414      22.420      21.413      18.719      15.190      11.848      9.4523      8.1520    
  7.4367      6.9051      6.5871      6.4837      6.5873      6.9049      7.4357      8.1510      9.4525      11.850    
  10.297      12.080      13.779      14.816      14.815      13.777      12.078      10.297      8.9206      8.0697    
  7.4512      6.9597      6.6376      6.4837      6.4839      6.6380      6.9596      7.4501      8.0678      8.9190    
  8.5026      9.1465      9.8841      10.493      10.729      10.492      9.8841      9.1482      8.5052      7.9762    
  7.4833      7.0789      6.7968      6.6377      6.5873      6.6380      6.7976      7.0799      7.4833      7.9744    
  7.8617      8.1911      8.4866      8.7288      8.8773      8.8776      8.7299      8.4885      8.1928      7.8618    
  7.5417      7.2733      7.0788      6.9597      6.9052      6.9049      6.9596      7.0799      7.2754      7.5434    
  7.6343      7.7530      7.8871      8.0142      8.1068      8.1412      8.1077      8.0152      7.8869      7.7513    
  7.6318      7.5416      7.4831      7.4510      7.4367      7.4324      7.4357      7.4500      7.4833      7.5434    
  7.8616      7.7530      7.6735      7.6344      7.6279      7.6335      7.6337      7.6280      7.6333      7.6714    
  7.7514      7.8618      7.9761      8.0697      8.1522      8.2120      8.2117      8.1510      8.0678      7.9744    
  8.5026      8.1911      7.8871      7.6344      7.4641      7.3743      7.3476      7.3741      7.4633      7.6334    
  7.8871      8.1929      8.5053      8.9208      9.4525      9.9184      10.105      9.9191      9.4525      8.9190    
  10.297      9.1465      8.4866      8.0142      7.6279      7.3743      7.2544      7.2542      7.3740      7.6280    
  8.0153      8.4885      9.1481      10.297      11.849      13.360      14.295      14.296      13.363      11.850    
  15.192      12.080      9.8841      8.7288      8.1068      7.6335      7.3476      7.2542      7.3473      7.6337    
  8.1077      8.7297      9.8839      12.078      15.190      18.509      21.056      22.012      21.057      18.511    
  24.446      18.721      13.779      10.493      8.8773      8.1412      7.6337      7.3741      7.3740      7.6337    
  8.1415      8.8774      10.492      13.777      18.719      24.446      29.530      32.524      32.523      29.529    
  37.935      29.696      21.414      14.816      10.729      8.8776      8.1077      7.6280      7.4633      7.6280    
  8.1077      8.8774      10.728      14.815      21.414      29.698      37.939      44.041      46.295      44.039    
  53.974      44.150      32.782      22.420      14.815      10.492      8.7299      8.0152      7.6333      7.6334    
  8.0153      8.7297      10.492      14.815      22.421      32.784      44.152      53.975      59.694      59.693    
  69.524      59.752      46.446      32.783      21.413      13.777      9.8841      8.4885      7.8869      7.6714    
  7.8871      8.4885      9.8839      13.777      21.414      32.784      46.445      59.749      69.521      73.123    
  80.925      73.143      59.752      44.153      29.698      18.719      12.078      9.1482      8.1928      7.7513    
  7.7514      8.1929      9.1481      12.078      18.719      29.698      44.152      59.749      73.139      80.923    
  56.429      53.633      46.052      35.773      25.334      16.846      11.392      8.7994      7.8440      7.3126    
  7.1272      7.3126      7.8440      8.7994      11.392      16.846      25.334      35.773      46.052      53.633    
  53.633      53.633      48.427      39.501      29.212      19.912      13.194      9.4817      8.0100      7.3519    
  6.9991      6.9990      7.3518      8.0102      9.4819      13.194      19.911      29.212      39.503      48.429    
  46.053      48.472      46.052      39.501      30.654      21.747      14.628      10.193      8.1781      7.3833    
  6.9026      6.7375      6.9023      7.3833      8.1783      10.193      14.628      21.746      30.655      39.503    
  35.772      39.620      39.620      35.773      29.212      21.747      15.175      10.651      8.3326      7.4000    
  6.8370      6.5453      6.5452      6.8369      7.4000      8.3327      10.651      15.174      21.746      29.211    
  25.332      29.411      30.929      29.413      25.334      19.912      14.628      10.651      8.3971      7.4054    
  6.7994      6.4240      6.3000      6.4240      6.7994      7.4054      8.3974      10.651      14.628      19.911    
  16.846      20.180      22.173      22.173      20.181      16.846      13.194      10.193      8.3326      7.4054    
  6.7872      6.3665      6.1617      6.1619      6.3666      6.7871      7.4053      8.3332      10.195      13.195    
  11.393      13.506      15.165      15.794      15.165      13.505      11.392      9.4817      8.1781      7.4000    
  6.7994      6.3665      6.1177      6.0384      6.1179      6.3665      6.7989      7.3995      8.1783      9.4827    
  8.7993      9.8020      10.782      11.393      11.392      10.781      9.8011      8.7994      8.0100      7.3833    
  6.8370      6.4240      6.1617      6.0384      6.0385      6.1619      6.4239      6.8364      7.3823      8.0091    
  7.8425      8.3167      8.7654      9.1179      9.2536      9.1174      8.7654      8.3177      7.8440      7.3519    
  6.9026      6.5453      6.3000      6.1619      6.1179      6.1619      6.3002      6.5458      6.9026      7.3509    
  7.3125      7.6427      7.9461      8.1776      8.3024      8.3025      8.1781      7.9471      7.6436      7.3126    
  6.9991      6.7375      6.5453      6.4240      6.3667      6.3665      6.4239      6.5458      6.7387      7.0000    
  7.1286      7.2822      7.4455      7.5943      7.6998      7.7383      7.7003      7.5947      7.4453      7.2812    
  7.1272      6.9990      6.9024      6.8369      6.7994      6.7871      6.7989      6.8364      6.9026      7.0000    
  7.3125      7.2822      7.2736      7.2896      7.3184      7.3405      7.3407      7.3185      7.2890      7.2725    
  7.2813      7.3126      7.3518      7.3833      7.4000      7.4054      7.4053      7.3995      7.3823      7.3509    
  7.8425      7.6427      7.4455      7.2896      7.1913      7.1437      7.1306      7.1437      7.1910      7.2891    
  7.4455      7.6437      7.8440      8.0102      8.1783      8.3327      8.3974      8.3332      8.1783      8.0091    
  8.7993      8.3167      7.9461      7.5943      7.3184      7.1437      7.0632      7.0632      7.1436      7.3185    
  7.5949      7.9471      8.3176      8.7994      9.4819      10.193      10.651      10.651      10.195      9.4827    
  11.393      9.8020      8.7654      8.1776      7.6998      7.3405      7.1306      7.0632      7.1304      7.3405    
  7.7003      8.1781      8.7652      9.8009      11.392      13.194      14.628      15.174      14.628      13.195    
  16.846      13.506      10.782      9.1179      8.3024      7.7383      7.3407      7.1437      7.1436      7.3405    
  7.7385      8.3025      9.1173      10.781      13.505      16.846      19.911      21.746      21.746      19.911    
  25.332      20.180      15.165      11.393      9.2536      8.3025      7.7003      7.3185      7.1910      7.3185    
  7.7003      8.3025      9.2534      11.392      15.165      20.181      25.334      29.212      30.655      29.211    
  35.772      29.411      22.173      15.794      11.392      9.1174      8.1781      7.5947      7.2890      7.2891    
  7.5949      8.1781      9.1173      11.392      15.795      22.174      29.412      35.773      39.503      39.503    
  46.053      39.620      30.929      22.173      15.165      10.781      8.7654      7.9471      7.4453      7.2725    
  7.4455      7.9471      8.7652      10.781      15.165      22.174      30.928      39.618      46.052      48.429    
  53.633      48.472      39.620      29.413      20.181      13.505      9.8011      8.3177      7.6436      7.2812    
  7.2813      7.6437      8.3176      9.8009      13.505      20.181      29.412      39.618      48.470      53.633    
  33.362      31.738      27.367      21.546      15.843      11.502      8.9956      7.8917      7.2520      6.8466    
  6.7111      6.8466      7.2520      7.8917      8.9956      11.502      15.843      21.546      27.367      31.738    
  31.738      31.738      28.715      23.598      17.857      12.928      9.6681      8.0668      7.3177      6.8036    
  6.5428      6.5428      6.8035      7.3178      8.0670      9.6683      12.928      17.857      23.598      28.716    
  27.368      28.773      27.367      23.598      18.617      13.810      10.241      8.2508      7.3531      6.7668    
  6.4059      6.2867      6.4057      6.7668      7.3532      8.2510      10.241      13.810      18.617      23.598    
  21.546      23.749      23.749      21.546      17.857      13.810      10.466      8.3781      7.3642      6.7364    
  6.3048      6.0932      6.0932      6.3047      6.7364      7.3642      8.3780      10.466      13.810      17.857    
  15.843      18.108      18.963      18.109      15.843      12.928      10.241      8.3781      7.3667      6.7182    
  6.2426      5.9660      5.8772      5.9661      6.2426      6.7182      7.3666      8.3782      10.241      12.927    
  11.502      13.258      14.336      14.336      13.259      11.502      9.6681      8.2509      7.3642      6.7182    
  6.2215      5.9034      5.7536      5.7537      5.9036      6.2216      6.7182      7.3644      8.2514      9.6686    
  8.9961      10.044      10.892      11.220      10.892      10.043      8.9956      8.0668      7.3531      6.7364    
  6.2426      5.9034      5.7137      5.6538      5.7138      5.9035      6.2425      6.7363      7.3532      8.0673    
  7.8916      8.4533      8.9609      9.2738      9.2736      8.9606      8.4530      7.8917      7.3177      6.7668    
  6.3048      5.9660      5.7536      5.6538      5.6538      5.7536      5.9659      6.3046      6.7665      7.3173    
  7.2513      7.6953      8.0708      8.3211      8.4099      8.3209      8.0708      7.6958      7.2520      6.8036    
  6.4059      6.0932      5.8772      5.7537      5.7138      5.7536      5.8772      6.0934      6.4059      6.8031    
  6.8466      7.1693      7.4706      7.7051      7.8336      7.8335      7.7052      7.4709      7.1696      6.8466    
  6.5428      6.2867      6.0932      5.9661      5.9036      5.9035      5.9659      6.0934      6.2872      6.5432    
  6.7117      6.9016      7.0955      7.2671      7.3865      7.4296      7.3867      7.2671      7.0953      6.9012    
  6.7111      6.5428      6.4057      6.3047      6.2426      6.2216      6.2425      6.3046      6.4059      6.5432    
  6.8466      6.9016      6.9711      7.0489      7.1192      7.1615      7.1616      7.1193      7.0487      6.9706    
  6.9013      6.8466      6.8035      6.7668      6.7364      6.7182      6.7182      6.7363      6.7665      6.8031    
  7.2513      7.1693      7.0955      7.0489      7.0324      7.0337      7.0367      7.0338      7.0324      7.0488    
  7.0955      7.1697      7.2520      7.3178      7.3532      7.3642      7.3667      7.3644      7.3532      7.3173    
  7.8916      7.6954      7.4706      7.2671      7.1192      7.0337      6.9978      6.9978      7.0337      7.1192    
  7.2673      7.4710      7.6957      7.8917      8.0670      8.2510      8.3780      8.3782      8.2514      8.0673    
  8.9961      8.4533      8.0708      7.7051      7.3865      7.1615      7.0367      6.9978      7.0365      7.1614    
  7.3867      7.7053      8.0706      8.4528      8.9956      9.6683      10.241      10.466      10.241      9.6686    
  11.502      10.044      8.9609      8.3211      7.8336      7.4296      7.1616      7.0338      7.0337      7.1614    
  7.4296      7.8336      8.3209      8.9604      10.043      11.502      12.928      13.810      13.810      12.927    
  15.843      13.258      10.892      9.2738      8.4099      7.8335      7.3867      7.1193      7.0324      7.1192    
  7.3867      7.8336      8.4100      9.2737      10.892      13.259      15.843      17.857      18.617      17.857    
  21.546      18.108      14.336      11.220      9.2736      8.3209      7.7052      7.2671      7.0487      7.0488    
  7.2673      7.7053      8.3209      9.2737      11.220      14.336      18.108      21.546      23.598      23.598    
  27.368      23.749      18.963      14.336      10.892      8.9606      8.0708      7.4709      7.0953      6.9706    
  7.0955      7.4710      8.0706      8.9604      10.892      14.336      18.963      23.748      27.367      28.716    
  31.738      28.773      23.749      18.109      13.259      10.043      8.4530      7.6958      7.1696      6.9012    
  6.9013      7.1697      7.6957      8.4528      10.043      13.259      18.108      23.748      28.772      31.738    
  18.240      17.470      15.435      12.827      10.441      8.7994      7.8975      7.2764      6.8068      6.5291    
  6.4391      6.5291      6.8068      7.2764      7.8975      8.7994      10.441      12.827      15.435      17.470    
  17.470      17.470      16.041      13.686      11.180      9.2034      8.0147      7.3160      6.7687      6.4026    
  6.2258      6.2258      6.4026      6.7688      7.3161      8.0148      9.2034      11.180      13.686      16.041    
  15.436      16.100      15.435      13.686      11.469      9.4720      8.1181      7.3317      6.7345      6.2998    