       N       E                     dE             d eps       ncg     rms          rms(c)
DAV:   1     0.597720594594E+02    0.59772E+02   -0.23743E+03  9624   0.334E+02
DAV:   2    -0.141595969604E+02   -0.73932E+02   -0.62873E+02  7920   0.980E+01
DAV:   3    -0.182439824347E+02   -0.40844E+01   -0.39254E+01  9600   0.238E+01
DAV:   4    -0.182574928226E+02   -0.13510E-01   -0.13505E-01  8688   0.143E+00
DAV:   5    -0.182575003078E+02   -0.74852E-05   -0.74848E-05  9344   0.324E-02    0.207E+01
DAV:   6    -0.157118270295E+02    0.25457E+01   -0.12378E+00 11312   0.209E+01    0.175E+00
DAV:   7    -0.156021033689E+02    0.10972E+00   -0.46361E-02  9576   0.272E+00    0.170E+00
DAV:   8    -0.155617310087E+02    0.40372E-01   -0.21859E-03 10568   0.283E-01    0.519E-01
DAV:   9    -0.155572046737E+02    0.45263E-02   -0.58005E-04 10296   0.137E-01    0.775E-02
DAV:  10    -0.155571525714E+02    0.52102E-04   -0.16909E-05  8496   0.201E-02    0.227E-02
DAV:  11    -0.155571338746E+02    0.18697E-04   -0.35909E-07  8280   0.371E-03    0.149E-03
DAV:  12    -0.155571326687E+02    0.12059E-05   -0.70869E-08  6072   0.117E-03    0.119E-03
DAV:  13    -0.155571330801E+02   -0.41137E-06   -0.73129E-09  5088   0.395E-04
   1 F= -.15557133E+02 E0= -.15557238E+02  d E =0.314886E-03
