 vasp.6.2.0 18Jan21 (build Mar 17 2021 09:06:54) complex                        
  
 executed on             LinuxIFC date 2021.09.09  11:59:31
 serial version


--------------------------------------------------------------------------------------------------------


 INCAR:
   ENCUT = 280.000000
   SIGMA = 0.200000
   EDIFF = 1.00e-06
   GGA = PE
   PREC = normal
   IBRION = 1
   ICHARG = 1
   ISIF = 2
   ISMEAR = 1
   KPAR = 1
   NBANDS = 40
   NSW = 0
   NCORE = 1
   LCHARG = .TRUE.

 POTCAR:    PAW_PBE Fe 06Sep2000                  
 POTCAR:    PAW_PBE Fe 06Sep2000                  
   SHA256 =  cd5a22d9368cc8b5cc476bea79732366149640da08ac9009b0e1b7fc627eea28 Fe/POTCAR             
   COPYR  = (c) Copyright 06Sep2000 Georg Kresse                                                    
   COPYR  = This file is part of the software VASP. Any use, copying, and all other rights are regul
   COPYR  = If you do not have a valid VASP license, you may not use, copy or distribute this file. 
   VRHFIN =Fe:  d7 s1                                                                               
   LEXCH  = PE                                                                                      
   EATOM  =   594.3153 eV,   43.6809 Ry                                                             
                                                                                                    
   TITEL  = PAW_PBE Fe 06Sep2000                                                                    
   LULTRA =        F    use ultrasoft PP ?                                                          
   IUNSCR =        1    unscreen: 0-lin 1-nonlin 2-no                                               
   RPACOR =    2.000    partial core radius                                                         
   POMASS =   55.847; ZVAL   =    8.000    mass and valenz                                          
   RCORE  =    2.300    outmost cutoff radius                                                       
   RWIGS  =    2.460; RWIGS  =    1.302    wigner-seitz radius (au A)                               
   ENMAX  =  267.882; ENMIN  =  200.911 eV                                                          
   RCLOC  =    1.701    cutoff for local pot                                                        
   LCOR   =        T    correct aug charges                                                         
   LPAW   =        T    paw PP                                                                      
   EAUG   =  511.368                                                                                
   DEXC   =    0.000                                                                                
   RMAX   =    2.356    core radius for proj-oper                                                   
   RAUG   =    1.300    factor for augmentation sphere                                              
   RDEP   =    2.442    radius for radial grids                                                     
   RDEPT  =    1.890    core radius for aug-charge                                                  
                                                                                                    
   Atomic configuration                                                                             
    9 entries                                                                                       
     n  l   j            E        occ.                                                              
     1  0  0.50     -6993.8440   2.0000                                                             
     2  0  0.50      -814.6047   2.0000                                                             
     2  1  1.50      -693.3689   6.0000                                                             
     3  0  0.50       -89.4732   2.0000                                                             
     3  1  1.50       -55.6373   6.0000                                                             
     3  2  2.50        -3.8151   7.0000                                                             
     4  0  0.50        -4.2551   1.0000                                                             
     4  1  1.50        -3.4015   0.0000                                                             
     4  3  2.50        -1.3606   0.0000                                                             
   Description                                                                                      
     l       E           TYP  RCUT    TYP  RCUT                                                     
     2     -3.8151135     23  2.300                                                                 
     2     -5.1756961     23  2.300                                                                 
     0     -4.2550963     23  2.300                                                                 
     0      7.2035603     23  2.300                                                                 
     1     -2.7211652     23  2.300                                                                 
     1     18.4316424     23  2.300                                                                 
  local pseudopotential read in
  partial core-charges read in
  partial kinetic energy density read in
  atomic valenz-charges read in
  non local Contribution for L=           2  read in
    real space projection operators read in
  non local Contribution for L=           2  read in
    real space projection operators read in
  non local Contribution for L=           0  read in
    real space projection operators read in
  non local Contribution for L=           0  read in
    real space projection operators read in
  non local Contribution for L=           1  read in
    real space projection operators read in
  non local Contribution for L=           1  read in
    real space projection operators read in
    PAW grid and wavefunctions read in
 
   number of l-projection  operators is LMAX  =           6
   number of lm-projection operators is LMMAX =          18
 
  PAW_PBE Fe 06Sep2000                  :
 energy of atom  1       EATOM= -594.3153
 kinetic energy error for atom=    0.0278 (will be added to EATOM!!)
 
 
 POSCAR: Fe
  positions in cartesian coordinates
  No initial velocities read in
 exchange correlation table for  LEXCH =        8
   RHO(1)=    0.500       N(1)  =     2000
   RHO(2)=  100.500       N(2)  =     4000
 


--------------------------------------------------------------------------------------------------------


 ion  position               nearest neighbor table
   1  0.000  0.000  0.000-   2 2.35   2 2.35   2 2.35   2 2.35   2 2.35   2 2.35
   2  0.333  0.667  0.500-   1 2.35   1 2.35   1 2.35   1 2.35   1 2.35   1 2.35
 
  LATTYP: Found a hexagonal cell.
 ALAT       =     2.2601000000
 C/A-ratio  =     1.7244635193
  
  Lattice vectors:
  
 A1 = (   2.2601000000,   0.0000000000,   0.0000000000)
 A2 = (  -1.1300500000,   1.9573040151,   0.0000000000)
 A3 = (   0.0000000000,   0.0000000000,   3.8974600000)


Analysis of symmetry for initial positions (statically):
=====================================================================
 Subroutine PRICEL returns:
 Original cell was already a primitive cell.
 

 Routine SETGRP: Setting up the symmetry group for a 
 hexagonal supercell.


 Subroutine GETGRP returns: Found 24 space group operations
 (whereof 12 operations were pure point group operations)
 out of a pool of 24 trial point group operations.


The static configuration has the point symmetry D_3h.
 The point group associated with its full space group is D_6h.


Analysis of symmetry for dynamics (positions and initial velocities):
=====================================================================
 Subroutine PRICEL returns:
 Original cell was already a primitive cell.
 

 Routine SETGRP: Setting up the symmetry group for a 
 hexagonal supercell.


 Subroutine GETGRP returns: Found 24 space group operations
 (whereof 12 operations were pure point group operations)
 out of a pool of 24 trial point group operations.


The dynamic configuration has the point symmetry D_3h.
 The point group associated with its full space group is D_6h.


 Subroutine INISYM returns: Found 24 space group operations
 (whereof 12 operations are pure point group operations),
 and found     1 'primitive' translations


----------------------------------------------------------------------------------------

                                     Primitive cell                                     

  volume of cell :      17.2412

  direct lattice vectors                    reciprocal lattice vectors
     2.260100000  0.000000000  0.000000000     0.442458298  0.255453418  0.000000000
    -1.130050000  1.957304015  0.000000000     0.000000000  0.510906835  0.000000000
     0.000000000  0.000000000  3.897460000     0.000000000  0.000000000  0.256577361

  length of vectors
     2.260100000  2.260100000  3.897460000     0.510906835  0.510906835  0.256577361

  position of ions in fractional coordinates (direct lattice)
     0.000000000  0.000000000  0.000000000
     0.333333333  0.666666667  0.500000000

  ion indices of the primitive-cell ions
   primitive index   ion index
                 1           1
                 2           2

----------------------------------------------------------------------------------------

 
 
 KPOINTS: KPOINTS created by Atomic Simulation Env

Automatic generation of k-mesh.
 Grid dimensions read from file:
 generate k-points for:   11   11   11

 Generating k-lattice:

  Cartesian coordinates                     Fractional coordinates (reciprocal lattice)
     0.040223482  0.023223038  0.000000000     0.090909091  0.000000000  0.000000000
     0.000000000  0.046446076  0.000000000     0.000000000  0.090909091  0.000000000
     0.000000000  0.000000000  0.023325215     0.000000000  0.000000000  0.090909091

  Length of vectors
     0.046446076  0.046446076  0.023325215

  Shift w.r.t. Gamma in fractional coordinates (k-lattice)
     0.000000000  0.000000000  0.000000000

 
 Subroutine IBZKPT returns following result:
 ===========================================
 
 Found     96 irreducible k-points:
 
 Following reciprocal coordinates:
            Coordinates               Weight
  0.000000  0.000000  0.000000      1.000000
  0.090909  0.000000  0.000000      6.000000
  0.181818 -0.000000  0.000000      6.000000
  0.272727  0.000000  0.000000      6.000000
  0.363636  0.000000  0.000000      6.000000
  0.454545 -0.000000  0.000000      6.000000
  0.090909  0.090909  0.000000      6.000000
  0.181818  0.090909  0.000000     12.000000
  0.272727  0.090909  0.000000     12.000000
  0.363636  0.090909  0.000000     12.000000
  0.454545  0.090909  0.000000      6.000000
  0.181818  0.181818  0.000000      6.000000
  0.272727  0.181818  0.000000     12.000000
  0.363636  0.181818  0.000000     12.000000
  0.272727  0.272727  0.000000      6.000000
  0.363636  0.272727  0.000000      6.000000
  0.000000  0.000000  0.090909      2.000000
  0.090909  0.000000  0.090909     12.000000
  0.181818 -0.000000  0.090909     12.000000
  0.272727  0.000000  0.090909     12.000000
  0.363636  0.000000  0.090909     12.000000
  0.454545 -0.000000  0.090909     12.000000
  0.090909  0.090909  0.090909     12.000000
  0.181818  0.090909  0.090909     24.000000
  0.272727  0.090909  0.090909     24.000000
  0.363636  0.090909  0.090909     24.000000
  0.454545  0.090909  0.090909     12.000000
  0.181818  0.181818  0.090909     12.000000
  0.272727  0.181818  0.090909     24.000000
  0.363636  0.181818  0.090909     24.000000
  0.272727  0.272727  0.090909     12.000000
  0.363636  0.272727  0.090909     12.000000
  0.000000  0.000000  0.181818      2.000000
  0.090909  0.000000  0.181818     12.000000
  0.181818 -0.000000  0.181818     12.000000
  0.272727  0.000000  0.181818     12.000000
  0.363636  0.000000  0.181818     12.000000
  0.454545 -0.000000  0.181818     12.000000
  0.090909  0.090909  0.181818     12.000000
  0.181818  0.090909  0.181818     24.000000
  0.272727  0.090909  0.181818     24.000000
  0.363636  0.090909  0.181818     24.000000
  0.454545  0.090909  0.181818     12.000000
  0.181818  0.181818  0.181818     12.000000
  0.272727  0.181818  0.181818     24.000000
  0.363636  0.181818  0.181818     24.000000
  0.272727  0.272727  0.181818     12.000000
  0.363636  0.272727  0.181818     12.000000
  0.000000  0.000000  0.272727      2.000000
  0.090909  0.000000  0.272727     12.000000
  0.181818 -0.000000  0.272727     12.000000
  0.272727  0.000000  0.272727     12.000000
  0.363636  0.000000  0.272727     12.000000
  0.454545 -0.000000  0.272727     12.000000
  0.090909  0.090909  0.272727     12.000000
  0.181818  0.090909  0.272727     24.000000
  0.272727  0.090909  0.272727     24.000000
  0.363636  0.090909  0.272727     24.000000
  0.454545  0.090909  0.272727     12.000000
  0.181818  0.181818  0.272727     12.000000
  0.272727  0.181818  0.272727     24.000000
  0.363636  0.181818  0.272727     24.000000
  0.272727  0.272727  0.272727     12.000000
  0.363636  0.272727  0.272727     12.000000
  0.000000  0.000000  0.363636      2.000000
  0.090909  0.000000  0.363636     12.000000
  0.181818 -0.000000  0.363636     12.000000
  0.272727  0.000000  0.363636     12.000000
  0.363636  0.000000  0.363636     12.000000
  0.454545 -0.000000  0.363636     12.000000
  0.090909  0.090909  0.363636     12.000000
  0.181818  0.090909  0.363636     24.000000
  0.272727  0.090909  0.363636     24.000000
  0.363636  0.090909  0.363636     24.000000
  0.454545  0.090909  0.363636     12.000000
  0.181818  0.181818  0.363636     12.000000
  0.272727  0.181818  0.363636     24.000000
  0.363636  0.181818  0.363636     24.000000
  0.272727  0.272727  0.363636     12.000000
  0.363636  0.272727  0.363636     12.000000
  0.000000  0.000000  0.454545      2.000000
  0.090909  0.000000  0.454545     12.000000
  0.181818 -0.000000  0.454545     12.000000
  0.272727  0.000000  0.454545     12.000000
  0.363636  0.000000  0.454545     12.000000
  0.454545 -0.000000  0.454545     12.000000
  0.090909  0.090909  0.454545     12.000000
  0.181818  0.090909  0.454545     24.000000
  0.272727  0.090909  0.454545     24.000000
  0.363636  0.090909  0.454545     24.000000
  0.454545  0.090909  0.454545     12.000000
  0.181818  0.181818  0.454545     12.000000
  0.272727  0.181818  0.454545     24.000000
  0.363636  0.181818  0.454545     24.000000
  0.272727  0.272727  0.454545     12.000000
  0.363636  0.272727  0.454545     12.000000
 
 Following cartesian coordinates:
            Coordinates               Weight
  0.000000  0.000000  0.000000      1.000000
  0.040223  0.023223  0.000000      6.000000
  0.080447  0.046446  0.000000      6.000000
  0.120670  0.069669  0.000000      6.000000
  0.160894  0.092892  0.000000      6.000000
  0.201117  0.116115  0.000000      6.000000
  0.040223  0.069669  0.000000      6.000000
  0.080447  0.092892  0.000000     12.000000
  0.120670  0.116115  0.000000     12.000000
  0.160894  0.139338  0.000000     12.000000
  0.201117  0.162561  0.000000      6.000000
  0.080447  0.139338  0.000000      6.000000
  0.120670  0.162561  0.000000     12.000000
  0.160894  0.185784  0.000000     12.000000
  0.120670  0.209007  0.000000      6.000000
  0.160894  0.232230  0.000000      6.000000
  0.000000  0.000000  0.023325      2.000000
  0.040223  0.023223  0.023325     12.000000
  0.080447  0.046446  0.023325     12.000000
  0.120670  0.069669  0.023325     12.000000
  0.160894  0.092892  0.023325     12.000000
  0.201117  0.116115  0.023325     12.000000
  0.040223  0.069669  0.023325     12.000000
  0.080447  0.092892  0.023325     24.000000
  0.120670  0.116115  0.023325     24.000000
  0.160894  0.139338  0.023325     24.000000
  0.201117  0.162561  0.023325     12.000000
  0.080447  0.139338  0.023325     12.000000
  0.120670  0.162561  0.023325     24.000000
  0.160894  0.185784  0.023325     24.000000
  0.120670  0.209007  0.023325     12.000000
  0.160894  0.232230  0.023325     12.000000
  0.000000  0.000000  0.046650      2.000000
  0.040223  0.023223  0.046650     12.000000
  0.080447  0.046446  0.046650     12.000000
  0.120670  0.069669  0.046650     12.000000
  0.160894  0.092892  0.046650     12.000000
  0.201117  0.116115  0.046650     12.000000
  0.040223  0.069669  0.046650     12.000000
  0.080447  0.092892  0.046650     24.000000
  0.120670  0.116115  0.046650     24.000000
  0.160894  0.139338  0.046650     24.000000
  0.201117  0.162561  0.046650     12.000000
  0.080447  0.139338  0.046650     12.000000
  0.120670  0.162561  0.046650     24.000000
  0.160894  0.185784  0.046650     24.000000
  0.120670  0.209007  0.046650     12.000000
  0.160894  0.232230  0.046650     12.000000
  0.000000  0.000000  0.069976      2.000000
  0.040223  0.023223  0.069976     12.000000
  0.080447  0.046446  0.069976     12.000000
  0.120670  0.069669  0.069976     12.000000
  0.160894  0.092892  0.069976     12.000000
  0.201117  0.116115  0.069976     12.000000
  0.040223  0.069669  0.069976     12.000000
  0.080447  0.092892  0.069976     24.000000
  0.120670  0.116115  0.069976     24.000000
  0.160894  0.139338  0.069976     24.000000
  0.201117  0.162561  0.069976     12.000000
  0.080447  0.139338  0.069976     12.000000
  0.120670  0.162561  0.069976     24.000000
  0.160894  0.185784  0.069976     24.000000
  0.120670  0.209007  0.069976     12.000000
  0.160894  0.232230  0.069976     12.000000
  0.000000  0.000000  0.093301      2.000000
  0.040223  0.023223  0.093301     12.000000
  0.080447  0.046446  0.093301     12.000000
  0.120670  0.069669  0.093301     12.000000
  0.160894  0.092892  0.093301     12.000000
  0.201117  0.116115  0.093301     12.000000
  0.040223  0.069669  0.093301     12.000000
  0.080447  0.092892  0.093301     24.000000
  0.120670  0.116115  0.093301     24.000000
  0.160894  0.139338  0.093301     24.000000
  0.201117  0.162561  0.093301     12.000000
  0.080447  0.139338  0.093301     12.000000
  0.120670  0.162561  0.093301     24.000000
  0.160894  0.185784  0.093301     24.000000
  0.120670  0.209007  0.093301     12.000000
  0.160894  0.232230  0.093301     12.000000
  0.000000  0.000000  0.116626      2.000000
  0.040223  0.023223  0.116626     12.000000
  0.080447  0.046446  0.116626     12.000000
  0.120670  0.069669  0.116626     12.000000
  0.160894  0.092892  0.116626     12.000000
  0.201117  0.116115  0.116626     12.000000
  0.040223  0.069669  0.116626     12.000000
  0.080447  0.092892  0.116626     24.000000
  0.120670  0.116115  0.116626     24.000000
  0.160894  0.139338  0.116626     24.000000
  0.201117  0.162561  0.116626     12.000000
  0.080447  0.139338  0.116626     12.000000
  0.120670  0.162561  0.116626     24.000000
  0.160894  0.185784  0.116626     24.000000
  0.120670  0.209007  0.116626     12.000000
  0.160894  0.232230  0.116626     12.000000
 


--------------------------------------------------------------------------------------------------------




 Dimension of arrays:
   k-points           NKPTS =     96   k-points in BZ     NKDIM =     96   number of bands    NBANDS=     40
   number of dos      NEDOS =    301   number of ions     NIONS =      2
   non local maximal  LDIM  =      6   non local SUM 2l+1 LMDIM =     18
   total plane-waves  NPLWV =   1600
   max r-space proj   IRMAX =      1   max aug-charges    IRDMAX=   3505
   dimension x,y,z NGX =    10 NGY =   10 NGZ =   16
   dimension x,y,z NGXF=    20 NGYF=   20 NGZF=   32
   support grid    NGXF=    20 NGYF=   20 NGZF=   32
   ions per type =               2
   NGX,Y,Z   is equivalent  to a cutoff of   7.36,  7.36,  6.82 a.u.
   NGXF,Y,Z  is equivalent  to a cutoff of  14.71, 14.71, 13.65 a.u.

 SYSTEM =  unknown system                          
 POSCAR =  Fe                                      

 Startparameter for this run:
   NWRITE =      2    write-flag & timer
   PREC   = normal    normal or accurate (medium, high low for compatibility)
   ISTART =      0    job   : 0-new  1-cont  2-samecut
   ICHARG =      1    charge: 1-file 2-atom 10-const
   ISPIN  =      1    spin polarized calculation?
   LNONCOLLINEAR =      F non collinear calculations
   LSORBIT =      F    spin-orbit coupling
   INIWAV =      1    electr: 0-lowe 1-rand  2-diag
   LASPH  =      F    aspherical Exc in radial PAW
   METAGGA=      F    non-selfconsistent MetaGGA calc.

 Electronic Relaxation 1
   ENCUT  =  280.0 eV  20.58 Ry    4.54 a.u.   3.08  3.08  5.32*2*pi/ulx,y,z
   ENINI  =  280.0     initial cutoff
   ENAUG  =  511.4 eV  augmentation charge cutoff
   NELM   =     60;   NELMIN=  2; NELMDL= -5     # of ELM steps 
   EDIFF  = 0.1E-05   stopping-criterion for ELM
   LREAL  =      F    real-space projection
   NLSPLINE    = F    spline interpolate recip. space projectors
   LCOMPAT=      F    compatible to vasp.4.4
   GGA_COMPAT  = T    GGA compatible to vasp.4.4-vasp.4.6
   LMAXPAW     = -100 max onsite density
   LMAXMIX     =    2 max onsite mixed and CHGCAR
   VOSKOWN=      0    Vosko Wilk Nusair interpolation
   ROPT   =    0.00000
 Ionic relaxation
   EDIFFG = 0.1E-04   stopping-criterion for IOM
   NSW    =      0    number of steps for IOM
   NBLOCK =      1;   KBLOCK =      1    inner block; outer block 
   IBRION =     -1    ionic relax: 0-MD 1-quasi-New 2-CG
   NFREE  =      0    steps in history (QN), initial steepest desc. (CG)
   ISIF   =      2    stress and relaxation
   IWAVPR =      0    prediction:  0-non 1-charg 2-wave 3-comb
   ISYM   =      2    0-nonsym 1-usesym 2-fastsym
   LCORR  =      T    Harris-Foulkes like correction to forces

   POTIM  = 0.5000    time-step for ionic-motion
   TEIN   =    0.0    initial temperature
   TEBEG  =    0.0;   TEEND  =   0.0 temperature during run
   SMASS  =  -3.00    Nose mass-parameter (am)
   estimated Nose-frequenzy (Omega)   =  0.10E-29 period in steps = 0.13E+47 mass=  -0.117E-27a.u.
   SCALEE = 1.0000    scale energy and forces
   NPACO  =    256;   APACO  = 16.0  distance and # of slots for P.C.
   PSTRESS=    0.0 pullay stress

  Mass of Ions in am
   POMASS =  55.85
  Ionic Valenz
   ZVAL   =   8.00
  Atomic Wigner-Seitz radii
   RWIGS  =  -1.00
  virtual crystal weights 
   VCA    =   1.00
   NELECT =      16.0000    total number of electrons
   NUPDOWN=      -1.0000    fix difference up-down

 DOS related values:
   EMIN   =  10.00;   EMAX   =-10.00  energy-range for DOS
   EFERMI =   0.00
   ISMEAR =     1;   SIGMA  =   0.20  broadening in eV -4-tet -1-fermi 0-gaus

 Electronic relaxation 2 (details)
   IALGO  =     38    algorithm
   LDIAG  =      T    sub-space diagonalisation (order eigenvalues)
   LSUBROT=      F    optimize rotation matrix (better conditioning)
   TURBO    =      0    0=normal 1=particle mesh
   IRESTART =      0    0=no restart 2=restart with 2 vectors
   NREBOOT  =      0    no. of reboots
   NMIN     =      0    reboot dimension
   EREF     =   0.00    reference energy to select bands
   IMIX   =      4    mixing-type and parameters
     AMIX     =   0.40;   BMIX     =  1.00
     AMIX_MAG =   1.60;   BMIX_MAG =  1.00
     AMIN     =   0.10
     WC   =   100.;   INIMIX=   1;  MIXPRE=   1;  MAXMIX= -45

 Intra band minimization:
   WEIMIN = 0.0000     energy-eigenvalue tresh-hold
   EBREAK =  0.62E-08  absolut break condition
   DEPER  =   0.30     relativ break condition  

   TIME   =   0.40     timestep for ELM

  volume/ion in A,a.u.               =       8.62        58.17
  Fermi-wavevector in a.u.,A,eV,Ry     =   1.596831  3.017573 34.693077  2.549869
  Thomas-Fermi vector in A             =   2.694532
 
 Write flags
   LWAVE        =      T    write WAVECAR
   LDOWNSAMPLE  =      F    k-point downsampling of WAVECAR
   LCHARG       =      T    write CHGCAR
   LVTOT        =      F    write LOCPOT, total local potential
   LVHAR        =      F    write LOCPOT, Hartree potential only
   LELF         =      F    write electronic localiz. function (ELF)
   LORBIT       =      0    0 simple, 1 ext, 2 COOP (PROOUT), +10 PAW based schemes


 Dipole corrections
   LMONO  =      F    monopole corrections only (constant potential shift)
   LDIPOL =      F    correct potential (dipole corrections)
   IDIPOL =      0    1-x, 2-y, 3-z, 4-all directions 
   EPSILON=  1.0000000 bulk dielectric constant

 Exchange correlation treatment:
   GGA     =    PE    GGA type
   LEXCH   =     8    internal setting for exchange type
   VOSKOWN=      0    Vosko Wilk Nusair interpolation
   LHFCALC =     F    Hartree Fock is set to
   LHFONE  =     F    Hartree Fock one center treatment
   AEXX    =    0.0000 exact exchange contribution

 Linear response parameters
   LEPSILON=     F    determine dielectric tensor
   LRPA    =     F    only Hartree local field effects (RPA)
   LNABLA  =     F    use nabla operator in PAW spheres
   LVEL    =     F    velocity operator in full k-point grid
   LINTERFAST=   F  fast interpolation
   KINTER  =     0    interpolate to denser k-point grid
   CSHIFT  =0.1000    complex shift for real part using Kramers Kronig
   OMEGAMAX=  -1.0    maximum frequency
   DEG_THRESHOLD= 0.2000000E-02 threshold for treating states as degnerate
   RTIME   =   -0.100 relaxation time in fs
  (WPLASMAI=    0.000 imaginary part of plasma frequency in eV, 0.658/RTIME)
   DFIELD  = 0.0000000 0.0000000 0.0000000 field for delta impulse in time
 
 Orbital magnetization related:
   ORBITALMAG=     F  switch on orbital magnetization
   LCHIMAG   =     F  perturbation theory with respect to B field
   DQ        =  0.001000  dq finite difference perturbation B field
   LLRAUG    =     F  two centre corrections for induced B field



--------------------------------------------------------------------------------------------------------


 Static calculation
 charge density and potential will be updated during run
 non-spin polarized calculation
 Variant of blocked Davidson
 Davidson routine will perform the subspace rotation
 perform sub-space diagonalisation
    after iterative eigenvector-optimisation
 modified Broyden-mixing scheme, WC =      100.0
 initial mixing is a Kerker type mixing with AMIX =  0.4000 and BMIX =      1.0000
 Hartree-type preconditioning will be used
 using additional bands           32
 reciprocal scheme for non local part
 use partial core corrections
 calculate Harris-corrections to forces 
   (improved forces if not selfconsistent)
 use gradient corrections 
 use of overlap-Matrix (Vanderbilt PP)
 Methfessel and Paxton  Order N= 1 SIGMA  =   0.20


--------------------------------------------------------------------------------------------------------


  energy-cutoff  :      280.00
  volume of cell :       17.24
      direct lattice vectors                 reciprocal lattice vectors
     2.260100000  0.000000000  0.000000000     0.442458298  0.255453418  0.000000000
    -1.130050000  1.957304015  0.000000000     0.000000000  0.510906835  0.000000000
     0.000000000  0.000000000  3.897460000     0.000000000  0.000000000  0.256577361

  length of vectors
     2.260100000  2.260100000  3.897460000     0.510906835  0.510906835  0.256577361


 
 k-points in units of 2pi/SCALE and weight: KPOINTS created by Atomic Simulation Env
   0.00000000  0.00000000  0.00000000       0.001
   0.04022348  0.02322304  0.00000000       0.005
   0.08044696  0.04644608  0.00000000       0.005
   0.12067044  0.06966911  0.00000000       0.005
   0.16089393  0.09289215  0.00000000       0.005
   0.20111741  0.11611519  0.00000000       0.005
   0.04022348  0.06966911  0.00000000       0.005
   0.08044696  0.09289215  0.00000000       0.009
   0.12067044  0.11611519  0.00000000       0.009
   0.16089393  0.13933823  0.00000000       0.009
   0.20111741  0.16256127  0.00000000       0.005
   0.08044696  0.13933823  0.00000000       0.005
   0.12067044  0.16256127  0.00000000       0.009
   0.16089393  0.18578430  0.00000000       0.009
   0.12067044  0.20900734  0.00000000       0.005
   0.16089393  0.23223038  0.00000000       0.005
   0.00000000  0.00000000  0.02332521       0.002
   0.04022348  0.02322304  0.02332521       0.009
   0.08044696  0.04644608  0.02332521       0.009
   0.12067044  0.06966911  0.02332521       0.009
   0.16089393  0.09289215  0.02332521       0.009
   0.20111741  0.11611519  0.02332521       0.009
   0.04022348  0.06966911  0.02332521       0.009
   0.08044696  0.09289215  0.02332521       0.018
   0.12067044  0.11611519  0.02332521       0.018
   0.16089393  0.13933823  0.02332521       0.018
   0.20111741  0.16256127  0.02332521       0.009
   0.08044696  0.13933823  0.02332521       0.009
   0.12067044  0.16256127  0.02332521       0.018
   0.16089393  0.18578430  0.02332521       0.018
   0.12067044  0.20900734  0.02332521       0.009
   0.16089393  0.23223038  0.02332521       0.009
   0.00000000  0.00000000  0.04665043       0.002
   0.04022348  0.02322304  0.04665043       0.009
   0.08044696  0.04644608  0.04665043       0.009
   0.12067044  0.06966911  0.04665043       0.009
   0.16089393  0.09289215  0.04665043       0.009
   0.20111741  0.11611519  0.04665043       0.009
   0.04022348  0.06966911  0.04665043       0.009
   0.08044696  0.09289215  0.04665043       0.018
   0.12067044  0.11611519  0.04665043       0.018
   0.16089393  0.13933823  0.04665043       0.018
   0.20111741  0.16256127  0.04665043       0.009
   0.08044696  0.13933823  0.04665043       0.009
   0.12067044  0.16256127  0.04665043       0.018
   0.16089393  0.18578430  0.04665043       0.018
   0.12067044  0.20900734  0.04665043       0.009
   0.16089393  0.23223038  0.04665043       0.009
   0.00000000  0.00000000  0.06997564       0.002
   0.04022348  0.02322304  0.06997564       0.009
   0.08044696  0.04644608  0.06997564       0.009
   0.12067044  0.06966911  0.06997564       0.009
   0.16089393  0.09289215  0.06997564       0.009
   0.20111741  0.11611519  0.06997564       0.009
   0.04022348  0.06966911  0.06997564       0.009
   0.08044696  0.09289215  0.06997564       0.018
   0.12067044  0.11611519  0.06997564       0.018
   0.16089393  0.13933823  0.06997564       0.018
   0.20111741  0.16256127  0.06997564       0.009
   0.08044696  0.13933823  0.06997564       0.009
   0.12067044  0.16256127  0.06997564       0.018
   0.16089393  0.18578430  0.06997564       0.018
   0.12067044  0.20900734  0.06997564       0.009
   0.16089393  0.23223038  0.06997564       0.009
   0.00000000  0.00000000  0.09330086       0.002
   0.04022348  0.02322304  0.09330086       0.009
   0.08044696  0.04644608  0.09330086       0.009
   0.12067044  0.06966911  0.09330086       0.009
   0.16089393  0.09289215  0.09330086       0.009
   0.20111741  0.11611519  0.09330086       0.009
   0.04022348  0.06966911  0.09330086       0.009
   0.08044696  0.09289215  0.09330086       0.018
   0.12067044  0.11611519  0.09330086       0.018
   0.16089393  0.13933823  0.09330086       0.018
   0.20111741  0.16256127  0.09330086       0.009
   0.08044696  0.13933823  0.09330086       0.009
   0.12067044  0.16256127  0.09330086       0.018
   0.16089393  0.18578430  0.09330086       0.018
   0.12067044  0.20900734  0.09330086       0.009
   0.16089393  0.23223038  0.09330086       0.009
   0.00000000  0.00000000  0.11662607       0.002
   0.04022348  0.02322304  0.11662607       0.009
   0.08044696  0.04644608  0.11662607       0.009
   0.12067044  0.06966911  0.11662607       0.009
   0.16089393  0.09289215  0.11662607       0.009
   0.20111741  0.11611519  0.11662607       0.009
   0.04022348  0.06966911  0.11662607       0.009
   0.08044696  0.09289215  0.11662607       0.018
   0.12067044  0.11611519  0.11662607       0.018
   0.16089393  0.13933823  0.11662607       0.018
   0.20111741  0.16256127  0.11662607       0.009
   0.08044696  0.13933823  0.11662607       0.009
   0.12067044  0.16256127  0.11662607       0.018
   0.16089393  0.18578430  0.11662607       0.018
   0.12067044  0.20900734  0.11662607       0.009
   0.16089393  0.23223038  0.11662607       0.009
 
 k-points in reciprocal lattice and weights: KPOINTS created by Atomic Simulation Env
   0.00000000  0.00000000  0.00000000       0.001
   0.09090909  0.00000000  0.00000000       0.005
   0.18181818 -0.00000000  0.00000000       0.005
   0.27272727  0.00000000  0.00000000       0.005
   0.36363636  0.00000000  0.00000000       0.005
   0.45454545 -0.00000000  0.00000000       0.005
   0.09090909  0.09090909  0.00000000       0.005
   0.18181818  0.09090909  0.00000000       0.009
   0.27272727  0.09090909  0.00000000       0.009
   0.36363636  0.09090909  0.00000000       0.009
   0.45454545  0.09090909  0.00000000       0.005
   0.18181818  0.18181818  0.00000000       0.005
   0.27272727  0.18181818  0.00000000       0.009
   0.36363636  0.18181818  0.00000000       0.009
   0.27272727  0.27272727  0.00000000       0.005
   0.36363636  0.27272727  0.00000000       0.005
   0.00000000  0.00000000  0.09090909       0.002
   0.09090909  0.00000000  0.09090909       0.009
   0.18181818 -0.00000000  0.09090909       0.009
   0.27272727  0.00000000  0.09090909       0.009
   0.36363636  0.00000000  0.09090909       0.009
   0.45454545 -0.00000000  0.09090909       0.009
   0.09090909  0.09090909  0.09090909       0.009
   0.18181818  0.09090909  0.09090909       0.018
   0.27272727  0.09090909  0.09090909       0.018
   0.36363636  0.09090909  0.09090909       0.018
   0.45454545  0.09090909  0.09090909       0.009
   0.18181818  0.18181818  0.09090909       0.009
   0.27272727  0.18181818  0.09090909       0.018
   0.36363636  0.18181818  0.09090909       0.018
   0.27272727  0.27272727  0.09090909       0.009
   0.36363636  0.27272727  0.09090909       0.009
   0.00000000  0.00000000  0.18181818       0.002
   0.09090909  0.00000000  0.18181818       0.009
   0.18181818 -0.00000000  0.18181818       0.009
   0.27272727  0.00000000  0.18181818       0.009
   0.36363636  0.00000000  0.18181818       0.009
   0.45454545 -0.00000000  0.18181818       0.009
   0.09090909  0.09090909  0.18181818       0.009
   0.18181818  0.09090909  0.18181818       0.018
   0.27272727  0.09090909  0.18181818       0.018
   0.36363636  0.09090909  0.18181818       0.018
   0.45454545  0.09090909  0.18181818       0.009
   0.18181818  0.18181818  0.18181818       0.009
   0.27272727  0.18181818  0.18181818       0.018
   0.36363636  0.18181818  0.18181818       0.018
   0.27272727  0.27272727  0.18181818       0.009
   0.36363636  0.27272727  0.18181818       0.009
   0.00000000  0.00000000  0.27272727       0.002
   0.09090909  0.00000000  0.27272727       0.009
   0.18181818 -0.00000000  0.27272727       0.009
   0.27272727  0.00000000  0.27272727       0.009
   0.36363636  0.00000000  0.27272727       0.009
   0.45454545 -0.00000000  0.27272727       0.009
   0.09090909  0.09090909  0.27272727       0.009
   0.18181818  0.09090909  0.27272727       0.018
   0.27272727  0.09090909  0.27272727       0.018
   0.36363636  0.09090909  0.27272727       0.018
   0.45454545  0.09090909  0.27272727       0.009
   0.18181818  0.18181818  0.27272727       0.009
   0.27272727  0.18181818  0.27272727       0.018
   0.36363636  0.18181818  0.27272727       0.018
   0.27272727  0.27272727  0.27272727       0.009
   0.36363636  0.27272727  0.27272727       0.009
   0.00000000  0.00000000  0.36363636       0.002
   0.09090909  0.00000000  0.36363636       0.009
   0.18181818 -0.00000000  0.36363636       0.009
   0.27272727  0.00000000  0.36363636       0.009
   0.36363636  0.00000000  0.36363636       0.009
   0.45454545 -0.00000000  0.36363636       0.009
   0.09090909  0.09090909  0.36363636       0.009
   0.18181818  0.09090909  0.36363636       0.018
   0.27272727  0.09090909  0.36363636       0.018
   0.36363636  0.09090909  0.36363636       0.018
   0.45454545  0.09090909  0.36363636       0.009
   0.18181818  0.18181818  0.36363636       0.009
   0.27272727  0.18181818  0.36363636       0.018
   0.36363636  0.18181818  0.36363636       0.018
   0.27272727  0.27272727  0.36363636       0.009
   0.36363636  0.27272727  0.36363636       0.009
   0.00000000  0.00000000  0.45454545       0.002
   0.09090909  0.00000000  0.45454545       0.009
   0.18181818 -0.00000000  0.45454545       0.009
   0.27272727  0.00000000  0.45454545       0.009
   0.36363636  0.00000000  0.45454545       0.009
   0.45454545 -0.00000000  0.45454545       0.009
   0.09090909  0.09090909  0.45454545       0.009
   0.18181818  0.09090909  0.45454545       0.018
   0.27272727  0.09090909  0.45454545       0.018
   0.36363636  0.09090909  0.45454545       0.018
   0.45454545  0.09090909  0.45454545       0.009
   0.18181818  0.18181818  0.45454545       0.009
   0.27272727  0.18181818  0.45454545       0.018
   0.36363636  0.18181818  0.45454545       0.018
   0.27272727  0.27272727  0.45454545       0.009
   0.36363636  0.27272727  0.45454545       0.009
 
 position of ions in fractional coordinates (direct lattice) 
   0.00000000  0.00000000  0.00000000
   0.33333333  0.66666667  0.50000000
 
 position of ions in cartesian coordinates  (Angst):
   0.00000000  0.00000000  0.00000000
   0.00000000  1.30486934  1.94873000
 


--------------------------------------------------------------------------------------------------------


 k-point   1 :   0.0000 0.0000 0.0000  plane waves:     173
 k-point   2 :   0.0909 0.0000 0.0000  plane waves:     175
 k-point   3 :   0.1818-0.0000 0.0000  plane waves:     177
 k-point   4 :   0.2727 0.0000 0.0000  plane waves:     189
 k-point   5 :   0.3636 0.0000 0.0000  plane waves:     186
 k-point   6 :   0.4545-0.0000 0.0000  plane waves:     184
 k-point   7 :   0.0909 0.0909 0.0000  plane waves:     177
 k-point   8 :   0.1818 0.0909 0.0000  plane waves:     181
 k-point   9 :   0.2727 0.0909 0.0000  plane waves:     181
 k-point  10 :   0.3636 0.0909 0.0000  plane waves:     185
 k-point  11 :   0.4545 0.0909 0.0000  plane waves:     181
 k-point  12 :   0.1818 0.1818 0.0000  plane waves:     185
 k-point  13 :   0.2727 0.1818 0.0000  plane waves:     186
 k-point  14 :   0.3636 0.1818 0.0000  plane waves:     191
 k-point  15 :   0.2727 0.2727 0.0000  plane waves:     195
 k-point  16 :   0.3636 0.2727 0.0000  plane waves:     189
 k-point  17 :   0.0000 0.0000 0.0909  plane waves:     173
 k-point  18 :   0.0909 0.0000 0.0909  plane waves:     176
 k-point  19 :   0.1818-0.0000 0.0909  plane waves:     175
 k-point  20 :   0.2727 0.0000 0.0909  plane waves:     184
 k-point  21 :   0.3636 0.0000 0.0909  plane waves:     184
 k-point  22 :   0.4545-0.0000 0.0909  plane waves:     186
 k-point  23 :   0.0909 0.0909 0.0909  plane waves:     179
 k-point  24 :   0.1818 0.0909 0.0909  plane waves:     179
 k-point  25 :   0.2727 0.0909 0.0909  plane waves:     181
 k-point  26 :   0.3636 0.0909 0.0909  plane waves:     185
 k-point  27 :   0.4545 0.0909 0.0909  plane waves:     183
 k-point  28 :   0.1818 0.1818 0.0909  plane waves:     183
 k-point  29 :   0.2727 0.1818 0.0909  plane waves:     186
 k-point  30 :   0.3636 0.1818 0.0909  plane waves:     192
 k-point  31 :   0.2727 0.2727 0.0909  plane waves:     192
 k-point  32 :   0.3636 0.2727 0.0909  plane waves:     191
 k-point  33 :   0.0000 0.0000 0.1818  plane waves:     173
 k-point  34 :   0.0909 0.0000 0.1818  plane waves:     179
 k-point  35 :   0.1818-0.0000 0.1818  plane waves:     178
 k-point  36 :   0.2727 0.0000 0.1818  plane waves:     177
 k-point  37 :   0.3636 0.0000 0.1818  plane waves:     186
 k-point  38 :   0.4545-0.0000 0.1818  plane waves:     189
 k-point  39 :   0.0909 0.0909 0.1818  plane waves:     179
 k-point  40 :   0.1818 0.0909 0.1818  plane waves:     181
 k-point  41 :   0.2727 0.0909 0.1818  plane waves:     180
 k-point  42 :   0.3636 0.0909 0.1818  plane waves:     184
 k-point  43 :   0.4545 0.0909 0.1818  plane waves:     183
 k-point  44 :   0.1818 0.1818 0.1818  plane waves:     181
 k-point  45 :   0.2727 0.1818 0.1818  plane waves:     186
 k-point  46 :   0.3636 0.1818 0.1818  plane waves:     186
 k-point  47 :   0.2727 0.2727 0.1818  plane waves:     192
 k-point  48 :   0.3636 0.2727 0.1818  plane waves:     191
 k-point  49 :   0.0000 0.0000 0.2727  plane waves:     173
 k-point  50 :   0.0909 0.0000 0.2727  plane waves:     179
 k-point  51 :   0.1818-0.0000 0.2727  plane waves:     183
 k-point  52 :   0.2727 0.0000 0.2727  plane waves:     182
 k-point  53 :   0.3636 0.0000 0.2727  plane waves:     182
 k-point  54 :   0.4545-0.0000 0.2727  plane waves:     183
 k-point  55 :   0.0909 0.0909 0.2727  plane waves:     180
 k-point  56 :   0.1818 0.0909 0.2727  plane waves:     182
 k-point  57 :   0.2727 0.0909 0.2727  plane waves:     180
 k-point  58 :   0.3636 0.0909 0.2727  plane waves:     182
 k-point  59 :   0.4545 0.0909 0.2727  plane waves:     184
 k-point  60 :   0.1818 0.1818 0.2727  plane waves:     181
 k-point  61 :   0.2727 0.1818 0.2727  plane waves:     184
 k-point  62 :   0.3636 0.1818 0.2727  plane waves:     185
 k-point  63 :   0.2727 0.2727 0.2727  plane waves:     185
 k-point  64 :   0.3636 0.2727 0.2727  plane waves:     193
 k-point  65 :   0.0000 0.0000 0.3636  plane waves:     184
 k-point  66 :   0.0909 0.0000 0.3636  plane waves:     176
 k-point  67 :   0.1818-0.0000 0.3636  plane waves:     180
 k-point  68 :   0.2727 0.0000 0.3636  plane waves:     182
 k-point  69 :   0.3636 0.0000 0.3636  plane waves:     186
 k-point  70 :   0.4545-0.0000 0.3636  plane waves:     184
 k-point  71 :   0.0909 0.0909 0.3636  plane waves:     178
 k-point  72 :   0.1818 0.0909 0.3636  plane waves:     182
 k-point  73 :   0.2727 0.0909 0.3636  plane waves:     183
 k-point  74 :   0.3636 0.0909 0.3636  plane waves:     183
 k-point  75 :   0.4545 0.0909 0.3636  plane waves:     186
 k-point  76 :   0.1818 0.1818 0.3636  plane waves:     184
 k-point  77 :   0.2727 0.1818 0.3636  plane waves:     182
 k-point  78 :   0.3636 0.1818 0.3636  plane waves:     185
 k-point  79 :   0.2727 0.2727 0.3636  plane waves:     186
 k-point  80 :   0.3636 0.2727 0.3636  plane waves:     189
 k-point  81 :   0.0000 0.0000 0.4545  plane waves:     184
 k-point  82 :   0.0909 0.0000 0.4545  plane waves:     174
 k-point  83 :   0.1818-0.0000 0.4545  plane waves:     180
 k-point  84 :   0.2727 0.0000 0.4545  plane waves:     180
 k-point  85 :   0.3636 0.0000 0.4545  plane waves:     183
 k-point  86 :   0.4545-0.0000 0.4545  plane waves:     189
 k-point  87 :   0.0909 0.0909 0.4545  plane waves:     180
 k-point  88 :   0.1818 0.0909 0.4545  plane waves:     182
 k-point  89 :   0.2727 0.0909 0.4545  plane waves:     184
 k-point  90 :   0.3636 0.0909 0.4545  plane waves:     184
 k-point  91 :   0.4545 0.0909 0.4545  plane waves:     186
 k-point  92 :   0.1818 0.1818 0.4545  plane waves:     185
 k-point  93 :   0.2727 0.1818 0.4545  plane waves:     186
 k-point  94 :   0.3636 0.1818 0.4545  plane waves:     185
 k-point  95 :   0.2727 0.2727 0.4545  plane waves:     184
 k-point  96 :   0.3636 0.2727 0.4545  plane waves:     183

 maximum number of plane-waves:       195
 maximum index in each direction: 
   IXMAX=    3   IYMAX=    3   IZMAX=    5
   IXMIN=   -3   IYMIN=   -3   IZMIN=   -5


 total amount of memory used by VASP MPI-rank0    47645. kBytes
=======================================================================

   base      :      30000. kBytes
   nonl-proj :       2701. kBytes
   grid      :        721. kBytes
   one-center:         31. kBytes
   wavefun   :      14192. kBytes
 
     INWAV:  cpu time    0.0000: real time    0.0000
 Broyden mixing: mesh for mixing (old mesh)
   NGX =  7   NGY =  7   NGZ = 11
  (NGX  = 20   NGY  = 20   NGZ  = 32)
  gives a total of    539 points

 initial charge density was supplied:
 charge density of overlapping atoms calculated
 number of electron      16.0000000 magnetization 
 keeping initial charge density in first step


--------------------------------------------------------------------------------------------------------


 Maximum index for augmentation-charges         3216 (set IRDMAX)


--------------------------------------------------------------------------------------------------------


 First call to EWALD:  gamma=   0.686
 Maximum number of real-space cells 3x 3x 2
 Maximum number of reciprocal cells 2x 2x 4

    FEWALD:  cpu time    0.0008: real time    0.0008


--------------------------------------- Iteration      1(   1)  ---------------------------------------


    POTLOK:  cpu time    0.0030: real time    0.0030
    SETDIJ:  cpu time    0.0022: real time    0.0022
     EDDAV:  cpu time    0.7761: real time    0.7962
       DOS:  cpu time    0.0054: real time    0.0054
    --------------------------------------------
      LOOP:  cpu time    0.7868: real time    0.8069

 eigenvalue-minimisations  :  9624
 total energy-change (2. order) : 0.5977206E+02  (-0.2374340E+03)
 number of electron      16.0000000 magnetization 
 augmentation part       16.0000000 magnetization 

 Free energy of the ion-electron system (eV)
  ---------------------------------------------------
  alpha Z        PSCENC =       160.34558390
  Ewald energy   TEWEN  =     -1297.56904865
  -Hartree energ DENC   =      -182.74351713
  -exchange      EXHF   =         0.00000000
  -V(xc)+E(xc)   XCENC  =         9.61537548
  PAW double counting   =      1109.69170683    -1125.09647265
  entropy T*S    EENTRO =         0.00298624
  eigenvalues    EBANDS =       196.95053733
  atomic energy  EATOM  =      1188.57490811
  Solvation  Ediel_sol  =         0.00000000
  ---------------------------------------------------
  free energy    TOTEN  =        59.77205946 eV

  energy without entropy =       59.76907322  energy(sigma->0) =       59.77106405


--------------------------------------------------------------------------------------------------------




--------------------------------------- Iteration      1(   2)  ---------------------------------------


     EDDAV:  cpu time    0.6219: real time    0.6219
       DOS:  cpu time    0.0056: real time    0.0056
    --------------------------------------------
      LOOP:  cpu time    0.6275: real time    0.6275

 eigenvalue-minimisations  :  7920
 total energy-change (2. order) :-0.7393166E+02  (-0.6287252E+02)
 number of electron      16.0000000 magnetization 
 augmentation part       16.0000000 magnetization 

 Free energy of the ion-electron system (eV)
  ---------------------------------------------------
  alpha Z        PSCENC =       160.34558390
  Ewald energy   TEWEN  =     -1297.56904865
  -Hartree energ DENC   =      -182.74351713
  -exchange      EXHF   =         0.00000000
  -V(xc)+E(xc)   XCENC  =         9.61537548
  PAW double counting   =      1109.69170683    -1125.09647265
  entropy T*S    EENTRO =        -0.00118564
  eigenvalues    EBANDS =       123.02305279
  atomic energy  EATOM  =      1188.57490811
  Solvation  Ediel_sol  =         0.00000000
  ---------------------------------------------------
  free energy    TOTEN  =       -14.15959696 eV

  energy without entropy =      -14.15841132  energy(sigma->0) =      -14.15920175


--------------------------------------------------------------------------------------------------------




--------------------------------------- Iteration      1(   3)  ---------------------------------------


     EDDAV:  cpu time    0.7154: real time    0.7154
       DOS:  cpu time    0.0062: real time    0.0062
    --------------------------------------------
      LOOP:  cpu time    0.7217: real time    0.7217

 eigenvalue-minimisations  :  9600
 total energy-change (2. order) :-0.4084385E+01  (-0.3925373E+01)
 number of electron      16.0000000 magnetization 
 augmentation part       16.0000000 magnetization 

 Free energy of the ion-electron system (eV)
  ---------------------------------------------------
  alpha Z        PSCENC =       160.34558390
  Ewald energy   TEWEN  =     -1297.56904865
  -Hartree energ DENC   =      -182.74351713
  -exchange      EXHF   =         0.00000000
  -V(xc)+E(xc)   XCENC  =         9.61537548
  PAW double counting   =      1109.69170683    -1125.09647265
  entropy T*S    EENTRO =         0.00007137
  eigenvalues    EBANDS =       118.93741031
  atomic energy  EATOM  =      1188.57490811
  Solvation  Ediel_sol  =         0.00000000
  ---------------------------------------------------
  free energy    TOTEN  =       -18.24398243 eV

  energy without entropy =      -18.24405380  energy(sigma->0) =      -18.24400622


--------------------------------------------------------------------------------------------------------




--------------------------------------- Iteration      1(   4)  ---------------------------------------


     EDDAV:  cpu time    0.6602: real time    0.6602
       DOS:  cpu time    0.0062: real time    0.0062
    --------------------------------------------
      LOOP:  cpu time    0.6664: real time    0.6664

 eigenvalue-minimisations  :  8688
 total energy-change (2. order) :-0.1351039E-01  (-0.1350533E-01)
 number of electron      16.0000000 magnetization 
 augmentation part       16.0000000 magnetization 

 Free energy of the ion-electron system (eV)
  ---------------------------------------------------
  alpha Z        PSCENC =       160.34558390
  Ewald energy   TEWEN  =     -1297.56904865
  -Hartree energ DENC   =      -182.74351713
  -exchange      EXHF   =         0.00000000
  -V(xc)+E(xc)   XCENC  =         9.61537548
  PAW double counting   =      1109.69170683    -1125.09647265
  entropy T*S    EENTRO =         0.00009214
  eigenvalues    EBANDS =       118.92387915
  atomic energy  EATOM  =      1188.57490811
  Solvation  Ediel_sol  =         0.00000000
  ---------------------------------------------------
  free energy    TOTEN  =       -18.25749282 eV

  energy without entropy =      -18.25758496  energy(sigma->0) =      -18.25752354


--------------------------------------------------------------------------------------------------------




--------------------------------------- Iteration      1(   5)  ---------------------------------------


     EDDAV:  cpu time    0.6952: real time    0.6952
       DOS:  cpu time    0.0060: real time    0.0060
    CHARGE:  cpu time    0.0173: real time    0.0173
    MIXING:  cpu time    0.0002: real time    0.0002
    --------------------------------------------
      LOOP:  cpu time    0.7187: real time    0.7187

 eigenvalue-minimisations  :  9344
 total energy-change (2. order) :-0.7485175E-05  (-0.7484751E-05)
 number of electron      16.0000176 magnetization 
 augmentation part        7.2227970 magnetization 

 Broyden mixing:
  rms(total) = 0.20653E+01    rms(broyden)= 0.20653E+01
  rms(prec ) = 0.30706E+01
  weight for this iteration     100.00

 Free energy of the ion-electron system (eV)
  ---------------------------------------------------
  alpha Z        PSCENC =       160.34558390
  Ewald energy   TEWEN  =     -1297.56904865
  -Hartree energ DENC   =      -182.74351713
  -exchange      EXHF   =         0.00000000
  -V(xc)+E(xc)   XCENC  =         9.61537548
  PAW double counting   =      1109.69170683    -1125.09647265
  entropy T*S    EENTRO =         0.00009216
  eigenvalues    EBANDS =       118.92387165
  atomic energy  EATOM  =      1188.57490811
  Solvation  Ediel_sol  =         0.00000000
  ---------------------------------------------------
  free energy    TOTEN  =       -18.25750031 eV

  energy without entropy =      -18.25759246  energy(sigma->0) =      -18.25753103


--------------------------------------------------------------------------------------------------------




--------------------------------------- Iteration      1(   6)  ---------------------------------------


    POTLOK:  cpu time    0.0029: real time    0.0029
    SETDIJ:  cpu time    0.0021: real time    0.0021
     EDDAV:  cpu time    0.8337: real time    0.8338
       DOS:  cpu time    0.0066: real time    0.0066
    CHARGE:  cpu time    0.0173: real time    0.0173
    MIXING:  cpu time    0.0002: real time    0.0002
    --------------------------------------------
      LOOP:  cpu time    0.8628: real time    0.8628

 eigenvalue-minimisations  : 11312
 total energy-change (2. order) : 0.2545673E+01  (-0.1237841E+00)
 number of electron      16.0000206 magnetization 
 augmentation part        8.2917162 magnetization 

 Broyden mixing:
  rms(total) = 0.17451E+00    rms(broyden)= 0.17445E+00
  rms(prec ) = 0.19139E+00
  weight for this iteration     100.00

 eigenvalues of (default mixing * dielectric matrix)
  average eigenvalue GAMMA=   1.0589
  1.0589

 Free energy of the ion-electron system (eV)
  ---------------------------------------------------
  alpha Z        PSCENC =       160.34558390
  Ewald energy   TEWEN  =     -1297.56904865
  -Hartree energ DENC   =      -153.36396656
  -exchange      EXHF   =         0.00000000
  -V(xc)+E(xc)   XCENC  =         8.16509793
  PAW double counting   =      1363.59172885    -1376.30968214
  entropy T*S    EENTRO =         0.00037907
  eigenvalues    EBANDS =        90.85317245
  atomic energy  EATOM  =      1188.57490811
  Solvation  Ediel_sol  =         0.00000000
  ---------------------------------------------------
  free energy    TOTEN  =       -15.71182703 eV

  energy without entropy =      -15.71220610  energy(sigma->0) =      -15.71195339


--------------------------------------------------------------------------------------------------------




--------------------------------------- Iteration      1(   7)  ---------------------------------------


    POTLOK:  cpu time    0.0030: real time    0.0030
    SETDIJ:  cpu time    0.0022: real time    0.0022
     EDDAV:  cpu time    0.7091: real time    0.7091
       DOS:  cpu time    0.0065: real time    0.0065
    CHARGE:  cpu time    0.0173: real time    0.0173
    MIXING:  cpu time    0.0002: real time    0.0002
    --------------------------------------------
      LOOP:  cpu time    0.7382: real time    0.7382

 eigenvalue-minimisations  :  9576
 total energy-change (2. order) : 0.1097237E+00  (-0.4636058E-02)
 number of electron      16.0000203 magnetization 
 augmentation part        8.1740656 magnetization 

 Broyden mixing:
  rms(total) = 0.17029E+00    rms(broyden)= 0.17029E+00
  rms(prec ) = 0.23147E+00
  weight for this iteration     100.00

 eigenvalues of (default mixing * dielectric matrix)
  average eigenvalue GAMMA=   1.2795
  0.8641  1.6949

 Free energy of the ion-electron system (eV)
  ---------------------------------------------------
  alpha Z        PSCENC =       160.34558390
  Ewald energy   TEWEN  =     -1297.56904865
  -Hartree energ DENC   =      -153.57090595
  -exchange      EXHF   =         0.00000000
  -V(xc)+E(xc)   XCENC  =         8.20205082
  PAW double counting   =      1491.75201489    -1507.84043642
  entropy T*S    EENTRO =         0.00029358
  eigenvalues    EBANDS =        94.50343635
  atomic energy  EATOM  =      1188.57490811
  Solvation  Ediel_sol  =         0.00000000
  ---------------------------------------------------
  free energy    TOTEN  =       -15.60210337 eV

  energy without entropy =      -15.60239695  energy(sigma->0) =      -15.60220123


--------------------------------------------------------------------------------------------------------




--------------------------------------- Iteration      1(   8)  ---------------------------------------


    POTLOK:  cpu time    0.0030: real time    0.0030
    SETDIJ:  cpu time    0.0022: real time    0.0022
     EDDAV:  cpu time    0.7756: real time    0.7756
       DOS:  cpu time    0.0064: real time    0.0064
    CHARGE:  cpu time    0.0172: real time    0.0172
    MIXING:  cpu time    0.0002: real time    0.0002
    --------------------------------------------
      LOOP:  cpu time    0.8045: real time    0.8045

 eigenvalue-minimisations  : 10568
 total energy-change (2. order) : 0.4037236E-01  (-0.2185925E-03)
 number of electron      16.0000204 magnetization 
 augmentation part        8.1961936 magnetization 

 Broyden mixing:
  rms(total) = 0.51868E-01    rms(broyden)= 0.51867E-01
  rms(prec ) = 0.67389E-01
  weight for this iteration     100.00

 eigenvalues of (default mixing * dielectric matrix)
  average eigenvalue GAMMA=   1.5700
  2.7352  1.0972  0.8777

 Free energy of the ion-electron system (eV)
  ---------------------------------------------------
  alpha Z        PSCENC =       160.34558390
  Ewald energy   TEWEN  =     -1297.56904865
  -Hartree energ DENC   =      -150.88046294
  -exchange      EXHF   =         0.00000000
  -V(xc)+E(xc)   XCENC  =         8.09309726
  PAW double counting   =      1630.02170311    -1648.42524553
  entropy T*S    EENTRO =         0.00031623
  eigenvalues    EBANDS =        94.27741750
  atomic energy  EATOM  =      1188.57490811
  Solvation  Ediel_sol  =         0.00000000
  ---------------------------------------------------
  free energy    TOTEN  =       -15.56173101 eV

  energy without entropy =      -15.56204723  energy(sigma->0) =      -15.56183642


--------------------------------------------------------------------------------------------------------




--------------------------------------- Iteration      1(   9)  ---------------------------------------


    POTLOK:  cpu time    0.0030: real time    0.0030
    SETDIJ:  cpu time    0.0021: real time    0.0021
     EDDAV:  cpu time    0.7602: real time    0.7602
       DOS:  cpu time    0.0066: real time    0.0066
    CHARGE:  cpu time    0.0170: real time    0.0170
    MIXING:  cpu time    0.0002: real time    0.0002
    --------------------------------------------
      LOOP:  cpu time    0.7891: real time    0.7891

 eigenvalue-minimisations  : 10296
 total energy-change (2. order) : 0.4526335E-02  (-0.5800523E-04)
 number of electron      16.0000204 magnetization 
 augmentation part        8.2027655 magnetization 

 Broyden mixing:
  rms(total) = 0.77528E-02    rms(broyden)= 0.77525E-02
  rms(prec ) = 0.11056E-01
  weight for this iteration     100.00

 eigenvalues of (default mixing * dielectric matrix)
  average eigenvalue GAMMA=   1.6425
  2.7124  0.8879  0.9905  1.9793

 Free energy of the ion-electron system (eV)
  ---------------------------------------------------
  alpha Z        PSCENC =       160.34558390
  Ewald energy   TEWEN  =     -1297.56904865
  -Hartree energ DENC   =      -149.59035820
  -exchange      EXHF   =         0.00000000
  -V(xc)+E(xc)   XCENC  =         8.04369119
  PAW double counting   =      1712.65322814    -1732.31785565
  entropy T*S    EENTRO =         0.00031654
  eigenvalues    EBANDS =        94.30232993
  atomic energy  EATOM  =      1188.57490811
  Solvation  Ediel_sol  =         0.00000000
  ---------------------------------------------------
  free energy    TOTEN  =       -15.55720467 eV

  energy without entropy =      -15.55752121  energy(sigma->0) =      -15.55731019


--------------------------------------------------------------------------------------------------------




--------------------------------------- Iteration      1(  10)  ---------------------------------------


    POTLOK:  cpu time    0.0030: real time    0.0030
    SETDIJ:  cpu time    0.0021: real time    0.0021
     EDDAV:  cpu time    0.6456: real time    0.6456
       DOS:  cpu time    0.0063: real time    0.0063
    CHARGE:  cpu time    0.0170: real time    0.0170
    MIXING:  cpu time    0.0002: real time    0.0002
    --------------------------------------------
      LOOP:  cpu time    0.6741: real time    0.6741

 eigenvalue-minimisations  :  8496
 total energy-change (2. order) : 0.5210223E-04  (-0.1690856E-05)
 number of electron      16.0000204 magnetization 
 augmentation part        8.2021541 magnetization 

 Broyden mixing:
  rms(total) = 0.22712E-02    rms(broyden)= 0.22709E-02
  rms(prec ) = 0.33610E-02
  weight for this iteration     100.00

 eigenvalues of (default mixing * dielectric matrix)
  average eigenvalue GAMMA=   1.6668
  2.6473  2.4625  0.8856  1.0046  1.3343

 Free energy of the ion-electron system (eV)
  ---------------------------------------------------
  alpha Z        PSCENC =       160.34558390
  Ewald energy   TEWEN  =     -1297.56904865
  -Hartree energ DENC   =      -149.73746115
  -exchange      EXHF   =         0.00000000
  -V(xc)+E(xc)   XCENC  =         8.05083385
  PAW double counting   =      1710.92535094    -1730.44257149
  entropy T*S    EENTRO =         0.00031463
  eigenvalues    EBANDS =        94.29493729
  atomic energy  EATOM  =      1188.57490811
  Solvation  Ediel_sol  =         0.00000000
  ---------------------------------------------------
  free energy    TOTEN  =       -15.55715257 eV

  energy without entropy =      -15.55746720  energy(sigma->0) =      -15.55725745


--------------------------------------------------------------------------------------------------------




--------------------------------------- Iteration      1(  11)  ---------------------------------------


    POTLOK:  cpu time    0.0029: real time    0.0029
    SETDIJ:  cpu time    0.0022: real time    0.0022
     EDDAV:  cpu time    0.6426: real time    0.6426
       DOS:  cpu time    0.0061: real time    0.0061
    CHARGE:  cpu time    0.0170: real time    0.0170
    MIXING:  cpu time    0.0002: real time    0.0002
    --------------------------------------------
      LOOP:  cpu time    0.6710: real time    0.6710

 eigenvalue-minimisations  :  8280
 total energy-change (2. order) : 0.1869684E-04  (-0.3590945E-07)
 number of electron      16.0000204 magnetization 
 augmentation part        8.2019503 magnetization 

 Broyden mixing:
  rms(total) = 0.14928E-03    rms(broyden)= 0.14927E-03
  rms(prec ) = 0.29837E-03
  weight for this iteration     100.00

 eigenvalues of (default mixing * dielectric matrix)
  average eigenvalue GAMMA=   1.5905
  2.5801  2.5801  0.8861  1.0090  1.0090  1.4788

 Free energy of the ion-electron system (eV)
  ---------------------------------------------------
  alpha Z        PSCENC =       160.34558390
  Ewald energy   TEWEN  =     -1297.56904865
  -Hartree energ DENC   =      -149.80069845
  -exchange      EXHF   =         0.00000000
  -V(xc)+E(xc)   XCENC  =         8.05371108
  PAW double counting   =      1709.48580806    -1728.93799959
  entropy T*S    EENTRO =         0.00031479
  eigenvalues    EBANDS =        94.29028687
  atomic energy  EATOM  =      1188.57490811
  Solvation  Ediel_sol  =         0.00000000
  ---------------------------------------------------
  free energy    TOTEN  =       -15.55713387 eV

  energy without entropy =      -15.55744866  energy(sigma->0) =      -15.55723880


--------------------------------------------------------------------------------------------------------




--------------------------------------- Iteration      1(  12)  ---------------------------------------


    POTLOK:  cpu time    0.0031: real time    0.0031
    SETDIJ:  cpu time    0.0021: real time    0.0021
     EDDAV:  cpu time    0.5206: real time    0.5206
       DOS:  cpu time    0.0062: real time    0.0062
    CHARGE:  cpu time    0.0171: real time    0.0171
    MIXING:  cpu time    0.0002: real time    0.0002
    --------------------------------------------
      LOOP:  cpu time    0.5493: real time    0.5493

 eigenvalue-minimisations  :  6072
 total energy-change (2. order) : 0.1205927E-05  (-0.7086938E-08)
 number of electron      16.0000204 magnetization 
 augmentation part        8.2019044 magnetization 

 Broyden mixing:
  rms(total) = 0.11897E-03    rms(broyden)= 0.11893E-03
  rms(prec ) = 0.13515E-03
  weight for this iteration     100.00

 eigenvalues of (default mixing * dielectric matrix)
  average eigenvalue GAMMA=   1.6383
  2.5461  2.5461  2.0718  0.8867  0.9725  1.0083  1.4367

 Free energy of the ion-electron system (eV)
  ---------------------------------------------------
  alpha Z        PSCENC =       160.34558390
  Ewald energy   TEWEN  =     -1297.56904865
  -Hartree energ DENC   =      -149.80835092
  -exchange      EXHF   =         0.00000000
  -V(xc)+E(xc)   XCENC  =         8.05404616
  PAW double counting   =      1709.34912591    -1728.79428178
  entropy T*S    EENTRO =         0.00031489
  eigenvalues    EBANDS =        94.29056970
  atomic energy  EATOM  =      1188.57490811
  Solvation  Ediel_sol  =         0.00000000
  ---------------------------------------------------
  free energy    TOTEN  =       -15.55713267 eV

  energy without entropy =      -15.55744756  energy(sigma->0) =      -15.55723763


--------------------------------------------------------------------------------------------------------




--------------------------------------- Iteration      1(  13)  ---------------------------------------


    POTLOK:  cpu time    0.0029: real time    0.0029
    SETDIJ:  cpu time    0.0021: real time    0.0021
     EDDAV:  cpu time    0.4684: real time    0.4684
       DOS:  cpu time    0.0065: real time    0.0065
    --------------------------------------------
      LOOP:  cpu time    0.4799: real time    0.4799

 eigenvalue-minimisations  :  5088
 total energy-change (2. order) :-0.4113726E-06  (-0.7312935E-09)
 number of electron      16.0000204 magnetization 
 augmentation part        8.2019044 magnetization 

 Free energy of the ion-electron system (eV)
  ---------------------------------------------------
  alpha Z        PSCENC =       160.34558390
  Ewald energy   TEWEN  =     -1297.56904865
  -Hartree energ DENC   =      -149.80679328
  -exchange      EXHF   =         0.00000000
  -V(xc)+E(xc)   XCENC  =         8.05396917
  PAW double counting   =      1709.42998860    -1728.87697044
  entropy T*S    EENTRO =         0.00031489
  eigenvalues    EBANDS =        94.29091461
  atomic energy  EATOM  =      1188.57490811
  Solvation  Ediel_sol  =         0.00000000
  ---------------------------------------------------
  free energy    TOTEN  =       -15.55713308 eV

  energy without entropy =      -15.55744797  energy(sigma->0) =      -15.55723804


--------------------------------------------------------------------------------------------------------




 average (electrostatic) potential at core
  the test charge radii are     1.0103
  (the norm of the test charge is              1.0000)
       1 -40.7712       2 -40.7713
 
 
 
 E-fermi :   8.9418     XC(G=0): -14.7983     alpha+bet :-17.9807

 Fermi energy:         8.9417961455

 k-point     1 :       0.0000    0.0000    0.0000
  band No.  band energies     occupation 
      1      -0.9075      2.00000
      2       2.9694      2.00000
      3       6.3390      2.00000
      4       6.9352      2.00000
      5       6.9352      2.00000
      6       7.3757      2.00000
      7       7.3757      2.00000
      8       8.4200      2.00140
      9       8.4315      2.00183
     10       8.4315      2.00183
     11       9.9015     -0.00000
     12       9.9015     -0.00000
     13      18.3169      0.00000
     14      33.5239      0.00000
     15      34.8821      0.00000
     16      37.1208      0.00000
     17      40.6099      0.00000
     18      40.6099      0.00000
     19      41.2410      0.00000
     20      41.2411      0.00000
     21      43.6664      0.00000
     22      43.6664      0.00000
     23      43.7238      0.00000
     24      44.8162      0.00000
     25      48.4035      0.00000
     26      48.4035      0.00000
     27      50.0953      0.00000
     28      53.2535      0.00000
     29      53.2536      0.00000
     30      54.8219      0.00000
     31      54.8220      0.00000
     32      58.5236      0.00000
     33      65.1466      0.00000
     34      66.0423      0.00000
     35      66.0427      0.00000
     36      66.3831      0.00000
     37      67.4533      0.00000
     38      70.1480      0.00000
     39      70.1482      0.00000
     40      73.6807      0.00000

 k-point     2 :       0.0909    0.0000    0.0000
  band No.  band energies     occupation 
      1      -0.5348      2.00000
      2       3.2469      2.00000
      3       6.2751      2.00000
      4       6.9264      2.00000
      5       7.1725      2.00000
      6       7.2392      2.00000
      7       7.2643      2.00000
      8       7.5915      2.00000
      9       8.2747      2.00003
     10       8.2845      2.00003
     11       9.9520     -0.00000
     12      11.3190     -0.00000
     13      18.3254      0.00000
     14      32.6138      0.00000
     15      35.2073      0.00000
     16      35.7300      0.00000
     17      37.4804      0.00000
     18      39.4044      0.00000
     19      39.5210      0.00000
     20      43.2688      0.00000
     21      43.3721      0.00000
     22      44.4203      0.00000
     23      45.1195      0.00000
     24      45.2646      0.00000
     25      49.4852      0.00000
     26      49.5528      0.00000
     27      50.5314      0.00000
     28      50.7197      0.00000
     29      54.0226      0.00000
     30      56.6472      0.00000
     31      57.2231      0.00000
     32      59.7962      0.00000
     33      64.4550      0.00000
     34      64.9022      0.00000
     35      65.2735      0.00000
     36      66.4748      0.00000
     37      66.6266      0.00000
     38      70.4262      0.00000
     39      72.3172      0.00000
     40      73.7096      0.00000

 k-point     3 :       0.1818   -0.0000    0.0000
  band No.  band energies     occupation 
      1       0.5057      2.00000
      2       3.8804      2.00000
      3       5.8766      2.00000
      4       5.9424      2.00000
      5       6.7421      2.00000
      6       7.4721      2.00000
      7       7.8395      2.00000
      8       7.8677      2.00000
      9       7.9383      2.00000
     10       8.1990      2.00000
     11      10.0413     -0.00000
     12      13.4874     -0.00000
     13      18.3833      0.00000
     14      29.1903      0.00000
     15      34.3658      0.00000
     16      34.4177      0.00000
     17      34.8616      0.00000
     18      36.0129      0.00000
     19      40.5458      0.00000
     20      42.3809      0.00000
     21      42.5986      0.00000
     22      42.9372      0.00000
     23      45.8856      0.00000
     24      47.5693      0.00000
     25      49.9238      0.00000
     26      50.5216      0.00000
     27      52.1029      0.00000
     28      54.5686      0.00000
     29      57.6951      0.00000
     30      59.1180      0.00000
     31      59.9390      0.00000
     32      61.9269      0.00000
     33      62.9371      0.00000
     34      63.7349      0.00000
     35      64.1468      0.00000
     36      64.6809      0.00000
     37      67.9025      0.00000
     38      70.9896      0.00000
     39      73.6306      0.00000
     40      73.6877      0.00000

 k-point     4 :       0.2727    0.0000    0.0000
  band No.  band energies     occupation 
      1       1.9241      2.00000
      2       4.1138      2.00000
      3       4.7783      2.00000
      4       5.8780      2.00000
      5       6.5674      2.00000
      6       7.3610      2.00000
      7       7.5478      2.00000
      8       8.4159      2.00127
      9       8.7852      1.97119
     10       9.0508      0.21232
     11      10.0998     -0.00000
     12      15.8550      0.00000
     13      18.5051      0.00000
     14      25.1232      0.00000
     15      31.1258      0.00000
     16      31.6581      0.00000
     17      33.0130      0.00000
     18      35.6682      0.00000
     19      39.2974      0.00000
     20      42.0514      0.00000
     21      42.9235      0.00000
     22      42.9594      0.00000
     23      43.5077      0.00000
     24      47.6599      0.00000
     25      53.3005      0.00000
     26      54.9986      0.00000
     27      55.7345      0.00000
     28      57.7085      0.00000
     29      59.0031      0.00000
     30      59.5560      0.00000
     31      61.5176      0.00000
     32      62.6155      0.00000
     33      63.1236      0.00000
     34      63.6177      0.00000
     35      64.2806      0.00000
     36      67.4455      0.00000
     37      67.5949      0.00000
     38      71.5042      0.00000
     39      73.2159      0.00000
     40      73.4802      0.00000

 k-point     5 :       0.3636    0.0000    0.0000
  band No.  band energies     occupation 
      1       3.0393      2.00000
      2       3.7822      2.00000
      3       4.0275      2.00000
      4       6.1984      2.00000
      5       6.9189      2.00000
      6       7.0062      2.00000
      7       7.2300      2.00000
      8       9.7431     -0.00000
      9       9.9168     -0.00000
     10       9.9230     -0.00000
     11      10.1239     -0.00000
     12      18.0797      0.00000
     13      18.3305      0.00000
     14      22.3072      0.00000
     15      27.7811      0.00000
     16      29.5734      0.00000
     17      30.3969      0.00000
     18      34.6669      0.00000
     19      38.0258      0.00000
     20      41.2972      0.00000
     21      41.8068      0.00000
     22      44.0348      0.00000
     23      45.1439      0.00000
     24      47.9321      0.00000
     25      56.0164      0.00000
     26      56.8844      0.00000
     27      56.9053      0.00000
     28      60.2011      0.00000
     29      60.7501      0.00000
     30      60.8898      0.00000
     31      62.6615      0.00000
     32      63.5961      0.00000
     33      63.9274      0.00000
     34      64.9841      0.00000
     35      65.3796      0.00000
     36      67.2370      0.00000
     37      71.6934      0.00000
     38      72.1438      0.00000
     39      72.7024      0.00000
     40      72.9885      0.00000

 k-point     6 :       0.4545   -0.0000    0.0000
  band No.  band energies     occupation 
      1       3.2646      2.00000
      2       3.6321      2.00000
      3       3.6474      2.00000
      4       6.6660      2.00000
      5       6.8587      2.00000
      6       7.0528      2.00000
      7       7.3036      2.00000
      8      10.1282     -0.00000
      9      10.3400     -0.00000
     10      10.5068     -0.00000
     11      11.8977     -0.00000
     12      15.8483      0.00000
     13      20.6242      0.00000
     14      22.3880      0.00000
     15      25.0946      0.00000
     16      27.7532      0.00000
     17      28.3922      0.00000
     18      33.9653      0.00000
     19      37.6029      0.00000
     20      40.0382      0.00000
     21      41.7243      0.00000
     22      44.9606      0.00000
     23      47.3351      0.00000
     24      48.1051      0.00000
     25      52.7236      0.00000
     26      58.1861      0.00000
     27      58.6434      0.00000
     28      61.5398      0.00000
     29      62.1951      0.00000
     30      62.8515      0.00000
     31      63.8605      0.00000
     32      64.2053      0.00000
     33      65.0672      0.00000
     34      67.5510      0.00000
     35      67.6244      0.00000
     36      70.2280      0.00000
     37      70.4901      0.00000
     38      70.6344      0.00000
     39      73.1905      0.00000
     40      73.3294      0.00000

 k-point     7 :       0.0909    0.0909    0.0000
  band No.  band energies     occupation 
      1       0.1759      2.00000
      2       3.7272      2.00000
      3       5.9951      2.00000
      4       6.2476      2.00000
      5       6.9798      2.00000
      6       7.0932      2.00000
      7       7.6608      2.00000
      8       7.7628      2.00000
      9       8.0677      2.00000
     10       8.2721      2.00002
     11       9.9832     -0.00000
     12      12.8908     -0.00000
     13      18.3628      0.00000
     14      30.7935      0.00000
     15      32.5864      0.00000
     16      35.6025      0.00000
     17      36.4079      0.00000
     18      38.1987      0.00000
     19      38.5143      0.00000
     20      41.0677      0.00000
     21      42.7372      0.00000
     22      46.5068      0.00000
     23      46.8051      0.00000
     24      47.8015      0.00000
     25      48.4502      0.00000
     26      48.9737      0.00000
     27      49.2348      0.00000
     28      54.8732      0.00000
     29      57.5182      0.00000
     30      58.3668      0.00000
     31      58.5704      0.00000
     32      61.4248      0.00000
     33      62.5118      0.00000
     34      64.4270      0.00000
     35      64.9662      0.00000
     36      65.7004      0.00000
     37      66.2858      0.00000
     38      71.3730      0.00000
     39      73.5020      0.00000
     40      73.5200      0.00000

 k-point     8 :       0.1818    0.0909    0.0000
  band No.  band energies     occupation 
      1       1.4432      2.00000
      2       4.3053      2.00000
      3       5.1829      2.00000
      4       5.5897      2.00000
      5       6.6611      2.00000
      6       7.2445      2.00000
      7       7.6393      2.00000
      8       7.9643      2.00000
      9       8.5323      2.01368
     10       8.9570      0.87138
     11      10.0050     -0.00000
     12      15.0345      0.00000
     13      18.5116      0.00000
     14      27.1821      0.00000
     15      29.9999      0.00000
     16      32.9010      0.00000
     17      35.2968      0.00000
     18      36.0685      0.00000
     19      39.4827      0.00000
     20      40.4406      0.00000
     21      41.4544      0.00000
     22      46.0425      0.00000
     23      46.5191      0.00000
     24      47.5379      0.00000
     25      50.5202      0.00000
     26      51.2743      0.00000
     27      53.2448      0.00000
     28      58.3407      0.00000
     29      59.7407      0.00000
     30      60.2772      0.00000
     31      60.8076      0.00000
     32      62.3074      0.00000
     33      62.5535      0.00000
     34      63.8509      0.00000
     35      65.0031      0.00000
     36      65.0197      0.00000
     37      67.0156      0.00000
     38      71.9880      0.00000
     39      72.7278      0.00000
     40      73.4896      0.00000

 k-point     9 :       0.2727    0.0909    0.0000
  band No.  band energies     occupation 
      1       2.8302      2.00000
      2       4.1653      2.00000
      3       4.3559      2.00000
      4       5.7252      2.00000
      5       6.7651      2.00000
      6       6.8488      2.00000
      7       7.5074      2.00000
      8       8.5731      2.02563
      9       9.4973     -0.00061
     10      10.0129     -0.00000
     11      10.1217     -0.00000
     12      17.4222      0.00000
     13      18.6914      0.00000
     14      23.4501      0.00000
     15      28.1187      0.00000
     16      29.5096      0.00000
     17      32.8972      0.00000
     18      34.0668      0.00000
     19      39.0595      0.00000
     20      40.3056      0.00000
     21      41.7409      0.00000
     22      45.8860      0.00000
     23      45.9793      0.00000
     24      48.6513      0.00000
     25      52.7361      0.00000
     26      55.2351      0.00000
     27      57.1324      0.00000
     28      57.9725      0.00000
     29      58.8494      0.00000
     30      61.6823      0.00000
     31      61.9956      0.00000
     32      63.7079      0.00000
     33      64.3276      0.00000
     34      65.1192      0.00000
     35      65.1596      0.00000
     36      66.6375      0.00000
     37      70.6105      0.00000
     38      71.5931      0.00000
     39      71.7019      0.00000
     40      73.9823      0.00000

 k-point    10 :       0.3636    0.0909    0.0000
  band No.  band energies     occupation 
      1       3.4952      2.00000
      2       3.8438      2.00000
      3       3.8580      2.00000
      4       6.2994      2.00000
      5       6.6465      2.00000
      6       7.0865      2.00000
[...]
     17      30.4130      0.00000
     18      31.6343      0.00000
     19      37.0540      0.00000
     20      37.7027      0.00000
     21      42.0384      0.00000
     22      42.7278      0.00000
     23      47.6489      0.00000
     24      48.7503      0.00000
     25      54.8602      0.00000
     26      56.6550      0.00000
     27      58.8244      0.00000
     28      59.5639      0.00000
     29      62.1164      0.00000
     30      63.0907      0.00000
     31      63.6968      0.00000
     32      63.9065      0.00000
     33      66.1558      0.00000
     34      66.6765      0.00000
     35      68.6074      0.00000
     36      69.2003      0.00000
     37      69.7424      0.00000
     38      71.6146      0.00000
     39      73.7433      0.00000
     40      74.2513      0.00000

 k-point    91 :       0.4545    0.0909    0.4545
  band No.  band energies     occupation 
      1       3.1294      2.00000
      2       3.3169      2.00000
      3       4.7725      2.00000
      4       4.9178      2.00000
      5       7.5770      2.00000
      6       8.0964      2.00000
      7       8.9230      1.15852
      8       9.2946     -0.03172
      9      10.1500     -0.00000
     10      10.1520     -0.00000
     11      12.8067     -0.00000
     12      13.4010     -0.00000
     13      20.3405      0.00000
     14      20.3897      0.00000
     15      28.8144      0.00000
     16      29.5574      0.00000
     17      31.0625      0.00000
     18      31.5865      0.00000
     19      36.8612      0.00000
     20      36.9885      0.00000
     21      41.3231      0.00000
     22      41.5426      0.00000
     23      47.8326      0.00000
     24      48.9623      0.00000
     25      55.1797      0.00000
     26      57.0322      0.00000
     27      61.3949      0.00000
     28      61.9713      0.00000
     29      62.1229      0.00000
     30      62.5138      0.00000
     31      63.1459      0.00000
     32      63.6315      0.00000
     33      67.4180      0.00000
     34      67.9426      0.00000
     35      68.8105      0.00000
     36      69.7547      0.00000
     37      71.4615      0.00000
     38      71.7895      0.00000
     39      74.4572      0.00000
     40      74.6770      0.00000

 k-point    92 :       0.1818    0.1818    0.4545
  band No.  band energies     occupation 
      1       3.4769      2.00000
      2       3.7196      2.00000
      3       5.5374      2.00000
      4       5.5770      2.00000
      5       6.1278      2.00000
      6       6.1853      2.00000
      7       7.9865      2.00000
      8       8.2972      2.00005
      9       9.8949     -0.00000
     10      10.0298     -0.00000
     11      10.6588     -0.00000
     12      11.3376     -0.00000
     13      26.6515      0.00000
     14      27.0835      0.00000
     15      27.3418      0.00000
     16      28.6155      0.00000
     17      29.1424      0.00000
     18      30.6614      0.00000
     19      41.1042      0.00000
     20      42.2358      0.00000
     21      42.9953      0.00000
     22      44.2391      0.00000
     23      46.5652      0.00000
     24      46.6997      0.00000
     25      53.5223      0.00000
     26      54.0828      0.00000
     27      57.5138      0.00000
     28      57.9570      0.00000
     29      60.2894      0.00000
     30      61.6708      0.00000
     31      62.3866      0.00000
     32      62.8053      0.00000
     33      63.5710      0.00000
     34      63.5789      0.00000
     35      65.6213      0.00000
     36      65.8904      0.00000
     37      69.7767      0.00000
     38      71.8422      0.00000
     39      72.0626      0.00000
     40      72.3738      0.00000

 k-point    93 :       0.2727    0.1818    0.4545
  band No.  band energies     occupation 
      1       3.6947      2.00000
      2       3.8168      2.00000
      3       5.2633      2.00000
      4       5.5259      2.00000
      5       6.4963      2.00000
      6       6.7131      2.00000
      7       7.9270      2.00000
      8       8.2202      2.00000
      9      10.0242     -0.00000
     10      10.3302     -0.00000
     11      12.4014     -0.00000
     12      13.0202     -0.00000
     13      23.3849      0.00000
     14      24.0088      0.00000
     15      26.3640      0.00000
     16      27.1766      0.00000
     17      29.7964      0.00000
     18      31.7045      0.00000
     19      39.0792      0.00000
     20      40.5878      0.00000
     21      42.1470      0.00000
     22      43.6881      0.00000
     23      46.9385      0.00000
     24      47.5085      0.00000
     25      54.9114      0.00000
     26      55.4426      0.00000
     27      58.7984      0.00000
     28      60.4275      0.00000
     29      62.3762      0.00000
     30      63.4519      0.00000
     31      63.6888      0.00000
     32      63.9258      0.00000
     33      65.1233      0.00000
     34      65.3135      0.00000
     35      66.3955      0.00000
     36      66.9853      0.00000
     37      70.0392      0.00000
     38      72.3012      0.00000
     39      72.9679      0.00000
     40      73.6501      0.00000

 k-point    94 :       0.3636    0.1818    0.4545
  band No.  band energies     occupation 
      1       3.6647      2.00000
      2       3.8608      2.00000
      3       5.0996      2.00000
      4       5.3555      2.00000
      5       6.6158      2.00000
      6       7.0440      2.00000
      7       8.3633      2.00034
      8       8.5116      2.00952
      9       9.9768     -0.00000
     10      10.1904     -0.00000
     11      14.2901     -0.00000
     12      14.7861      0.00000
     13      20.7239      0.00000
     14      21.1213      0.00000
     15      25.6769      0.00000
     16      26.4893      0.00000
     17      31.4109      0.00000
     18      32.6477      0.00000
     19      37.6306      0.00000
     20      38.7524      0.00000
     21      40.9274      0.00000
     22      42.5827      0.00000
     23      47.9371      0.00000
     24      48.3899      0.00000
     25      57.8843      0.00000
     26      58.4131      0.00000
     27      59.2975      0.00000
     28      60.9466      0.00000
     29      61.9232      0.00000
     30      62.3665      0.00000
     31      63.3621      0.00000
     32      63.9405      0.00000
     33      66.0954      0.00000
     34      66.4438      0.00000
     35      68.5109      0.00000
     36      69.3374      0.00000
     37      70.9681      0.00000
     38      71.7190      0.00000
     39      72.5124      0.00000
     40      73.7934      0.00000

 k-point    95 :       0.2727    0.2727    0.4545
  band No.  band energies     occupation 
      1       4.1262      2.00000
      2       4.2155      2.00000
      3       5.3598      2.00000
      4       5.6223      2.00000
      5       6.1305      2.00000
      6       6.4041      2.00000
      7       7.8491      2.00000
      8       8.0962      2.00000
      9       9.9950     -0.00000
     10      10.2252     -0.00000
     11      14.8224      0.00000
     12      15.4055      0.00000
     13      21.6378      0.00000
     14      22.1421      0.00000
     15      23.9092      0.00000
     16      24.3739      0.00000
     17      31.6514      0.00000
     18      33.4376      0.00000
     19      37.5889      0.00000
     20      39.1891      0.00000
     21      40.7334      0.00000
     22      42.0325      0.00000
     23      49.8163      0.00000
     24      50.2737      0.00000
     25      55.2281      0.00000
     26      55.2320      0.00000
     27      61.7011      0.00000
     28      62.0327      0.00000
     29      62.2797      0.00000
     30      63.1500      0.00000
     31      64.0216      0.00000
     32      64.0270      0.00000
     33      64.7901      0.00000
     34      65.5641      0.00000
     35      68.7502      0.00000
     36      69.1340      0.00000
     37      70.3630      0.00000
     38      70.5983      0.00000
     39      71.2819      0.00000
     40      72.9711      0.00000

 k-point    96 :       0.3636    0.2727    0.4545
  band No.  band energies     occupation 
      1       4.3630      2.00000
      2       4.5332      2.00000
      3       5.2355      2.00000
      4       5.3197      2.00000
      5       6.1832      2.00000
      6       6.3276      2.00000
      7       7.9358      2.00000
      8       8.1221      2.00000
      9       9.9588     -0.00000
     10      10.0445     -0.00000
     11      16.7953      0.00000
     12      16.9579      0.00000
     13      19.8799      0.00000
     14      20.2955      0.00000
     15      23.2533      0.00000
     16      23.7124      0.00000
     17      33.3299      0.00000
     18      34.3846      0.00000
     19      36.8169      0.00000
     20      36.9542      0.00000
     21      40.5526      0.00000
     22      41.4470      0.00000
     23      51.2517      0.00000
     24      51.9371      0.00000
     25      55.9922      0.00000
     26      56.4129      0.00000
     27      59.8363      0.00000
     28      60.1567      0.00000
     29      62.9968      0.00000
     30      63.7767      0.00000
     31      64.0256      0.00000
     32      64.2071      0.00000
     33      65.5853      0.00000
     34      66.0107      0.00000
     35      67.1396      0.00000
     36      68.3824      0.00000
     37      70.5501      0.00000
     38      72.8782      0.00000
     39      73.4159      0.00000
     40      74.1083      0.00000


--------------------------------------------------------------------------------------------------------


 soft charge-density along one line, spin component           1
         0         1         2         3         4         5         6         7         8         9
x     7.7981    0.0000    0.0630   -0.1092   -0.0507   -0.0878    0.0221   -0.0000    0.0010   -0.0017
x     0.0000    0.0000
y     7.7981    0.0000    0.0630    0.1092   -0.0507    0.0878    0.0221    0.0000    0.0010    0.0017
y     0.0000    0.0000
z     7.7981    0.0000    0.0000   -0.0000    0.2517    0.0000    0.0000   -0.0000   -0.1307   -0.0000
z     0.0000    0.0000    0.0237   -0.0000    0.0000   -0.0000    0.0000    0.0000
 total charge-density along one line
x    16.0000    0.0000    1.3924   -2.4117    0.2485    0.4304    0.0024   -0.0000    0.0022   -0.0038
x    -0.0005   -0.0008    0.0008   -0.0000   -0.0001    0.0002    0.0001    0.0001   -0.0001    0.0000
x     0.0000    0.0000
y    16.0000    0.0000    1.3924    2.4117    0.2485   -0.4304    0.0024    0.0000    0.0022    0.0038
y    -0.0005    0.0008    0.0008    0.0000   -0.0001   -0.0002    0.0001   -0.0001   -0.0001   -0.0000
y     0.0000   -0.0000
z    16.0000    0.0000    0.0000    0.0000    5.5521   -0.0000    0.0000    0.0000    1.0402   -0.0000
z     0.0000    0.0000    0.0050   -0.0000    0.0000    0.0000    0.0063   -0.0000   -0.0000   -0.0000
z    -0.0020    0.0000   -0.0000    0.0000    0.0009    0.0000   -0.0000    0.0000   -0.0006    0.0000
z     0.0000    0.0000    0.0005    0.0000
 
 pseudopotential strength for first ion, spin component:           1
 -3.243  -0.000  -0.000  -0.000  -0.000  -3.841  -0.000  -0.000
 -0.000  -3.229   0.000  -0.000  -0.000  -0.000  -3.827   0.000
 -0.000   0.000  -3.240  -0.000  -0.000  -0.000   0.000  -3.837
 -0.000  -0.000  -0.000  -3.229  -0.000  -0.000  -0.000  -0.000
 -0.000  -0.000  -0.000  -0.000  -3.243  -0.000  -0.000  -0.000
 -3.841  -0.000  -0.000  -0.000  -0.000  -4.395  -0.000  -0.000
 -0.000  -3.827   0.000  -0.000  -0.000  -0.000  -4.381   0.000
 -0.000   0.000  -3.837  -0.000  -0.000  -0.000   0.000  -4.391
 -0.000  -0.000  -0.000  -3.827  -0.000  -0.000  -0.000  -0.000
 -0.000  -0.000  -0.000  -0.000  -3.840  -0.000  -0.000  -0.000
  0.000  -0.000   0.000   0.000  -0.000   0.000  -0.000   0.000
  0.000  -0.000   0.001   0.000  -0.000   0.000  -0.000   0.001
 -0.000   0.000  -0.000  -0.000  -0.002  -0.000   0.000  -0.000
 -0.000  -0.000   0.000   0.000   0.000  -0.000  -0.000   0.000
 -0.002  -0.000   0.000   0.000  -0.000  -0.002  -0.000   0.000
 -0.000   0.000  -0.000  -0.000  -0.002  -0.000   0.000  -0.000
 -0.000  -0.000   0.000   0.000   0.000  -0.000  -0.000   0.000
 -0.002  -0.000   0.000   0.000  -0.000  -0.002  -0.000   0.000
 total augmentation occupancy for first ion, spin component:           1
  2.009   0.000   0.000   0.000  -0.000  -1.690   0.000  -0.000   0.000   0.000   0.000  -0.000   0.000   0.000   0.043  -0.000
  0.000   2.394  -0.000  -0.000   0.000   0.000  -1.872   0.000   0.000   0.000  -0.000  -0.000   0.000  -0.000  -0.000   0.000
  0.000   0.000   1.641  -0.000  -0.000  -0.000   0.000  -1.400   0.000   0.000   0.007  -0.007   0.000   0.000   0.000  -0.000
  0.000  -0.000  -0.000   2.394   0.000   0.000   0.000   0.000  -1.872  -0.000  -0.000   0.000   0.000   0.000   0.000   0.000
  0.000  -0.000  -0.000   0.000   2.009   0.000   0.000   0.000   0.000  -1.690   0.000  -0.000   0.043  -0.000  -0.000  -0.002
 -1.690   0.000  -0.000   0.000   0.000   2.758   0.000   0.000   0.000   0.000  -0.000   0.000  -0.000   0.000  -0.060   0.000
  0.000  -1.872  -0.000   0.000   0.000  -0.000   2.708   0.000  -0.000   0.000   0.000   0.000   0.000   0.000   0.000   0.000
 -0.000   0.000  -1.400   0.000   0.000   0.000  -0.000   2.531   0.000  -0.000  -0.061   0.001   0.000   0.000   0.000   0.000
  0.000   0.000   0.000  -1.872   0.000  -0.000  -0.000   0.000   2.708   0.000   0.000   0.000   0.000  -0.000  -0.000   0.000
 -0.000   0.000   0.000   0.000  -1.690  -0.000   0.000  -0.000   0.000   2.758  -0.000   0.000  -0.060  -0.000   0.000   0.002
  0.000   0.000   0.007   0.000   0.000  -0.000   0.000  -0.061   0.000  -0.000   3.215  -0.390   0.000   0.000  -0.000   0.000
 -0.000  -0.000  -0.007   0.000  -0.000   0.000   0.000   0.001   0.000   0.000  -0.390   0.054   0.000   0.000   0.000   0.000
  0.000   0.000   0.000   0.000   0.043  -0.000  -0.000   0.000   0.000  -0.060   0.000   0.000   0.446  -0.000  -0.000  -0.033
 -0.000  -0.000   0.000  -0.000   0.000  -0.000   0.000   0.000  -0.000  -0.000   0.000   0.000   0.000   0.433  -0.000  -0.000
  0.043   0.000   0.000   0.000  -0.000  -0.060   0.000  -0.000   0.000   0.000   0.000   0.000  -0.000  -0.000   0.446   0.000
 -0.000   0.000  -0.000   0.000  -0.002   0.000  -0.000  -0.000   0.000   0.002  -0.000   0.000  -0.033   0.000   0.000   0.003
  0.000  -0.000   0.000   0.000   0.000   0.000   0.000   0.000  -0.000  -0.000   0.000   0.000  -0.000  -0.037   0.000  -0.000
 -0.002   0.000   0.000   0.000   0.000   0.002   0.000   0.000   0.000  -0.000  -0.000   0.000   0.000   0.000  -0.033  -0.000


------------------------ aborting loop because EDIFF is reached ----------------------------------------


    CHARGE:  cpu time    0.0174: real time    0.0174
    FORLOC:  cpu time    0.0002: real time    0.0002
    FORNL :  cpu time    0.0837: real time    0.0837
    STRESS:  cpu time    0.1303: real time    0.1303
    FORCOR:  cpu time    0.0030: real time    0.0030
    FORHAR:  cpu time    0.0006: real time    0.0006
    MIXING:  cpu time    0.0002: real time    0.0002

  FORCE on cell =-STRESS in cart. coord.  units (eV):
  Direction    XX          YY          ZZ          XY          YZ          ZX
  --------------------------------------------------------------------------------------
  Alpha Z   160.34558   160.34558   160.34558
  Ewald    -421.91105  -421.91105  -453.74754     0.00000    -0.00000     0.00000
  Hartree    53.49420    53.49420    42.81777    -0.00000    -0.00000    -0.00000
  E(xc)     -80.50259   -80.50259   -80.28360     0.00008     0.00000    -0.00000
  Local     115.88628   115.88641   155.77510    -0.00055     0.00000    -0.00000
  n-local   -48.37037   -48.10292   -50.44858    -5.18590     1.55083     1.06827
  augment    74.73230    74.73212    75.11618     0.00061     0.00000    -0.00000
  Kinetic   159.13292   152.89620   153.56402     1.06189    -1.04547     0.09202
  Fock        0.00000     0.00000     0.00000     0.00000     0.00000     0.00000
  -------------------------------------------------------------------------------------
  Total       9.82262     9.82262     3.13894    -0.00000     0.00000     0.00000
  in kB     912.78896   912.78896   291.69253    -0.00000     0.00000     0.00000
  external pressure =      705.76 kB  Pullay stress =        0.00 kB


 VOLUME and BASIS-vectors are now :
 -----------------------------------------------------------------------------
  energy-cutoff  :      280.00
  volume of cell :       17.24
      direct lattice vectors                 reciprocal lattice vectors
     2.260100000  0.000000000  0.000000000     0.442458298  0.255453418  0.000000000
    -1.130050000  1.957304015  0.000000000     0.000000000  0.510906835  0.000000000
     0.000000000  0.000000000  3.897460000     0.000000000  0.000000000  0.256577361

  length of vectors
     2.260100000  2.260100000  3.897460000     0.510906835  0.510906835  0.256577361


 FORCES acting on ions
    electron-ion (+dipol)            ewald-force                    non-local-force                 convergence-correction
 -----------------------------------------------------------------------------------------------
   0.951E-06 -.656E-06 0.768E-14   0.710E-12 -.404E-12 -.263E-13   -.293E-16 -.405E-18 0.421E-20   -.162E-08 0.930E-09 -.105E-13
   0.997E-07 0.901E-06 0.625E-13   -.709E-12 0.402E-12 0.263E-13   0.299E-16 -.244E-18 -.999E-19   0.159E-08 -.915E-09 0.562E-13
 -----------------------------------------------------------------------------------------------
   0.105E-05 0.245E-06 0.702E-13   0.147E-14 -.133E-14 -.168E-16   0.580E-18 -.649E-18 -.957E-19   -.294E-10 0.152E-10 0.457E-13
 
 
 POSITION                                       TOTAL-FORCE (eV/Angst)
 -----------------------------------------------------------------------------------
      0.00000      0.00000      0.00000        -0.000000     -0.000000      0.000000
      0.00000      1.30487      1.94873         0.000000      0.000000     -0.000000
 -----------------------------------------------------------------------------------
    total drift:                                0.000001      0.000000      0.000000


--------------------------------------------------------------------------------------------------------



  FREE ENERGIE OF THE ION-ELECTRON SYSTEM (eV)
  ---------------------------------------------------
  free  energy   TOTEN  =       -15.55713308 eV

  energy  without entropy=      -15.55744797  energy(sigma->0) =      -15.55723804
 


--------------------------------------------------------------------------------------------------------


    POTLOK:  cpu time    0.0051: real time    0.0051


--------------------------------------------------------------------------------------------------------


 writing wavefunctions
     LOOP+:  cpu time    9.3676: real time    9.3878
    4ORBIT:  cpu time    0.0000: real time    0.0000

 total amount of memory used by VASP MPI-rank0    47645. kBytes
=======================================================================

   base      :      30000. kBytes
   nonl-proj :       2701. kBytes
   grid      :        721. kBytes
   one-center:         31. kBytes
   wavefun   :      14192. kBytes
 
  
  
 General timing and accounting informations for this job:
 ========================================================
  
                  Total CPU time used (sec):        9.532
                            User time (sec):        9.488
                          System time (sec):        0.044
                         Elapsed time (sec):        9.541
  
                   Maximum memory used (kb):       51756.
                   Average memory used (kb):          N/A
  
                          Minor page faults:         6847
                          Major page faults:            0
                 Voluntary context switches:           26
