unknown system                          
   1.00000000000000     
     2.330000    0.000000    0.000000
    -1.165000    2.017839    0.000000
     0.000000    0.000000    4.018000
   Fe
     2
Direct
  0.000000  0.000000  0.000000
  0.333333  0.666667  0.500000
 
   20   20   32
  158.42      150.11      127.78      97.780      67.238      41.597      23.657      13.671      9.7572      8.6946    
  8.3680      8.6948      9.7573      13.671      23.656      41.597      67.239      97.780      127.78      150.11    
  150.12      150.11      134.84      108.85      78.979      51.478      30.383      17.151      10.907      8.9796    
  8.3583      8.3579      8.9792      10.908      17.152      30.381      51.477      78.982      108.86      134.85    
  127.79      134.81      127.78      108.85      83.323      57.276      35.472      20.425      12.309      9.2839    
  8.3756      8.0692      8.3747      9.2838      12.310      20.424      35.469      57.274      83.327      108.86    
  97.776      108.78      108.78      97.780      78.979      57.276      37.369      22.410      13.480      9.6232    
  8.4089      7.8616      7.8612      8.4086      9.6239      13.481      22.410      37.366      57.271      78.973    
  67.227      78.871      83.178      78.881      67.238      51.478      35.472      22.410      13.936      9.8599    
  8.4407      7.7390      7.4979      7.7391      8.4408      9.8608      13.939      22.414      35.472      51.471    
  41.596      51.396      57.130      57.133      51.401      41.597      30.383      20.425      13.480      9.8599    
  8.4537      7.6857      7.2925      7.2928      7.6857      8.4525      9.8596      13.484      20.432      30.388    
  23.665      30.364      35.403      37.274      35.400      30.357      23.657      17.152      12.309      9.6231    
  8.4407      7.6857      7.2275      7.0792      7.2282      7.6848      8.4372      9.6197      12.310      17.158    
  13.671      17.180      20.450      22.419      22.415      20.442      17.174      13.671      10.907      9.2839    
  8.4090      7.7391      7.2924      7.0792      7.0800      7.2937      7.7387      8.4052      9.2772      10.902    
  9.7480      10.946      12.384      13.571      14.028      13.568      12.384      10.952      9.7572      8.9796    
  8.3756      7.8616      7.4978      7.2928      7.2283      7.2937      7.5006      7.8650      8.3755      8.9735    
  8.6944      9.0222      9.3694      9.7437      9.9997      10.001      9.7478      9.3761      9.0279      8.6947    
  8.3582      8.0692      7.8612      7.7391      7.6858      7.6848      7.7386      7.8650      8.0766      8.3641    
  8.3765      8.4131      8.4704      8.5381      8.5957      8.6200      8.5991      8.5415      8.4697      8.4070    
  8.3680      8.3579      8.3748      8.4086      8.4407      8.4525      8.4372      8.4051      8.3756      8.3641    
  8.6943      8.4130      8.1724      8.0023      7.9075      7.8708      7.8717      7.9078      7.9985      8.1652    
  8.4074      8.6947      8.9793      9.2838      9.6238      9.8608      9.8596      9.6197      9.2773      8.9735    
  9.7479      9.0222      8.4705      8.0023      7.6733      7.4907      7.4340      7.4899      7.6706      7.9988    
  8.4705      9.0283      9.7573      10.908      12.310      13.481      13.939      13.484      12.310      10.902    
  13.671      10.946      9.3695      8.5381      7.9074      7.4907      7.2930      7.2924      7.4895      7.9078    
  8.5419      9.3760      10.952      13.671      17.152      20.424      22.410      22.414      20.432      17.158    
  23.665      17.180      12.384      9.7437      8.5956      7.8709      7.4341      7.2923      7.4332      7.8717    
  8.5991      9.7471      12.384      17.174      23.657      30.381      35.469      37.366      35.472      30.388    
  41.596      30.364      20.450      13.570      9.9997      8.6200      7.8717      7.4899      7.4895      7.8717    
  8.6212      10.000      13.567      20.443      30.359      41.597      51.476      57.274      57.271      51.471    
  67.226      51.396      35.403      22.419      14.029      10.001      8.5991      7.9077      7.6706      7.9078    
  8.5992      10.000      14.026      22.415      35.403      51.403      67.239      78.982      83.327      78.973    
  97.776      78.871      57.130      37.274      22.415      13.568      9.7477      8.5415      7.9985      7.9988    
  8.5419      9.7471      13.567      22.415      37.277      57.136      78.877      97.780      108.86      108.86    
  127.79      108.78      83.179      57.133      35.400      20.442      12.384      9.3761      8.4698      8.1651    
  8.4704      9.3760      12.384      20.443      35.403      57.136      83.175      108.77      127.78      134.85    
  150.12      134.81      108.78      78.881      51.401      30.357      17.174      10.952      9.0279      8.4070    
  8.4074      9.0283      10.952      17.174      30.359      51.403      78.877      108.77      134.80      150.11    
  148.79      141.00      120.03      91.832      63.108      39.031      22.281      13.073      9.5361      8.5462    
  8.2290      8.5463      9.5363      13.073      22.281      39.031      63.108      91.833      120.03      141.00    
  141.00      141.00      126.66      102.24      74.137      48.283      28.526      16.246      10.550      8.8114    
  8.2080      8.2076      8.8111      10.551      16.246      28.524      48.282      74.140      102.24      126.67    
  120.04      126.64      120.03      102.24      78.219      53.720      33.267      19.253      11.801      9.0774    
  8.2173      7.9213      8.2164      9.0773      11.802      19.253      33.264      53.718      78.222      102.24    
  91.829      102.18      102.18      91.833      74.137      53.720      35.037      21.084      12.854      9.3681    
  8.2451      7.7172      7.7168      8.2448      9.3687      12.855      21.083      35.034      53.715      74.132    
  63.097      74.061      78.117      74.070      63.108      48.283      33.267      21.084      13.266      9.5721    
  8.2736      7.5973      7.3665      7.5975      8.2737      9.5728      13.269      21.087      33.267      48.277    
  39.030      48.238      53.633      53.636      48.243      39.031      28.526      19.253      12.854      9.5721    
  8.2855      7.5453      7.1695      7.1698      7.5453      8.2844      9.5717      12.858      19.260      28.531    
  22.289      28.542      33.262      35.017      33.259      28.536      22.281      16.246      11.801      9.3680    
  8.2736      7.5453      7.1072      6.9661      7.1079      7.5445      8.2705      9.3650      11.802      16.252    
  13.073      16.306      19.338      21.170      21.167      19.331      16.300      13.073      10.550      9.0773    
  8.2452      7.5974      7.1694      6.9661      6.9667      7.1705      7.5971      8.2417      9.0712      10.545    
  9.5277      10.618      11.931      13.020      13.441      13.017      11.931      10.623      9.5362      8.8114    
  8.2172      7.7173      7.3664      7.1698      7.1080      7.1705      7.3689      7.7203      8.2172      8.8058    
  8.5459      8.8810      9.2151      9.5611      9.7959      9.7970      9.5649      9.2211      8.8862      8.5462    
  8.2079      7.9213      7.7169      7.5974      7.5454      7.5445      7.5970      7.7203      7.9281      8.2133    
  8.2369      8.2883      8.3627      8.4464      8.5152      8.5433      8.5183      8.4494      8.3620      8.2828    
  8.2290      8.2076      8.2165      8.2448      8.2736      8.2844      8.2704      8.2416      8.2173      8.2133    
  8.5458      8.2883      8.0743      7.9294      7.8541      7.8279      7.8287      7.8544      7.9259      8.0676    
  8.2831      8.5463      8.8111      9.0773      9.3686      9.5728      9.5718      9.3650      9.0713      8.8058    
  9.5276      8.8810      8.3628      7.9294      7.6306      7.4680      7.4183      7.4674      7.6282      7.9262    
  8.3628      8.8866      9.5362      10.551      11.802      12.855      13.269      12.858      11.802      10.545    
  13.073      10.618      9.2152      8.4464      7.8540      7.4680      7.2870      7.2864      7.4670      7.8544    
  8.4498      9.2211      10.623      13.073      16.246      19.253      21.083      21.087      19.260      16.252    
  22.289      16.306      11.931      9.5611      8.5151      7.8279      7.4184      7.2864      7.4176      7.8286    
  8.5183      9.5642      11.930      16.300      22.281      28.524      33.264      35.034      33.267      28.531    
  39.030      28.542      19.338      13.020      9.7959      8.5434      7.8288      7.4673      7.4670      7.8287    
  8.5444      9.7963      13.016      19.332      28.537      39.031      48.282      53.718      53.715      48.277    
  63.097      48.238      33.262      21.170      13.441      9.7970      8.5183      7.8544      7.6282      7.8544    
  8.5183      9.7963      13.439      21.167      33.262      48.244      63.108      74.140      78.222      74.132    
  91.829      74.061      53.633      35.017      21.167      13.017      9.5648      8.4494      7.9260      7.9263    
  8.4498      9.5642      13.016      21.167      35.020      53.638      74.066      91.833      102.25      102.24    
  120.04      102.18      78.117      53.636      33.259      19.331      11.931      9.2212      8.3621      8.0676    
  8.3627      9.2211      11.930      19.332      33.262      53.638      78.114      102.17      120.03      126.67    
  141.00      126.64      102.18      74.070      48.243      28.536      16.300      10.623      8.8862      8.2827    
  8.2831      8.8867      10.623      16.300      28.537      48.244      74.066      102.17      126.62      141.00    
  123.30      116.85      99.473      76.033      52.157      32.283      18.729      11.574      8.9810      8.1443    
  7.8555      8.1445      8.9811      11.574      18.729      32.283      52.158      76.033      99.473      116.85    
  116.86      116.85      104.96      84.663      61.282      39.845      23.686      13.945      9.6661      8.3578    
  7.8055      7.8052      8.3574      9.6665      13.945      23.685      39.845      61.284      84.671      104.97    
  99.480      104.96      99.473      84.663      64.662      44.309      27.492      16.246      10.533      8.5474    
  7.7911      7.5255      7.7903      8.5472      10.534      16.245      27.490      44.307      64.664      84.670    
  76.031      84.660      84.661      76.033      61.281      44.309      28.920      17.664      11.282      8.7264    
  7.8009      7.3291      7.3288      7.8006      8.7267      11.283      17.663      28.917      44.305      61.277    
  52.149      61.290      64.675      61.296      52.157      39.845      27.492      17.664      11.580      8.8514    
  7.8177      7.2140      7.0117      7.2142      7.8178      8.8518      11.581      17.666      27.492      39.840    
  32.282      39.896      44.379      44.382      39.901      32.283      23.686      16.246      11.282      8.8514    
  7.8255      7.1637      6.8355      6.8359      7.1640      7.8247      8.8511      11.285      16.251      23.690    
  18.735      23.794      27.654      29.097      27.652      23.789      18.729      13.945      10.533      8.7263    
  7.8177      7.1638      6.7801      6.6579      6.7807      7.1633      7.8154      8.7240      10.534      13.950    
  11.574      14.084      16.485      17.952      17.949      16.480      14.080      11.574      9.6661      8.5473    
  7.8010      7.2141      6.8354      6.6579      6.6584      6.8362      7.2138      7.7983      8.5427      9.6620    
  8.9744      9.8050      10.801      11.636      11.962      11.634      10.801      9.8094      8.9811      8.3578    
  7.7911      7.3291      7.0117      6.8358      6.7808      6.8363      7.0134      7.3314      7.7910      8.3534    
  8.1441      8.4931      8.8121      9.0951      9.2783      9.2790      9.0978      8.8166      8.4971      8.1444    
  7.8055      7.5255      7.3288      7.2141      7.1640      7.1633      7.2137      7.3314      7.5308      7.8096    
  7.8616      7.9468      8.0564      8.1709      8.2602      8.2952      8.2626      8.1731      8.0558      7.9424    
  7.8555      7.8052      7.7904      7.8005      7.8177      7.8247      7.8153      7.7983      7.7911      7.8096    
  8.1440      7.9467      7.7948      7.7046      7.6687      7.6626      7.6632      7.6690      7.7019      7.7897    
  7.9428      8.1444      8.3575      8.5472      8.7266      8.8518      8.8511      8.7240      8.5428      8.3534    
  8.9743      8.4931      8.0565      7.7046      7.4719      7.3510      7.3153      7.3507      7.4703      7.7022    
  8.0565      8.4975      8.9811      9.6665      10.534      11.283      11.581      11.285      10.534      9.6620    
  11.574      9.8050      8.8122      8.1709      7.6686      7.3510      7.2054      7.2050      7.3503      7.6689    
  8.1735      8.8167      9.8090      11.574      13.945      16.245      17.664      17.666      16.251      13.950    
  18.735      14.084      10.801      9.0950      8.2602      7.6626      7.3154      7.2050      7.3147      7.6630    
  8.2626      9.0974      10.800      14.080      18.729      23.685      27.490      28.917      27.492      23.690    
  32.282      23.794      16.485      11.636      9.2783      8.2953      7.6633      7.3506      7.3502      7.6630    
  8.2960      9.2786      11.633      16.480      23.790      32.283      39.844      44.307      44.305      39.841    
  52.149      39.896      27.654      17.952      11.962      9.2791      8.2625      7.6690      7.4702      7.6690    
  8.2626      9.2786      11.960      17.949      27.654      39.901      52.158      61.284      64.664      61.277    
  76.031      61.290      44.379      29.097      17.949      11.634      9.0977      8.1731      7.7020      7.7022    
  8.1735      9.0974      11.633      17.949      29.100      44.384      61.294      76.033      84.671      84.670    
  99.480      84.660      64.675      44.382      27.652      16.480      10.801      8.8167      8.0559      7.7896    
  8.0564      8.8167      10.800      16.480      27.654      44.384      64.672      84.653      99.473      104.97    
  116.86      104.96      84.661      61.296      39.900      23.789      14.080      9.8095      8.4971      7.9424    
  7.9427      8.4975      9.8091      14.080      23.790      39.901      61.294      84.653      104.95      116.85    
  90.147      85.420      72.654      55.429      37.980      23.729      14.414      9.8624      8.3038      7.6007    
  7.3570      7.6008      8.3039      9.8624      14.414      23.729      37.980      55.429      72.654      85.420    
  85.423      85.420      76.672      61.733      44.570      29.032      17.678      11.240      8.6605      7.7382    
  7.2698      7.2695      7.7380      8.6609      11.241      17.678      29.031      44.571      61.738      76.678    
  72.658      76.699      72.654      61.733      47.019      32.193      20.242      12.638      9.0901      7.8607    
  7.2185      6.9993      7.2178      7.8605      9.0906      12.638      20.241      32.192      47.021      61.737    
  55.427      61.799      61.800      55.429      44.570      32.193      21.214      13.522      9.4761      7.9480    
  7.1960      6.8083      6.8081      7.1957      7.9481      9.4765      13.522      21.212      32.191      44.567    
  37.975      44.687      47.181      44.691      37.980      29.032      20.242      13.522      9.6331      7.9971    
  7.1902      6.6939      6.5319      6.6941      7.1903      7.9972      9.6339      13.523      20.242      29.029    
  23.729      29.206      32.466      32.467      29.209      23.729      17.678      12.638      9.4761      7.9971    
  7.1899      6.6424      6.3796      6.3799      6.6427      7.1895      7.9969      9.4777      12.642      17.681    
  14.418      17.899      20.615      21.640      20.613      17.897      14.414      11.240      9.0901      7.9479    
  7.1903      6.6424      6.3317      6.2343      6.3322      6.6422      7.1889      7.9466      9.0906      11.243    
  9.8620      11.477      13.068      14.058      14.056      13.064      11.474      9.8624      8.6605      7.8606    
  7.1961      6.6940      6.3795      6.2343      6.2345      6.3799      6.6937      7.1944      7.8578      8.6579    
  8.2995      8.8853      9.5239      10.056      10.264      10.054      9.5239      8.8882      8.3039      7.7382    
  7.2185      6.8084      6.5319      6.3799      6.3323      6.3799      6.5327      6.8097      7.2184      7.7354    
  7.6005      7.9508      8.2741      8.5211      8.6593      8.6596      8.5226      8.2768      7.9534      7.6007    
  7.2697      6.9993      6.8081      6.6941      6.6428      6.6423      6.6936      6.8097      7.0026      7.2723    
  7.3608      7.4806      7.6195      7.7544      7.8548      7.8927      7.8561      7.7557      7.6190      7.4779    
  7.3569      7.2695      7.2179      7.1957      7.1903      7.1895      7.1889      7.1944      7.2185      7.2724    
  7.6004      7.4806      7.3982      7.3604      7.3569      7.3650      7.3654      7.3572      7.3588      7.3949    
  7.4781      7.6007      7.7380      7.8605      7.9480      7.9972      7.9969      7.9466      7.8579      7.7354    
  8.2994      7.9508      7.6196      7.3605      7.1944      7.1108      7.0868      7.1108      7.1936      7.3591    
  7.6195      7.9536      8.3039      8.6609      9.0906      9.4765      9.6339      9.4778      9.0906      8.6579    
  9.8621      8.8853      8.2741      7.7544      7.3568      7.1108      6.9995      6.9994      7.1105      7.3571    
  7.7560      8.2769      8.8878      9.8624      11.241      12.638      13.522      13.523      12.642      11.243    
  14.418      11.477      9.5238      8.5211      7.8547      7.3650      7.0869      6.9993      7.0863      7.3650    
  7.8561      8.5225      9.5233      11.474      14.414      17.678      20.241      21.212      20.242      17.681    
  23.729      17.899      13.068      10.055      8.6593      7.8927      7.3655      7.1108      7.1104      7.3651    
  7.8930      8.6595      10.054      13.064      17.897      23.729      29.031      32.192      32.191      29.029    
  37.975      29.206      20.615      14.058      10.264      8.6596      7.8561      7.3572      7.1936      7.3571    
  7.8561      8.6595      10.263      14.056      20.615      29.209      37.980      44.571      47.021      44.567    
  55.427      44.687      32.466      21.640      14.056      10.054      8.5225      7.7557      7.3589      7.3591    
  7.7560      8.5224      10.054      14.056      21.641      32.468      44.689      55.429      61.738      61.737    
  72.658      61.799      47.182      32.467      20.613      13.064      9.5238      8.2768      7.6190      7.3949    
  7.6195      8.2769      9.5233      13.064      20.615      32.468      47.180      61.795      72.654      76.678    
  85.423      76.699      61.800      44.691      29.209      17.896      11.474      8.8882      7.9534      7.4778    
  7.4781      7.9537      8.8878      11.474      17.897      29.209      44.689      61.795      76.693      85.420    
  58.065      54.997      46.726      35.648      24.644      16.024      10.816      8.5414      7.6115      7.0470    
  6.8590      7.0471      7.6116      8.5414      10.815      16.024      24.644      35.648      46.726      54.997    
  54.998      54.997      49.310      39.644      28.692      19.081      12.474      9.0969      7.8075      7.0946    
  6.7316      6.7314      7.0944      7.8079      9.0975      12.475      19.081      28.692      39.646      49.312    
  46.728      49.360      46.726      39.644      30.209      20.941      13.834      9.6946      7.9530      7.1379    
  6.6355      6.4704      6.6350      7.1378      7.9534      9.6949      13.834      20.940      30.210      39.646    
  35.648      39.773      39.773      35.649      28.692      20.941      14.360      10.090      8.0664      7.1670    
  6.5708      6.2793      6.2791      6.5705      7.1669      8.0665      10.089      14.359      20.940      28.690    
  24.641      28.904      30.503      28.906      24.644      19.081      13.834      10.090      8.1130      7.1804    
  6.5344      6.1585      6.0392      6.1586      6.5344      7.1803      8.1130      10.090      13.834      19.080    
  16.024      19.363      21.390      21.391      19.365      16.024      12.474      9.6946      8.0664      7.1804    
  6.5227      6.1010      5.9054      5.9057      6.1015      6.5227      7.1802      8.0671      9.6964      12.476    
  10.817      12.796      14.391      15.003      14.391      12.795      10.816      9.0969      7.9530      7.1670    
  6.5344      6.1010      5.8629      5.7893      5.8633      6.1011      6.5339      7.1665      7.9534      9.0984    
  8.5410      9.4215      10.294      10.846      10.846      10.292      9.4206      8.5414      7.8076      7.1379    
  6.5709      6.1585      5.9054      5.7892      5.7893      5.9054      6.1583      6.5702      7.1366      7.8063    
  7.6093      8.1136      8.5413      8.8544      8.9728      8.8537      8.5412      8.1151      7.6115      7.0946    
  6.6355      6.2793      6.0392      5.9057      5.8634      5.9055      6.0393      6.2798      6.6355      7.0932    
  7.0469      7.3831      7.6968      7.9393      8.0711      8.0712      7.9397      7.6979      7.3843      7.0470    
  6.7316      6.4704      6.2791      6.1586      6.1015      6.1012      6.1583      6.2798      6.4720      6.7328    
  6.8608      7.0124      7.1728      7.3189      7.4228      7.4608      7.4233      7.3193      7.1724      7.0111    
  6.8590      6.7314      6.6351      6.5705      6.5344      6.5227      6.5339      6.5701      6.6355      6.7328    
  7.0468      7.0124      7.0009      7.0129      7.0375      7.0570      7.0572      7.0378      7.0122      6.9993    
  7.0112      7.0470      7.0944      7.1378      7.1669      7.1803      7.1803      7.1665      7.1367      7.0932    
  7.6093      7.3830      7.1729      7.0129      6.9140      6.8664      6.8534      6.8667      6.9139      7.0124    
  7.1728      7.3844      7.6116      7.8079      7.9534      8.0665      8.1131      8.0671      7.9534      7.8063    
  8.5411      8.1136      7.6968      7.3189      7.0375      6.8664      6.7898      6.7898      6.8664      7.0376    
  7.3196      7.6980      8.1148      8.5414      9.0975      9.6949      10.090      10.090      9.6963      9.0984    
  10.817      9.4216      8.5412      7.9393      7.4228      7.0570      6.8534      6.7898      6.8529      7.0568    
  7.4233      7.9398      8.5408      9.4200      10.816      12.475      13.834      14.359      13.834      12.476    
  16.024      12.796      10.294      8.8544      8.0712      7.4608      7.0573      6.8666      6.8663      7.0568    
  7.4609      8.0713      8.8537      10.292      12.794      16.024      19.081      20.940      20.940      19.080    
  24.641      19.363      14.391      10.846      8.9728      8.0712      7.4233      7.0378      6.9139      7.0377    
  7.4233      8.0713      8.9727      10.846      14.391      19.365      24.644      28.692      30.210      28.690    
  35.648      28.904      21.390      15.003      10.846      8.8537      7.9397      7.3193      7.0123      7.0124    
  7.3196      7.9398      8.8537      10.846      15.004      21.392      28.906      35.649      39.646      39.646    
  46.728      39.773      30.504      21.391      14.391      10.292      8.5412      7.6979      7.1725      6.9993    
  7.1728      7.6980      8.5408      10.292      14.391      21.392      30.503      39.771      46.726      49.312    
  54.998      49.360      39.773      28.906      19.365      12.795      9.4206      8.1151      7.3843      7.0110    
  7.0112      7.3845      8.1148      9.4200      12.794      19.365      28.906      39.771      49.357      54.997    
  33.042      31.326      26.742      20.740      15.036      10.910      8.6922      7.6821      6.9954      6.5863    
  6.4547      6.5864      6.9954      7.6821      8.6922      10.910      15.036      20.740      26.742      31.326    
  31.326      31.326      28.149      22.835      17.014      12.216      9.2403      7.8544      7.0729      6.5412    
  6.2852      6.2851      6.5411      7.0732      7.8550      9.2407      12.216      17.015      22.836      28.149    
  26.743      28.211      26.742      22.835      17.770      13.044      9.7222      7.9905      7.1222      6.5028    
  6.1435      6.0293      6.1432      6.5026      7.1225      7.9909      9.7223      13.044      17.770      22.836    
  20.740      22.998      22.998      20.740      17.014      13.044      9.9156      8.0803      7.1437      6.4715    
  6.0364      5.8331      5.8331      6.0362      6.4713      7.1436      8.0801      9.9152      13.043      17.014    
  15.036      17.282      18.139      17.282      15.036      12.216      9.7222      8.0803      7.1487      6.4530    
  5.9691      5.7017      5.6187      5.7018      5.9691      6.4528      7.1484      8.0802      9.7223      12.216    
  10.910      12.562      13.596      13.596      12.562      10.910      9.2403      7.9906      7.1437      6.4530    
  5.9461      5.6359      5.4953      5.4955      5.6363      5.9462      6.4529      7.1438      7.9911      9.2409    
  8.6926      9.6257      10.394      10.693      10.394      9.6255      8.6922      7.8545      7.1222      6.4715    
  5.9691      5.6359      5.4552      5.3992      5.4554      5.6361      5.9691      6.4715      7.1225      7.8550    
  7.6819      8.2449      8.7108      8.9908      8.9907      8.7106      8.2449      7.6821      7.0730      6.5027    
  6.0364      5.7017      5.4952      5.3992      5.3992      5.4951      5.7016      6.0363      6.5025      7.0726    
  6.9947      7.4513      7.8426      8.1055      8.1978      8.1053      7.8426      7.4518      6.9954      6.5412    
  6.1435      5.8332      5.6187      5.4955      5.4554      5.4952      5.6185      5.8332      6.1435      6.5407    
  6.5863      6.9059      7.2054      7.4393      7.5677      7.5676      7.4392      7.2055      6.9062      6.5863    
  6.2852      6.0293      5.8331      5.7018      5.6363      5.6362      5.7016      5.8332      6.0298      6.2855    
  6.4552      6.6424      6.8303      6.9949      7.1088      7.1496      7.1087      6.9948      6.8301      6.6420    
  6.4547      6.2851      6.1433      6.0361      5.9691      5.9462      5.9691      6.0362      6.1435      6.2855    
  6.5862      6.6424      6.7105      6.7841      6.8489      6.8875      6.8876      6.8491      6.7839      6.7101    
  6.6421      6.5863      6.5411      6.5026      6.4713      6.4528      6.4529      6.4715      6.5025      6.5408    
  6.9946      6.9059      6.8304      6.7841      6.7673      6.7678      6.7703      6.7681      6.7676      6.7840    
  6.8303      6.9063      6.9954      7.0732      7.1225      7.1436      7.1484      7.1438      7.1225      7.0726    
  7.6819      7.4513      7.2054      6.9949      6.8488      6.7678      6.7349      6.7350      6.7679      6.8490    
  6.9950      7.2056      7.4515      7.6821      7.8550      7.9909      8.0801      8.0802      7.9911      7.8550    
  8.6927      8.2450      7.8426      7.4393      7.1087      6.8875      6.7704      6.7350      6.7701      6.8873    
  7.1087      7.4394      7.8424      8.2444      8.6922      9.2407      9.7223      9.9152      9.7222      9.2409    
  10.910      9.6257      8.7108      8.1055      7.5677      7.1496      6.8877      6.7681      6.7679      6.8873    
  7.1495      7.5678      8.1054      8.7103      9.6251      10.910      12.216      13.044      13.043      12.216    
  15.036      12.562      10.394      8.9908      8.1979      7.5676      7.1087      6.8491      6.7676      6.8490    
  7.1087      7.5678      8.1981      8.9909      10.394      12.562      15.036      17.015      17.770      17.014    
  20.739      17.282      13.596      10.693      8.9907      8.1053      7.4391      6.9948      6.7840      6.7841    
  6.9950      7.4393      8.1054      8.9909      10.694      13.596      17.282      20.740      22.836      22.836    
  26.743      22.998      18.139      13.596      10.394      8.7106      7.8426      7.2055      6.8301      6.7100    
  6.8303      7.2056      7.8424      8.7103      10.394      13.596      18.139      22.998      26.742      28.149    
  31.326      28.211      22.998      17.282      12.562      9.6255      8.2449      7.4518      6.9062      6.6420    
  6.6421      6.9063      7.4516      8.2444      9.6251      12.562      17.282      22.998      28.211      31.326    
  17.385      16.623      14.631      12.142      9.9593      8.5311      7.6895      7.0214      6.5442      6.2756    
  6.1913      6.2757      6.5443      7.0214      7.6894      8.5311      9.9594      12.142      14.631      16.623    
  16.623      16.623      15.217      12.943      10.604      8.8477      7.8071      7.0738      6.5050      6.1439    
  5.9765      5.9765      6.1439      6.5051      7.0741      7.8074      8.8478      10.604      12.943      15.217    
  14.631      15.280      14.631      12.944      10.860      9.0616      7.8820      7.1011      6.4701      6.0339    