unknown system                          
   1.00000000000000     
     2.330000    0.000000    0.000000
    -1.165000    2.017839    0.000000
     0.000000    0.000000    4.018000
   Fe
     2
Direct
  0.000000  0.000000  0.000000
  0.333333  0.666667  0.500000
 
   20   20   32
 0.15841768483E+03 0.15011488811E+03 0.12778380473E+03 0.97779847497E+02 0.67238454532E+02
 0.41596893792E+02 0.23656602433E+02 0.13671485771E+02 0.97571633174E+01 0.86946266959E+01
 0.83679920903E+01 0.86947941947E+01 0.97573057731E+01 0.13671459292E+02 0.23656481362E+02
 0.41596858186E+02 0.67238558132E+02 0.97779971041E+02 0.12778383331E+03 0.15011485328E+03
 0.15012059721E+03 0.15011479609E+03 0.13483640270E+03 0.10885103100E+03 0.78978697758E+02
 0.51477842148E+02 0.30382572936E+02 0.17151454592E+02 0.10907305855E+02 0.89796190137E+01
 0.83583052768E+01 0.83579144255E+01 0.89792219571E+01 0.10907687747E+02 0.17151533348E+02
 0.30381023181E+02 0.51476558659E+02 0.78982436440E+02 0.10886186255E+03 0.13484925361E+03
 0.12779234054E+03 0.13481024480E+03 0.12778382529E+03 0.10885112034E+03 0.83323311802E+02
 0.57276351029E+02 0.35472171310E+02 0.20424957271E+02 0.12309402655E+02 0.92839304365E+01
 0.83756479848E+01 0.80691771239E+01 0.83747419235E+01 0.92838099709E+01 0.12310178407E+02
 0.20424199987E+02 0.35468723266E+02 0.57273714540E+02 0.83326697200E+02 0.10886059361E+03
 0.97776167134E+02 0.10877544587E+03 0.10877673338E+03 0.97780018655E+02 0.78978667655E+02
 0.57276276333E+02 0.37369017359E+02 0.22410171970E+02 0.13479816197E+02 0.96231910358E+01
 0.84089483556E+01 0.78615593854E+01 0.78611965334E+01 0.84085906368E+01 0.96238765224E+01
 0.13481011494E+02 0.22409802583E+02 0.37365577320E+02 0.57270505582E+02 0.78972888600E+02
 0.67226535329E+02 0.78871323215E+02 0.83178417956E+02 0.78880807355E+02 0.67238464757E+02
 0.51477694340E+02 0.35472212725E+02 0.22410227831E+02 0.13935952502E+02 0.98599271722E+01
 0.84406658253E+01 0.77390210092E+01 0.74978716592E+01 0.77391028680E+01 0.84407519262E+01
 0.98607831536E+01 0.13938619487E+02 0.22413606490E+02 0.35472238843E+02 0.51470814726E+02
 0.41595627482E+02 0.51395731050E+02 0.57129810319E+02 0.57132994870E+02 0.51401423361E+02
 0.41596816254E+02 0.30382581650E+02 0.20425075012E+02 0.13479766405E+02 0.98598893865E+01
 0.84536785728E+01 0.76856662616E+01 0.72924962951E+01 0.72928445971E+01 0.76856815185E+01
 0.84524616621E+01 0.98595524504E+01 0.13483584698E+02 0.20432443555E+02 0.30387997817E+02
 0.23664988588E+02 0.30364331207E+02 0.35403181352E+02 0.37274004420E+02 0.35399726363E+02
 0.30357440854E+02 0.23656543359E+02 0.17151533567E+02 0.12309378274E+02 0.96231038006E+01
 0.84407227005E+01 0.76856904697E+01 0.72274741031E+01 0.70792461037E+01 0.72281778599E+01
 0.76847841165E+01 0.84372363493E+01 0.96197393143E+01 0.12310178407E+02 0.17157610582E+02
 0.13671087713E+02 0.17179686942E+02 0.20450151903E+02 0.22418789856E+02 0.22415019441E+02
 0.20441969849E+02 0.17173640339E+02 0.13671469176E+02 0.10907350657E+02 0.92838543365E+01
 0.84089844167E+01 0.77390816039E+01 0.72924274759E+01 0.70792268749E+01 0.70799509837E+01
 0.72937037215E+01 0.77387312892E+01 0.84051583088E+01 0.92771686850E+01 0.10901572235E+02
 0.97480082722E+01 0.10946104193E+02 0.12384331015E+02 0.13570545798E+02 0.14028393253E+02
 0.13567993481E+02 0.12384307865E+02 0.10952130218E+02 0.97572248105E+01 0.89796065548E+01
 0.83756112417E+01 0.78616226349E+01 0.74978212019E+01 0.72927990548E+01 0.72282643780E+01
 0.72937269984E+01 0.75005969613E+01 0.78650004403E+01 0.83755321984E+01 0.89734780243E+01
 0.86944005391E+01 0.90222110268E+01 0.93694379710E+01 0.97436905346E+01 0.99996809036E+01
 0.10000909397E+02 0.97478209087E+01 0.93760579625E+01 0.90278947760E+01 0.86946829120E+01
 0.83582380523E+01 0.80692017272E+01 0.78612289793E+01 0.77390595271E+01 0.76857508242E+01
 0.76848292141E+01 0.77386273535E+01 0.78649696366E+01 0.80765836444E+01 0.83640520139E+01
 0.83764993164E+01 0.84130592962E+01 0.84704343051E+01 0.85381272446E+01 0.85957119008E+01
 0.86199593685E+01 0.85991439295E+01 0.85415298557E+01 0.84697410491E+01 0.84070369232E+01
 0.83679746444E+01 0.83578815305E+01 0.83748209669E+01 0.84085757040E+01 0.84407227005E+01
 0.84524850035E+01 0.84371502484E+01 0.84051073148E+01 0.83756479848E+01 0.83640863435E+01
 0.86942804022E+01 0.84130296071E+01 0.81724366340E+01 0.80022617763E+01 0.79074864024E+01
 0.78708378222E+01 0.78716898460E+01 0.79077847428E+01 0.79984714845E+01 0.81651642412E+01
 0.84074203509E+01 0.86947302739E+01 0.89792602611E+01 0.92838290514E+01 0.96237833955E+01
 0.98607737959E+01 0.98595808784E+01 0.96197334227E+01 0.92772638655E+01 0.89735287872E+01
 0.97479125011E+01 0.90221730678E+01 0.84705494402E+01 0.80022783732E+01 0.76733189997E+01
 0.74906922474E+01 0.74339803878E+01 0.74898996504E+01 0.76706292017E+01 0.79988177783E+01
 0.84704846393E+01 0.90282884317E+01 0.97572714952E+01 0.10907722236E+02 0.12310121864E+02
 0.13480997108E+02 0.13938724488E+02 0.13483620104E+02 0.12310146245E+02 0.10901561922E+02
 0.13671126742E+02 0.10946129222E+02 0.93695259952E+01 0.85381402118E+01 0.79073868890E+01
 0.74906944576E+01 0.72930257853E+01 0.72923675335E+01 0.74895406208E+01 0.79077720070E+01
 0.85418517513E+01 0.93760233364E+01 0.10951771188E+02 0.13671481725E+02 0.17151559295E+02
 0.20424203338E+02 0.22409868801E+02 0.22413616847E+02 0.20432329165E+02 0.17157557555E+02
 0.23665109659E+02 0.17179744177E+02 0.12384286168E+02 0.97436545888E+01 0.85956400815E+01
 0.78708570443E+01 0.74340565089E+01 0.72923470757E+01 0.74332367976E+01 0.78716632323E+01
 0.85991439295E+01 0.97471075729E+01 0.12383517591E+02 0.17173588440E+02 0.23656543359E+02
 0.30381031267E+02 0.35468697148E+02 0.37365533133E+02 0.35472171310E+02 0.30387997189E+02
 0.41595691879E+02 0.30364317222E+02 0.20450031718E+02 0.13570499859E+02 0.99997277184E+01
 0.86200003758E+01 0.78717392776E+01 0.74898515738E+01 0.74894903340E+01 0.78716934418E+01
 0.86211984158E+01 0.10000101139E+02 0.13566791567E+02 0.20442800184E+02 0.30358976068E+02
 0.41596845044E+02 0.51476492427E+02 0.57273674340E+02 0.57270540077E+02 0.51470896302E+02
 0.67226489521E+02 0.51395624925E+02 0.35403124814E+02 0.22418821477E+02 0.14028500594E+02
 0.10000929632E+02 0.85990978657E+01 0.79077459186E+01 0.76706048057E+01 0.79078326962E+01
 0.85991696850E+01 0.10000074559E+02 0.14025725744E+02 0.22415391020E+02 0.35403184147E+02
 0.51402654064E+02 0.67238522550E+02 0.78982471562E+02 0.83326769586E+02 0.78972953826E+02
 0.97776086953E+02 0.78871246120E+02 0.57129865063E+02 0.37274116606E+02 0.22415060933E+02
 0.13567941228E+02 0.97477348132E+01 0.85415417265E+01 0.79985178289E+01 0.79988475258E+01
 0.85418506550E+01 0.97470574232E+01 0.13566785254E+02 0.22415400891E+02 0.37277431663E+02
 0.57135524711E+02 0.78877046810E+02 0.97780062017E+02 0.10886189375E+03 0.10886053547E+03
 0.12779231196E+03 0.10877551874E+03 0.83178500846E+02 0.57133066628E+02 0.35399667030E+02
 0.20441867695E+02 0.12384286168E+02 0.93761290755E+01 0.84698058500E+01 0.81651282305E+01
 0.84704343051E+01 0.93760064251E+01 0.12383540740E+02 0.20442818215E+02 0.35403181352E+02
 0.57135541725E+02 0.83174902379E+02 0.10876596737E+03 0.12778382529E+03 0.13484910874E+03
 0.15012061180E+03 0.13481041857E+03 0.10877675716E+03 0.78880730357E+02 0.51401348617E+02
 0.30357391616E+02 0.17173700804E+02 0.10952211944E+02 0.90278967607E+01 0.84069596204E+01
 0.84073727372E+01 0.90283283754E+01 0.10951827886E+02 0.17173591671E+02 0.30358940815E+02
 0.51402685446E+02 0.78877046908E+02 0.10876591827E+03 0.13479750824E+03 0.15011477585E+03
 0.14878777899E+03 0.14099943011E+03 0.12003462360E+03 0.91832476949E+02 0.63108373150E+02
 0.39030648322E+02 0.22280799789E+02 0.13073060815E+02 0.95361398014E+01 0.85461561730E+01
 0.82290461132E+01 0.85463162876E+01 0.95362759459E+01 0.13073034989E+02 0.22280682336E+02
 0.39030611302E+02 0.63108469146E+02 0.91832593554E+02 0.12003465133E+03 0.14099939779E+03
 0.14100468161E+03 0.14099934047E+03 0.12665556425E+03 0.10223503645E+03 0.74136923256E+02
 0.48283402169E+02 0.28525667138E+02 0.16246247174E+02 0.10550383138E+02 0.88114452112E+01
 0.82080073798E+01 0.82076301979E+01 0.88110615409E+01 0.10550772366E+02 0.16246415424E+02
 0.28524332806E+02 0.48282252559E+02 0.74140341887E+02 0.10224497699E+03 0.12666738457E+03
 0.12004248113E+03 0.12663656166E+03 0.12003464305E+03 0.10223512319E+03 0.78218785095E+02
 0.53720015091E+02 0.33267255739E+02 0.19253179446E+02 0.11801137095E+02 0.90773926140E+01
 0.82172789588E+01 0.79212569384E+01 0.82163988295E+01 0.90772557584E+01 0.11801893259E+02
 0.19252561614E+02 0.33264126818E+02 0.53717570473E+02 0.78221857970E+02 0.10224382020E+03
 0.91829111976E+02 0.10217905560E+03 0.10218023272E+03 0.91832643099E+02 0.74136894501E+02
 0.53719942743E+02 0.35036962677E+02 0.21083677895E+02 0.12854169587E+02 0.93681172265E+01
 0.82451356184E+01 0.77171962112E+01 0.77168481256E+01 0.82447717499E+01 0.93687077301E+01
 0.12855231208E+02 0.21083300710E+02 0.35033762857E+02 0.53714611433E+02 0.74131576488E+02
 0.63097445151E+02 0.74060902136E+02 0.78116709587E+02 0.74069610865E+02 0.63108383599E+02
 0.48283259052E+02 0.33267295692E+02 0.21083732027E+02 0.13266213497E+02 0.95721007708E+01
 0.82735897632E+01 0.75973491962E+01 0.73664821970E+01 0.75974510232E+01 0.82736729158E+01
 0.95728344301E+01 0.13268581023E+02 0.21086782288E+02 0.33267321009E+02 0.48276968738E+02
 0.39029515455E+02 0.48237757666E+02 0.53632750880E+02 0.53635686909E+02 0.48242993255E+02
 0.39030573362E+02 0.28525675473E+02 0.19253293595E+02 0.12854121671E+02 0.95720642115E+01
 0.82854904551E+01 0.75452515136E+01 0.71694516976E+01 0.71698084693E+01 0.75453355674E+01
 0.82844059765E+01 0.95717385831E+01 0.12857616939E+02 0.19260098079E+02 0.28530712474E+02
 0.22288512139E+02 0.28542223286E+02 0.33261991960E+02 0.35016982063E+02 0.33258852033E+02
 0.28535921474E+02 0.22280742633E+02 0.16246323830E+02 0.11801113673E+02 0.93680326504E+01
 0.82736442900E+01 0.75452747257E+01 0.71072144301E+01 0.69660831282E+01 0.71078988658E+01
 0.75444899966E+01 0.82704787244E+01 0.93649758757E+01 0.11801893259E+02 0.16251949522E+02
 0.13072655697E+02 0.16305571548E+02 0.19338353761E+02 0.21170249486E+02 0.21166796981E+02
 0.19330870498E+02 0.16300063846E+02 0.13073044778E+02 0.10550426297E+02 0.90773184725E+01
 0.82451700111E+01 0.75974076013E+01 0.71693854241E+01 0.69660647530E+01 0.69667126970E+01
 0.71705250238E+01 0.75970717305E+01 0.82416694644E+01 0.90711944332E+01 0.10545109253E+02
 0.95276779820E+01 0.10617785852E+02 0.11931129760E+02 0.13019817071E+02 0.13441142799E+02
 0.13017450690E+02 0.11931107049E+02 0.10623363365E+02 0.95361988857E+01 0.88114325924E+01
 0.82172434043E+01 0.77172578026E+01 0.73664337747E+01 0.71697647168E+01 0.71079825907E+01
 0.71705475447E+01 0.73689082278E+01 0.77203297037E+01 0.82171669901E+01 0.88057777201E+01
 0.85459382371E+01 0.88810124113E+01 0.92150924990E+01 0.95611209846E+01 0.97958725626E+01
 0.97969689033E+01 0.95648514394E+01 0.92211365083E+01 0.88862387770E+01 0.85462105208E+01
 0.82079428658E+01 0.79212816883E+01 0.77168797521E+01 0.75974088434E+01 0.75454024999E+01
 0.75445337170E+01 0.75969711457E+01 0.77202997389E+01 0.79280756067E+01 0.82132920692E+01
 0.82368759165E+01 0.82883199958E+01 0.83627238641E+01 0.84463595433E+01 0.85151832172E+01
 0.85433440211E+01 0.85183010741E+01 0.84494363806E+01 0.83620480637E+01 0.82827665434E+01
 0.82290299170E+01 0.82075990652E+01 0.82164752437E+01 0.82447564686E+01 0.82736442900E+01
 0.82844288579E+01 0.82703955718E+01 0.82416197903E+01 0.82172789588E+01 0.82133254506E+01
 0.85458218911E+01 0.82882910476E+01 0.80743011348E+01 0.79293858560E+01 0.78541038956E+01
 0.78279192602E+01 0.78287212939E+01 0.78544120776E+01 0.79259145779E+01 0.80676073467E+01
 0.82831350752E+01 0.85462542894E+01 0.88110983106E+01 0.90772734618E+01 0.93686172085E+01
 0.95728257767E+01 0.95717664889E+01 0.93649699302E+01 0.90712862781E+01 0.88058271084E+01
 0.95275853485E+01 0.88809753246E+01 0.83628354772E+01 0.79294022226E+01 0.76306114936E+01
 0.74680348857E+01 0.74183233719E+01 0.74673799906E+01 0.76282169079E+01 0.79262488598E+01
 0.83627727134E+01 0.88866168275E+01 0.95362423966E+01 0.10550805590E+02 0.11801838322E+02
 0.12855217518E+02 0.13268683039E+02 0.12857651166E+02 0.11801861744E+02 0.10545099317E+02
 0.13072693744E+02 0.10617810033E+02 0.92151778220E+01 0.84463726518E+01 0.78540076432E+01
 0.74680368435E+01 0.72869714103E+01 0.72863851176E+01 0.74670129188E+01 0.78543792877E+01
 0.84497692024E+01 0.92211255296E+01 0.10622996293E+02 0.13073056998E+02 0.16246440625E+02
 0.19252564820E+02 0.21083364955E+02 0.21086792401E+02 0.19259987136E+02 0.16251898067E+02
 0.22288629592E+02 0.16305627175E+02 0.11931086244E+02 0.95610864171E+01 0.85151137659E+01
 0.78279374920E+01 0.74183967902E+01 0.72863652346E+01 0.74175987222E+01 0.78286261159E+01
 0.85183010741E+01 0.95642342849E+01 0.11930338888E+02 0.16299923657E+02 0.22280742633E+02
 0.28524340522E+02 0.33264101501E+02 0.35033720202E+02 0.33267255739E+02 0.28530711855E+02
 0.39029577785E+02 0.28542209822E+02 0.19338237178E+02 0.13019772383E+02 0.97959178751E+01
 0.85433834415E+01 0.78287689254E+01 0.74673333780E+01 0.74669643485E+01 0.78286555156E+01
 0.85444488083E+01 0.97962764166E+01 0.13016380153E+02 0.19331561743E+02 0.28537242288E+02
 0.39030598672E+02 0.48282188514E+02 0.53717531702E+02 0.53714645010E+02 0.48277047811E+02
 0.63097400546E+02 0.48237654761E+02 0.33261937137E+02 0.21170279852E+02 0.13441246632E+02
 0.97969884124E+01 0.85182565675E+01 0.78543747149E+01 0.76281933418E+01 0.78544381775E+01
 0.85183260187E+01 0.97962506131E+01 0.13438768158E+02 0.21167176273E+02 0.33261994834E+02
 0.48244089102E+02 0.63108434989E+02 0.74140376079E+02 0.78221927896E+02 0.74131639436E+02
 0.91829034098E+02 0.74060827595E+02 0.53632804151E+02 0.35017090712E+02 0.21166837001E+02
 0.13017400069E+02 0.95647683725E+01 0.84494484316E+01 0.79259593711E+01 0.79262772864E+01
 0.84497681448E+01 0.95641857856E+01 0.13016374220E+02 0.21167185927E+02 0.35020174638E+02
 0.53638033913E+02 0.74066168013E+02 0.91832681826E+02 0.10224500666E+03 0.10224376312E+03
 0.12004245340E+03 0.10217912693E+03 0.78116790455E+02 0.53635756495E+02 0.33258794336E+02
 0.19330771445E+02 0.11931086244E+02 0.92212059458E+01 0.83621108275E+01 0.80675716573E+01
 0.83627238641E+01 0.92211096441E+01 0.11930361599E+02 0.19331579273E+02 0.33261991960E+02
 0.53638050228E+02 0.78113515395E+02 0.10217035594E+03 0.12003464305E+03 0.12666724327E+03
 0.14100469580E+03 0.12663673104E+03 0.10218025644E+03 0.74069536136E+02 0.48242920451E+02
 0.28535873595E+02 0.16300122382E+02 0.10623442795E+02 0.88862410145E+01 0.82826910758E+01
 0.82830885558E+01 0.88866561517E+01 0.10623051542E+02 0.16299926566E+02 0.28537207873E+02
 0.48244119203E+02 0.74066167826E+02 0.10217030833E+03 0.12662485535E+03 0.14099932234E+03
 0.12329862739E+03 0.11685440305E+03 0.99473447913E+02 0.76033206212E+02 0.52157463925E+02
 0.32282664205E+02 0.18729234504E+02 0.11574061242E+02 0.89810177341E+01 0.81443191823E+01
 0.78555299586E+01 0.81444603516E+01 0.89811380611E+01 0.11574038001E+02 0.18729127351E+02
 0.32282624095E+02 0.52157540291E+02 0.76033304613E+02 0.99473473209E+02 0.11685437715E+03
 0.11685845807E+03 0.11685432035E+03 0.10495940598E+03 0.84662983587E+02 0.61281513171E+02
 0.39845330486E+02 0.23686107042E+02 0.13945081676E+02 0.96661008013E+01 0.83577791214E+01
 0.78055230021E+01 0.78051864611E+01 0.83574357254E+01 0.96664991205E+01 0.13945457728E+02
 0.23685310483E+02 0.39844521651E+02 0.61284100328E+02 0.84670601534E+02 0.10496853309E+03
 0.99479530765E+02 0.10495994432E+03 0.99473464442E+02 0.84663062920E+02 0.64661789283E+02
 0.44308875561E+02 0.27492328257E+02 0.16245716072E+02 0.10532966587E+02 0.85474032305E+01
 0.77911366952E+01 0.75255227731E+01 0.77903357587E+01 0.85472291211E+01 0.10533659306E+02
 0.16245441526E+02 0.27490022169E+02 0.44306937596E+02 0.64664055887E+02 0.84669734933E+02
 0.76030660800E+02 0.84660066594E+02 0.84660957388E+02 0.76033358138E+02 0.61281488105E+02
 0.44308809819E+02 0.28919879502E+02 0.17663849241E+02 0.11282487068E+02 0.87263534705E+01
 0.78009328963E+01 0.73290617094E+01 0.73287557197E+01 0.78005615139E+01 0.87267057946E+01
 0.11283209441E+02 0.17663462436E+02 0.28917318076E+02 0.44304633886E+02 0.61277375594E+02
 0.52149117779E+02 0.61289589683E+02 0.64674774771E+02 0.61296275281E+02 0.52157474781E+02
 0.39845200525E+02 0.27492363975E+02 0.17663898430E+02 0.11579662505E+02 0.88514161558E+01
 0.78176794622E+01 0.72140105622E+01 0.70117015918E+01 0.72141575805E+01 0.78177542340E+01
 0.88518451728E+01 0.11581271001E+02 0.17666106248E+02 0.27492387126E+02 0.39840440730E+02
 0.32281870901E+02 0.39896491462E+02 0.44379384443E+02 0.44381668733E+02 0.39900532846E+02
 0.32282596378E+02 0.23686114183E+02 0.16245819945E+02 0.11282444531E+02 0.88513831534E+01
 0.78254633810E+01 0.71637409200E+01 0.68355070942E+01 0.68358762721E+01 0.71639862799E+01
 0.78247163583E+01 0.88510919790E+01 0.11285100059E+02 0.16251142243E+02 0.23690144598E+02
 0.18735184907E+02 0.23793713516E+02 0.27654438197E+02 0.29097191779E+02 0.27652111496E+02
 0.23788940553E+02 0.18729182709E+02 0.13945151756E+02 0.10532946011E+02 0.87262766337E+01
 0.78177274345E+01 0.71637613174E+01 0.67801239560E+01 0.66579203073E+01 0.67807480319E+01
 0.71632815022E+01 0.78153892774E+01 0.87240135660E+01 0.10533659306E+02 0.13949587065E+02
 0.11573648480E+02 0.14084080270E+02 0.16485324150E+02 0.17951546123E+02 0.17948920413E+02
 0.16479655838E+02 0.14079966333E+02 0.11574046932E+02 0.96661394604E+01 0.85473348515E+01
 0.78009626437E+01 0.72140627355E+01 0.68354480006E+01 0.66579043087E+01 0.66583582448E+01
 0.68362399446E+01 0.72137680592E+01 0.77983072228E+01 0.85426711201E+01 0.96620286780E+01
 0.89743807499E+01 0.98049997882E+01 0.10800954505E+02 0.11636071986E+02 0.11961583457E+02
 0.11634197023E+02 0.10800933154E+02 0.98093944055E+01 0.89810701423E+01 0.83577661192E+01
 0.77911044639E+01 0.73291184528E+01 0.70116588697E+01 0.68358375219E+01 0.67808237115E+01
 0.68362602880E+01 0.70133667929E+01 0.73313995321E+01 0.77910355142E+01 0.83533548043E+01
 0.81441268449E+01 0.84931165389E+01 0.88120833536E+01 0.90950744422E+01 0.92782779936E+01
 0.92790384167E+01 0.90977789223E+01 0.88166342550E+01 0.84971470604E+01 0.81443681156E+01
 0.78054659474E+01 0.75255476786E+01 0.73287849461E+01 0.72141187501E+01 0.71640464079E+01
 0.71633212328E+01 0.72136770555E+01 0.73313720151E+01 0.75308038021E+01 0.78096008889E+01
 0.78615875143E+01 0.79467512961E+01 0.80564344585E+01 0.81708673435E+01 0.82602433873E+01
 0.82952409982E+01 0.82625504991E+01 0.81731074388E+01 0.80558158451E+01 0.79424285411E+01
 0.78555169813E+01 0.78051600947E+01 0.77904047084E+01 0.78005454684E+01 0.78177274345E+01
 0.78247378412E+01 0.78153145055E+01 0.77982614298E+01 0.77911366952E+01 0.78096315772E+01
 0.81440212918E+01 0.79467244458E+01 0.77948444046E+01 0.77045660589E+01 0.76686885076E+01
 0.76625823228E+01 0.76632481532E+01 0.76690123375E+01 0.77019246662E+01 0.77896657096E+01
 0.79427540857E+01 0.81444037318E+01 0.83574682287E+01 0.85472432207E+01 0.87266229403E+01
 0.88518384567E+01 0.88511182653E+01 0.87240075486E+01 0.85427535987E+01 0.83534003097E+01
 0.89742970241E+01 0.84930818879E+01 0.80565359342E+01 0.77045817002E+01 0.74719055194E+01
 0.73509693135E+01 0.73153468724E+01 0.73506537987E+01 0.74702602378E+01 0.77022225567E+01
 0.80564789994E+01 0.84974805671E+01 0.89811067435E+01 0.96665289817E+01 0.10533609165E+02
 0.11283197724E+02 0.11581364307E+02 0.11285130881E+02 0.10533629742E+02 0.96620198801E+01
 0.11573683690E+02 0.98050214978E+01 0.88121608555E+01 0.81708807187E+01 0.76686015326E+01
 0.73509706265E+01 0.72054195002E+01 0.72050162557E+01 0.73502762461E+01 0.76689326755E+01
 0.81734573373E+01 0.88166783009E+01 0.98090168529E+01 0.11574058900E+02 0.13945480892E+02
 0.16245444304E+02 0.17663520878E+02 0.17666115501E+02 0.16251041147E+02 0.13949540150E+02
 0.18735292060E+02 0.14084131272E+02 0.10800914717E+02 0.90950437216E+01 0.82601806968E+01
 0.76625979015E+01 0.73154127382E+01 0.72049980290E+01 0.73146837181E+01 0.76629941812E+01
 0.82625504991E+01 0.90974014971E+01 0.10800233399E+02 0.14079620730E+02 0.18729182709E+02
 0.23685317071E+02 0.27489999018E+02 0.28917279608E+02 0.27492328257E+02 0.23690144045E+02
 0.32281927402E+02 0.23793701531E+02 0.16485217849E+02 0.11636030902E+02 0.92783190994E+01
 0.82952760336E+01 0.76632907867E+01 0.73506113753E+01 0.73502325097E+01 0.76630212361E+01
 0.82960054561E+01 0.92786351195E+01 0.11633460219E+02 0.16480003120E+02 0.23789725773E+02
 0.32282612768E+02 0.39844463721E+02 0.44306902810E+02 0.44304664843E+02 0.39840512762E+02
 0.52149076680E+02 0.39896397723E+02 0.27654388268E+02 0.17951573017E+02 0.11961677391E+02
 0.92790559033E+01 0.82625103860E+01 0.76689790852E+01 0.74702389846E+01 0.76689863982E+01
 0.82625730765E+01 0.92786115002E+01 0.11959953523E+02 0.17949309934E+02 0.27654441185E+02
 0.39901286039E+02 0.52157510048E+02 0.61284131917E+02 0.64664118972E+02 0.61277432250E+02
 0.76030589544E+02 0.61289522271E+02 0.44379433415E+02 0.29097290407E+02 0.17948956349E+02
 0.11634151038E+02 0.90977043082E+01 0.81731198341E+01 0.77019650322E+01 0.77022472814E+01
 0.81734563575E+01 0.90973576035E+01 0.11633455318E+02 0.17949318976E+02 0.29099760031E+02
 0.44383532207E+02 0.61293658613E+02 0.76033385282E+02 0.84670627110E+02 0.84669681176E+02
 0.99479505469E+02 0.84660133255E+02 0.64674849599E+02 0.44381732117E+02 0.27652058579E+02
 0.16479565674E+02 0.10800914717E+02 0.88166986736E+01 0.80558727799E+01 0.77896311433E+01
 0.80564344585E+01 0.88166652177E+01 0.10800254749E+02 0.16480019258E+02 0.27654438197E+02
 0.44383546620E+02 0.64672409814E+02 0.84653398205E+02 0.99473464442E+02 0.10496840227E+03
 0.11685847108E+03 0.10496010083E+03 0.84660980597E+02 0.61296206967E+02 0.39900465751E+02
 0.23788896699E+02 0.14080019326E+02 0.98094670785E+01 0.84971499160E+01 0.79423585272E+01
 0.79427109221E+01 0.84975180737E+01 0.98090678163E+01 0.14079622721E+02 0.23789693904E+02
 0.39901312684E+02 0.61293657711E+02 0.84653354753E+02 0.10495092877E+03 0.11685430745E+03
 0.90146823132E+02 0.85420326887E+02 0.72653715974E+02 0.55428604725E+02 0.37980388885E+02
 0.23729044520E+02 0.14413791792E+02 0.98624201980E+01 0.83038223473E+01 0.76006767597E+01
 0.73569564646E+01 0.76007929847E+01 0.83039219263E+01 0.98624010070E+01 0.14413700122E+02
 0.23729003492E+02 0.37980442517E+02 0.55428680644E+02 0.72653737614E+02 0.85420308420E+02
 0.85422879036E+02 0.85420254979E+02 0.76672358978E+02 0.61732801829E+02 0.44569780002E+02
 0.29031770117E+02 0.17677865025E+02 0.11240064834E+02 0.86604821546E+01 0.77382418906E+01
 0.72697630099E+01 0.72694904844E+01 0.77379625836E+01 0.86608636769E+01 0.11240630375E+02
 0.17677674955E+02 0.29031364782E+02 0.44571337881E+02 0.61737521775E+02 0.76678107073E+02
 0.72657566542E+02 0.76698841145E+02 0.72653728788E+02 0.61732870071E+02 0.47019341024E+02
 0.32193367923E+02 0.20242212735E+02 0.12638180282E+02 0.90900688407E+01 0.78607076891E+01
 0.72185052941E+01 0.69992884924E+01 0.72178363222E+01 0.78605039837E+01 0.90906497872E+01
 0.12638278874E+02 0.20240907869E+02 0.32192078959E+02 0.47020624020E+02 0.61737011282E+02
 0.55427075042E+02 0.61799429309E+02 0.61799966468E+02 0.55428735365E+02 0.44569760034E+02
 0.32193311878E+02 0.21213810008E+02 0.13521888241E+02 0.94761478483E+01 0.79479685968E+01
 0.71960333253E+01 0.68083456999E+01 0.68081029740E+01 0.71956779188E+01 0.79480513925E+01
 0.94764727234E+01 0.13521517806E+02 0.21212076954E+02 0.32190603451E+02 0.44567161664E+02
 0.37975259313E+02 0.44686579971E+02 0.47181476110E+02 0.44690735840E+02 0.37980399776E+02
 0.29031659385E+02 0.20242241979E+02 0.13521929967E+02 0.96331350262E+01 0.79971137432E+01
 0.71902412616E+01 0.66939139403E+01 0.65319008033E+01 0.66940985638E+01 0.71903035248E+01
 0.79972011500E+01 0.96338549541E+01 0.13523123407E+02 0.20242262145E+02 0.29028794166E+02
 0.23728652995E+02 0.29206234564E+02 0.32465596135E+02 0.32467056629E+02 0.29208775892E+02
 0.23728986802E+02 0.17677870121E+02 0.12638268662E+02 0.94761133954E+01 0.79970862274E+01
 0.71898647398E+01 0.66423539586E+01 0.63795570613E+01 0.63799145536E+01 0.66427494881E+01
 0.71895156681E+01 0.79968506528E+01 0.94777278273E+01 0.12641710481E+02 0.17680596069E+02
 0.14417529050E+02 0.17899403771E+02 0.20614737227E+02 0.21639522019E+02 0.20613403871E+02
 0.17896524459E+02 0.14413747826E+02 0.11240125055E+02 0.90900527770E+01 0.79479037800E+01
 0.71902797848E+01 0.66423702209E+01 0.63317251866E+01 0.62342972418E+01 0.63322455486E+01
 0.66422363000E+01 0.71889492489E+01 0.79466084824E+01 0.90906497872E+01 0.11243038300E+02
 0.98620265029E+01 0.11476745669E+02 0.13067919263E+02 0.14057715717E+02 0.14056116723E+02
 0.13064498359E+02 0.11474341745E+02 0.98624087643E+01 0.86605145938E+01 0.78606484023E+01
 0.71960564355E+01 0.66939568051E+01 0.63795085327E+01 0.62342846470E+01 0.62345090549E+01
 0.63798905467E+01 0.66937240596E+01 0.71944468218E+01 0.78577973785E+01 0.86579185568E+01
 0.82995092339E+01 0.88852854855E+01 0.95238802927E+01 0.10055507678E+02 0.10263713822E+02
 0.10054263979E+02 0.95238613289E+01 0.88881676039E+01 0.83038652480E+01 0.77382285443E+01
 0.72184779142E+01 0.68083948222E+01 0.65318663618E+01 0.63798830368E+01 0.63323089511E+01
 0.63799075585E+01 0.65326713146E+01 0.68097085751E+01 0.72184200868E+01 0.77353919676E+01
 0.76005265657E+01 0.79508217709E+01 0.82740805250E+01 0.85211054523E+01 0.86592535910E+01
 0.86596176590E+01 0.85225734801E+01 0.82767900800E+01 0.79533505243E+01 0.76007173952E+01
 0.72697164455E+01 0.69993128780E+01 0.68081284032E+01 0.66940648902E+01 0.66427993309E+01
 0.66422698804E+01 0.66936475213E+01 0.68096848820E+01 0.70026360207E+01 0.72723275194E+01
 0.73607853925E+01 0.74806379607E+01 0.76195093348E+01 0.77544250295E+01 0.78547766372E+01
 0.78926539638E+01 0.78560939542E+01 0.77556539499E+01 0.76189926123E+01 0.74778725710E+01
 0.73569474295E+01 0.72694705757E+01 0.72178941497E+01 0.71956613822E+01 0.71902797848E+01
 0.71895347918E+01 0.71888869857E+01 0.71944071750E+01 0.72185052941E+01 0.72723541752E+01
 0.76004371699E+01 0.74806142511E+01 0.73981594450E+01 0.73604476583E+01 0.73568831392E+01
 0.73649671943E+01 0.73654474681E+01 0.73572000932E+01 0.73588373857E+01 0.73948889598E+01
 0.74781327099E+01 0.76007442244E+01 0.77379889546E+01 0.78605134880E+01 0.79479806788E+01
 0.79971971348E+01 0.79968741535E+01 0.79466025855E+01 0.78578661696E+01 0.77354316849E+01
 0.82994387843E+01 0.79507907287E+01 0.76195954079E+01 0.73604619978E+01 0.71943542935E+01
 0.71107654688E+01 0.70868479429E+01 0.71108213356E+01 0.71935906035E+01 0.73590769755E+01
 0.76195472474E+01 0.79536169433E+01 0.83038943774E+01 0.86608890979E+01 0.90906074121E+01
 0.94764638926E+01 0.96339346669E+01 0.94777534494E+01 0.90906234758E+01 0.86579115386E+01
 0.98620573497E+01 0.88853033761E+01 0.82741460440E+01 0.77544383817E+01 0.73568099709E+01
 0.71107660326E+01 0.69995466375E+01 0.69993595872E+01 0.71104584874E+01 0.73570768347E+01
 0.77559962489E+01 0.82768865092E+01 0.88878047556E+01 0.98624204202E+01 0.11240650594E+02
 0.12638281013E+02 0.13521567119E+02 0.13523130994E+02 0.12641624240E+02 0.11242998298E+02
 0.14417620720E+02 0.11476789632E+02 0.95238459851E+01 0.85210802629E+01 0.78547240649E+01
 0.73649792365E+01 0.70869029032E+01 0.69993438769E+01 0.70862933078E+01 0.73650477907E+01
 0.78560939542E+01 0.85224671487E+01 0.95232775644E+01 0.11473807153E+02 0.14413747826E+02
 0.17677679711E+02 0.20240887703E+02 0.21212044319E+02 0.20242212735E+02 0.17680595728E+02
 0.23728700885E+02 0.17899393991E+02 0.13067828435E+02 0.10055472125E+02 0.86592885550E+01
 0.78926827855E+01 0.73654829599E+01 0.71107852451E+01 0.71104218330E+01 0.73650712403E+01
 0.78930181488E+01 0.86595404422E+01 0.10053920343E+02 0.13064467491E+02 0.17896705404E+02
 0.23728993663E+02 0.29031315749E+02 0.32192049912E+02 0.32190630449E+02 0.29028855865E+02
 0.37975223705E+02 0.29206154494E+02 0.20614694682E+02 0.14057737680E+02 0.10263793224E+02
 0.86596321908E+01 0.78560603172E+01 0.73571728192E+01 0.71935726763E+01 0.73571227289E+01
 0.78561128895E+01 0.86595200100E+01 0.10262961334E+02 0.14056491228E+02 0.20614740123E+02
 0.29209126389E+02 0.37980417800E+02 0.44571365635E+02 0.47020677276E+02 0.44567209386E+02
 0.55427013873E+02 0.44686522862E+02 0.32465638381E+02 0.21639605795E+02 0.14056146829E+02
 0.10054224910E+02 0.85225110268E+01 0.77556663851E+01 0.73588711462E+01 0.73590963965E+01
 0.77559953319E+01 0.85224298848E+01 0.10053916827E+02 0.14056499369E+02 0.21641275561E+02
 0.32468296984E+02 0.44689144988E+02 0.55428750114E+02 0.61737542032E+02 0.61736963297E+02
 0.72657544902E+02 0.61799488152E+02 0.47181541160E+02 0.32467110693E+02 0.20613358429E+02
 0.13064421636E+02 0.95238459851E+01 0.82768463592E+01 0.76190407728E+01 0.73948566918E+01
 0.76195093348E+01 0.82768772694E+01 0.95232965282E+01 0.13064481595E+02 0.20614737227E+02
 0.32468308801E+02 0.47180121834E+02 0.61795297703E+02 0.72653728788E+02 0.76677992757E+02
 0.85422890218E+02 0.76698977455E+02 0.61799987984E+02 0.44690677044E+02 0.29208717825E+02
 0.17896487025E+02 0.11474386388E+02 0.88882295551E+01 0.79533540594E+01 0.74778113306E+01
 0.74780951791E+01 0.79536515207E+01 0.88878488162E+01 0.11473807834E+02 0.17896677750E+02
 0.29209148392E+02 0.44689143302E+02 0.61795260377E+02 0.76693196704E+02 0.85420247694E+02
 0.58064850719E+02 0.54996842292E+02 0.46726139140E+02 0.35648410229E+02 0.24643604829E+02
 0.16024479291E+02 0.10815559047E+02 0.85413816027E+01 0.76115106829E+01 0.70469862050E+01
 0.68590021441E+01 0.70470731331E+01 0.76115838280E+01 0.85413637599E+01 0.10815485898E+02
 0.16024445079E+02 0.24643643741E+02 0.35648467626E+02 0.46726156409E+02 0.54996829129E+02
 0.54998049264E+02 0.54996783812E+02 0.49309674951E+02 0.39644020392E+02 0.28691601919E+02
 0.19080980002E+02 0.12474358644E+02 0.90968570401E+01 0.78075443234E+01 0.70946123333E+01