    2    2    1    1
  0.9445445E+01  0.2330000E-09  0.2330000E-09  0.4018000E-09  0.5000000E-15
  1.000000000000000E-004
  CAR 
 unknown system                          
     16     96     40
 
  0.0000000E+00  0.0000000E+00  0.0000000E+00  0.7513148E-03
    1       -1.551756   1.000000
    2        2.370473   1.000000
    3        5.484074   1.000000
    4        6.018482   1.000000
    5        6.018562   1.000000
    6        6.395661   1.000000
    7        6.395757   1.000000
    8        7.264698   1.001046
    9        7.320688   1.003380
   10        7.320710   1.003381
   11        8.606953  -0.000000
   12        8.606976  -0.000000
   13       16.110718   0.000000
   14       31.559047   0.000000
   15       32.723643   0.000000
   16       34.877403   0.000000
   17       37.426823   0.000000
   18       37.426890   0.000000
   19       38.202319   0.000000
   20       38.202495   0.000000
   21       40.165122   0.000000
   22       41.021916   0.000000
   23       41.021938   0.000000
   24       42.124296   0.000000
   25       45.102909   0.000000
   26       45.102918   0.000000
   27       46.454276   0.000000
   28       49.179581   0.000000
   29       49.179982   0.000000
   30       51.136490   0.000000
   31       51.136642   0.000000
   32       54.138067   0.000000
   33       62.140070   0.000000
   34       63.486154   0.000000
   35       63.595506   0.000000
   36       63.596475   0.000000
   37       64.923330   0.000000
   38       66.513583   0.000000
   39       66.514771   0.000000
   40       68.722523   0.000000
 
  0.9090909E-01 -0.1202530E-17  0.0000000E+00  0.4507889E-02
    1       -1.206028   1.000000
    2        2.624341   1.000000
    3        5.434258   1.000000
    4        6.007509   1.000000
    5        6.227821   1.000000
    6        6.243818   1.000000
    7        6.278947   1.000000
    8        6.589782   1.000000
    9        7.183074   1.000137
   10        7.194329   1.000185
   11        8.649884  -0.000000
   12        9.889319  -0.000000
   13       16.128856   0.000000
   14       30.432072   0.000000
   15       33.029341   0.000000
   16       33.237059   0.000000
   17       34.558876   0.000000
   18       36.856210   0.000000
   19       36.948400   0.000000
   20       39.976286   0.000000
   21       40.522108   0.000000
   22       41.213060   0.000000
   23       41.952833   0.000000
   24       41.982274   0.000000
   25       46.225844   0.000000
   26       46.524228   0.000000
   27       46.589368   0.000000
   28       46.904790   0.000000
   29       50.467307   0.000000
   30       52.638329   0.000000
   31       53.613216   0.000000
   32       55.854767   0.000000
   33       60.965552   0.000000
   34       62.670735   0.000000
   35       63.050003   0.000000
   36       63.376449   0.000000
   37       63.591547   0.000000
   38       67.159142   0.000000
   39       68.650033   0.000000
   40       68.692836   0.000000
 
  0.1818182E+00 -0.1211951E-16  0.0000000E+00  0.4507889E-02
    1       -0.231935   1.000000
    2        3.215903   1.000000
    3        5.027543   1.000000
    4        5.141905   1.000000
    5        5.843408   1.000000
    6        6.476767   1.000000
    7        6.810197   1.000000
    8        6.831673   1.000000
    9        6.896634   1.000000
   10        7.120708   1.000023
   11        8.724232  -0.000000
   12       11.871901  -0.000000
   13       16.210686   0.000000
   14       26.785774   0.000000
   15       31.605304   0.000000
   16       31.975436   0.000000
   17       32.526418   0.000000
   18       33.827546   0.000000
   19       37.717582   0.000000
   20       39.169347   0.000000
   21       39.748247   0.000000
   22       39.765811   0.000000
   23       42.533823   0.000000
   24       43.891607   0.000000
   25       46.249708   0.000000
   26       47.194964   0.000000
   27       48.836886   0.000000
   28       51.208214   0.000000
   29       53.599519   0.000000
   30       55.767371   0.000000
   31       56.366098   0.000000
   32       59.052962   0.000000
   33       59.349497   0.000000
   34       60.671314   0.000000
   35       61.019163   0.000000
   36       62.337983   0.000000
   37       64.453021   0.000000
   38       68.023117   0.000000
   39       68.576589   0.000000
   40       69.892867   0.000000
 
  0.2727273E+00 -0.5238229E-17  0.0000000E+00  0.4507889E-02
    1        1.135639   1.000000
    2        3.487960   1.000000
    3        4.081296   1.000000
    4        5.056019   1.000000
    5        5.674558   1.000000
    6        6.386715   1.000000
    7        6.557352   1.000000
    8        7.292023   1.001897
    9        7.638054   0.943531
   10        7.865930   0.139121
   11        8.774718  -0.000000
   12       14.075286   0.000000
   13       16.387693   0.000000
   14       22.776247   0.000000
   15       28.870209   0.000000
   16       29.080086   0.000000
   17       30.495495   0.000000
   18       33.471185   0.000000
   19       36.056751   0.000000
   20       39.123440   0.000000
   21       39.830476   0.000000
   22       39.947957   0.000000
   23       40.186774   0.000000
   24       44.250574   0.000000
   25       49.739442   0.000000
   26       51.465653   0.000000
   27       52.368334   0.000000
   28       54.121197   0.000000
   29       55.483843   0.000000
   30       56.284286   0.000000
   31       57.927671   0.000000
   32       59.457766   0.000000
   33       60.385087   0.000000
   34       61.147237   0.000000
   35       61.706747   0.000000
   36       63.586785   0.000000
   37       64.707889   0.000000
   38       68.476063   0.000000
   39       68.576098   0.000000
   40       69.515477   0.000000
 
  0.3636364E+00  0.2710879E-16  0.0000000E+00  0.4507889E-02
    1        2.327065   1.000000
    2        3.205760   1.000000
    3        3.444704   1.000000
    4        5.291835   1.000000
    5        5.995311   1.000000
    6        6.046240   1.000000
    7        6.278608   1.000000
    8        8.472492  -0.000004
    9        8.602196  -0.000000
   10        8.621655  -0.000000
   11        8.793896  -0.000000
   12       16.091265   0.000000
   13       16.406123   0.000000
   14       19.982365   0.000000
   15       25.593285   0.000000
   16       27.139397   0.000000
   17       27.798724   0.000000
   18       32.496925   0.000000
   19       34.852892   0.000000
   20       38.095725   0.000000
   21       38.752638   0.000000
   22       40.909509   0.000000
   23       41.964122   0.000000
   24       44.632499   0.000000
   25       52.479353   0.000000
   26       53.246859   0.000000
   27       53.382606   0.000000
   28       56.603589   0.000000
   29       57.001644   0.000000
   30       57.627161   0.000000
   31       60.013017   0.000000
   32       60.518952   0.000000
   33       61.220014   0.000000
   34       61.517341   0.000000
   35       63.214346   0.000000
   36       64.848087   0.000000
   37       67.952663   0.000000
   38       68.388386   0.000000
   39       68.496342   0.000000
   40       68.783722   0.000000
 
  0.4545455E+00 -0.3123553E-16  0.0000000E+00  0.4507889E-02
    1        2.744160   1.000000
    2        2.995033   1.000000
    3        3.125150   1.000000
    4        5.767580   1.000000
    5        5.854192   1.000000
    6        6.123602   1.000000
    7        6.308674   1.000000
    8        8.796502  -0.000000
    9        8.990074  -0.000000
   10        9.133169  -0.000000
   11       10.369951  -0.000000
   12       13.999439   0.000000
   13       18.591861   0.000000
   14       20.081185   0.000000
   15       22.935331   0.000000
   16       25.156832   0.000000
   17       26.049143   0.000000
   18       31.830402   0.000000
   19       34.473070   0.000000
   20       36.925042   0.000000
   21       38.583633   0.000000
   22       41.749801   0.000000
   23       44.145599   0.000000
   24       44.812303   0.000000
   25       49.118441   0.000000
   26       54.101029   0.000000
   27       55.138811   0.000000
   28       58.706251   0.000000
   29       59.434424   0.000000
   30       59.747964   0.000000
   31       61.186618   0.000000
   32       61.807167   0.000000
   33       61.946744   0.000000
   34       64.192864   0.000000
   35       64.322607   0.000000
   36       66.042547   0.000000
   37       67.140423   0.000000
   38       67.331037   0.000000
   39       68.737865   0.000000
   40       69.116278   0.000000
 
  0.9090909E-01  0.9090909E-01  0.0000000E+00  0.4507889E-02
    1       -0.543133   1.000000
    2        3.066771   1.000000
    3        5.194225   1.000000
    4        5.349129   1.000000
    5        6.051643   1.000000
    6        6.152548   1.000000
    7        6.653183   1.000000
    8        6.747575   1.000000
    9        7.003469   1.000000
   10        7.178758   1.000122
   11        8.675118  -0.000000
   12       11.322355  -0.000000
   13       16.183436   0.000000
   14       28.464628   0.000000
   15       29.936520   0.000000
   16       33.382838   0.000000
   17       34.089070   0.000000
   18       35.509612   0.000000
   19       35.887059   0.000000
   20       38.082000   0.000000
   21       39.485575   0.000000
   22       43.301759   0.000000
   23       43.467514   0.000000
   24       44.403572   0.000000
   25       45.180957   0.000000
   26       45.399844   0.000000
   27       45.604317   0.000000
   28       51.602531   0.000000
   29       54.021156   0.000000
   30       54.502235   0.000000
   31       54.572073   0.000000
   32       58.310919   0.000000
   33       59.697520   0.000000
   34       61.429455   0.000000
   35       61.867894   0.000000
   36       62.400783   0.000000
   37       63.611859   0.000000
   38       68.211442   0.000000
   39       68.512005   0.000000
   40       70.207688   0.000000
 
  0.1818182E+00  0.9090909E-01  0.0000000E+00  0.9015778E-02
    1        0.655682   1.000000
    2        3.622125   1.000000
    3        4.426579   1.000000
    4        4.828426   1.000000
    5        5.765029   1.000000
    6        6.295385   1.000000
    7        6.626210   1.000000
    8        6.912145   1.000000
    9        7.415520   1.015668
   10        7.777132   0.466624
   11        8.692105  -0.000000
   12       13.304117   0.000000
   13       16.362482   0.000000
   14       24.814330   0.000000
   15       27.476882   0.000000
   16       30.647236   0.000000
   17       32.958591   0.000000
   18       33.360331   0.000000
   19       36.628754   0.000000
   20       37.560441   0.000000
   21       38.244573   0.000000
   22       42.928152   0.000000
   23       43.037793   0.000000
   24       43.978468   0.000000
   25       47.072160   0.000000
   26       47.968791   0.000000
   27       49.835731   0.000000
   28       54.488253   0.000000
   29       56.303987   0.000000
   30       57.175794   0.000000
   31       57.256783   0.000000
   32       59.430002   0.000000
   33       59.913688   0.000000
   34       60.724485   0.000000
   35       61.378245   0.000000
   36       61.795190   0.000000
   37       64.169305   0.000000
   38       68.289684   0.000000
   39       68.732870   0.000000
   40       69.934013   0.000000
 
  0.2727273E+00  0.9090909E-01  0.0000000E+00  0.9015778E-02
    1        2.031010   1.000000
    2        3.549743   1.000000
    3        3.723889   1.000000
    4        4.905616   1.000000
    5        5.840233   1.000000
    6        5.945368   1.000000
    7        6.514889   1.000000
    8        7.437201   1.020313
    9        8.257961  -0.001484
   10        8.698468  -0.000000
   11        8.789202  -0.000000
   12       15.540642   0.000000
   13       16.610842   0.000000
   14       21.135540   0.000000
   15       25.701349   0.000000
   16       27.308188   0.000000
   17       30.141028   0.000000
   18       31.729476   0.000000
   19       36.003482   0.000000
   20       37.134366   0.000000
   21       38.895303   0.000000
   22       42.648304   0.000000
   23       42.666437   0.000000
   24       45.303637   0.000000
   25       49.157231   0.000000
   26       51.843540   0.000000
   27       53.600600   0.000000
   28       54.527908   0.000000
   29       55.269121   0.000000
   30       58.157514   0.000000
   31       59.263855   0.000000
   32       60.636417   0.000000
   33       61.321066   0.000000
   34       61.446125   0.000000
   35       62.739254   0.000000
   36       64.323306   0.000000
   37       66.744643   0.000000
   38       67.801410   0.000000
   39       68.204268   0.000000
   40       70.082492   0.000000
 
  0.3636364E+00  0.9090909E-01  0.0000000E+00  0.9015778E-02
    1        2.855152   1.000000
    2        3.234888   1.000000
    3        3.294945   1.000000
    4        5.361841   1.000000
    5        5.758533   1.000000
    6        6.150351   1.000000
    7        6.213677   1.000000
    8        8.395480  -0.000044
    9        8.692723  -0.000000
   10        8.851834  -0.000000
   11       10.080890  -0.000000
   12       15.489052   0.000000
   13       17.872205   0.000000
   14       19.852031   0.000000
   15       24.300137   0.000000
   16       24.320058   0.000000
   17       26.922981   0.000000
   18       30.783975   0.000000
   19       35.021630   0.000000
   20       36.569959   0.000000
   21       39.784387   0.000000
   22       43.033715   0.000000
   23       44.021650   0.000000
   24       45.157395   0.000000
   25       51.059811   0.000000
   26       51.970060   0.000000
   27       54.217968   0.000000
   28       55.746085   0.000000
   29       57.465482   0.000000
   30       59.376789   0.000000
   31       59.832424   0.000000
   32       61.308515   0.000000
   33       62.017427   0.000000
   34       64.186517   0.000000
   35       65.122383   0.000000
   36       66.024868   0.000000
   37       66.027193   0.000000
   38       68.309336   0.000000
   39       69.257139   0.000000
   40       69.690823   0.000000
 
  0.4545455E+00  0.9090909E-01  0.0000000E+00  0.4507889E-02
    1        2.949893   1.000000
    2        3.151765   1.000000
    3        3.174308   1.000000
    4        5.724699   1.000000
    5        5.746113   1.000000
    6        5.983094   1.000000
    7        6.347530   1.000000
    8        8.688194  -0.000000
    9        8.936450  -0.000000
   10        8.954585  -0.000000
   11       11.364787  -0.000000
   12       13.675896   0.000000
   13       19.448317   0.000000
   14       20.524285   0.000000
   15       22.506945   0.000000
   16       23.550501   0.000000
   17       25.399876   0.000000
   18       30.449785   0.000000
   19       34.611062   0.000000
   20       36.414271   0.000000
   21       39.921241   0.000000
   22       43.925856   0.000000
   23       44.109840   0.000000
   24       45.834559   0.000000
   25       48.789834   0.000000
   26       53.842511   0.000000
   27       54.197859   0.000000
   28       56.919779   0.000000
   29       58.822273   0.000000
   30       58.957064   0.000000
   31       62.143230   0.000000
   32       62.156730   0.000000
   33       62.200073   0.000000
   34       62.471219   0.000000
   35       65.467790   0.000000
   36       67.732175   0.000000
   37       67.874292   0.000000
   38       68.011056   0.000000
   39       68.189724   0.000000
   40       70.791804   0.000000
 
  0.1818182E+00  0.1818182E+00  0.0000000E+00  0.4507889E-02
    1        1.944357   1.000000
    2        3.887381   1.000000
    3        4.070605   1.000000
    4        4.342430   1.000000
    5        5.823592   1.000000
    6        5.834542   1.000000
    7        6.684394   1.000000
    8        6.896165   1.000000
    9        8.234821  -0.002413
   10        8.597620  -0.000000
   11        8.854685  -0.000000
   12       15.264933   0.000000
   13       16.800269   0.000000
   14       22.766684   0.000000
   15       23.650909   0.000000
   16       28.724564   0.000000
   17       30.388247   0.000000
   18       32.503106   0.000000
   19       33.310483   0.000000
   20       38.593530   0.000000
   21       39.788884   0.000000
   22       43.880271   0.000000
   23       44.075988   0.000000
   24       46.374818   0.000000
   25       47.036102   0.000000
   26       49.141040   0.000000
   27       50.673403   0.000000
   28       55.990150   0.000000
   29       56.181480   0.000000
   30       57.973259   0.000000
   31       57.992830   0.000000
   32       60.825696   0.000000
   33       60.939832   0.000000
   34       63.227706   0.000000
   35       63.699026   0.000000
   36       63.765776   0.000000
   37       64.144645   0.000000
   38       67.751861   0.000000
   39       68.108713   0.000000
   40       71.169971   0.000000
 
  0.2727273E+00  0.1818182E+00  0.0000000E+00  0.9015778E-02
    1        3.150668   1.000000
    2        3.520168   1.000000
    3        3.785211   1.000000
    4        4.558087   1.000000
    5        5.568513   1.000000
    6        6.132007   1.000000
    7        6.268448   1.000000
    8        7.493740   1.032563
    9        8.515612  -0.000001
   10        8.798105  -0.000000
   11       10.214124  -0.000000
   12       17.137014   0.000000
   13       17.525967   0.000000
   14       19.977639   0.000000
   15       21.978007   0.000000
   16       26.167705   0.000000
   17       28.697808   0.000000
   18       29.054965   0.000000
   19       31.960949   0.000000
   20       40.279573   0.000000
   21       40.664066   0.000000
   22       44.050905   0.000000
   23       46.068399   0.000000
   24       47.053699   0.000000
   25       48.627466   0.000000
   26       50.359125   0.000000
   27       51.932799   0.000000
   28       53.763857   0.000000
   29       56.852564   0.000000
   30       57.631495   0.000000
   31       59.398892   0.000000
   32       61.169595   0.000000
   33       62.350461   0.000000
   34       63.645569   0.000000
   35       65.590616   0.000000
   36       65.906782   0.000000
   37       67.277840   0.000000
   38       68.371959   0.000000
   39       69.464628   0.000000
   40       70.747997   0.000000
 
  0.3636364E+00  0.1818182E+00  0.0000000E+00  0.9015778E-02
    1        3.340793   1.000000
    2        3.473605   1.000000
    3        3.626990   1.000000
    4        5.091504   1.000000
    5        5.581558   1.000000
    6        5.848231   1.000000
    7        6.416873   1.000000
    8        8.233675  -0.002469
    9        8.469027  -0.000004
   10        8.840892  -0.000000
   11       11.888270  -0.000000
   12       15.107495   0.000000
   13       19.824984   0.000000
   14       20.295560   0.000000
   15       21.235267   0.000000
   16       23.520064   0.000000
   17       26.118965   0.000000
   18       28.031677   0.000000
   19       31.294217   0.000000
   20       40.176525   0.000000
   21       42.351564   0.000000
   22       44.514944   0.000000
   23       46.175115   0.000000
   24       46.940707   0.000000
   25       50.916273   0.000000
   26       50.976877   0.000000
   27       53.004377   0.000000
   28       53.276858   0.000000
   29       57.159876   0.000000
   30       58.156268   0.000000
   31       58.669391   0.000000
   32       61.631614   0.000000
   33       62.199474   0.000000
   34       62.439025   0.000000
   35       66.770348   0.000000
   36       67.225121   0.000000
   37       68.922305   0.000000
   38       69.145369   0.000000
   39       69.783211   0.000000
   40       70.423536   0.000000
 
  0.2727273E+00  0.2727273E+00  0.0000000E+00  0.4507889E-02
    1        3.471824   1.000000
    2        3.892416   1.000000
    3        4.244009   1.000000
    4        4.254650   1.000000
    5        5.407272   1.000000
    6        5.868487   1.000000
    7        6.467941   1.000000
    8        7.780644   0.451820
    9        8.355471  -0.000137
   10        8.811677  -0.000000
   11       12.026387  -0.000000
   12       17.282161   0.000000
   13       17.793360   0.000000
   14       19.859321   0.000000
   15       21.186587   0.000000
   16       25.428358   0.000000
   17       25.716944   0.000000
   18       27.819152   0.000000
   19       28.739698   0.000000
   20       42.237315   0.000000
   21       43.258093   0.000000
   22       46.384723   0.000000
   23       47.405717   0.000000
   24       48.558938   0.000000
   25       48.711371   0.000000
   26       48.889518   0.000000
   27       51.685066   0.000000
   28       54.261183   0.000000
   29       54.613212   0.000000
   30       57.535390   0.000000
   31       58.527617   0.000000
   32       61.117213   0.000000
   33       62.090605   0.000000
   34       62.594468   0.000000
   35       66.518458   0.000000
   36       67.617707   0.000000
   37       67.663442   0.000000
   38       69.405800   0.000000
   39       70.420434   0.000000
   40       71.105371   0.000000
 
  0.3636364E+00  0.2727273E+00  0.0000000E+00  0.4507889E-02
    1        3.479081   1.000000
    2        4.030094   1.000000
    3        4.093141   1.000000
    4        4.624953   1.000000
    5        5.479432   1.000000
    6        5.564373   1.000000
    7        6.629556   1.000000
    8        8.174469  -0.007340
    9        8.294935  -0.000640
   10        8.496782  -0.000002
   11       13.822437   0.000000
   12       15.235105   0.000000
   13       17.412192   0.000000
   14       21.889662   0.000000
   15       22.153458   0.000000
   16       23.343697   0.000000
   17       25.316466   0.000000
   18       26.183988   0.000000
   19       28.113455   0.000000
   20       42.667360   0.000000
   21       45.424045   0.000000
   22       46.696591   0.000000
   23       47.030277   0.000000
   24       47.957755   0.000000
   25       49.557301   0.000000
   26       50.045256   0.000000
   27       53.056007   0.000000
   28       53.295212   0.000000
   29       53.582641   0.000000
   30       57.021280   0.000000
   31       58.438189   0.000000
   32       59.018782   0.000000
   33       62.009065   0.000000
   34       62.285048   0.000000
   35       66.856554   0.000000
   36       67.806164   0.000000
   37       69.843314   0.000000
   38       69.931499   0.000000
   39       69.999859   0.000000
   40       70.262373   0.000000
 
  0.0000000E+00  0.0000000E+00  0.9090909E-01  0.1502630E-02
    1       -1.464302   1.000000
    2        2.348444   1.000000
    3        5.457600   1.000000
    4        6.005117   1.000000
    5        6.005196   1.000000
    6        6.373465   1.000000
    7        6.373560   1.000000
    8        7.021451   1.000001
    9        7.369385   1.008014
   10        7.369408   1.008017
   11        8.597874  -0.000000
   12        8.597898  -0.000000
   13       16.511125   0.000000
   14       31.289033   0.000000
   15       32.464131   0.000000
   16       34.686757   0.000000
   17       37.475445   0.000000
   18       37.475503   0.000000
   19       38.211391   0.000000
   20       38.211561   0.000000
   21       40.554707   0.000000
   22       40.947710   0.000000
   23       40.947728   0.000000
   24       42.408027   0.000000
   25       44.751900   0.000000
   26       44.751917   0.000000
   27       46.746154   0.000000
   28       49.446666   0.000000
   29       49.447048   0.000000
   30       51.560301   0.000000
   31       51.560444   0.000000
   32       53.985407   0.000000
   33       61.196496   0.000000
   34       63.397179   0.000000
   35       63.398109   0.000000
   36       63.646894   0.000000
   37       65.281177   0.000000
   38       65.281866   0.000000
   39       65.980144   0.000000
   40       68.752963   0.000000
 
  0.9090909E-01 -0.1202530E-17  0.9090909E-01  0.9015778E-02
    1       -1.120735   1.000000
    2        2.607154   1.000000
    3        5.428580   1.000000
    4        5.959266   1.000000
    5        6.022894   1.000000
    6        6.208751   1.000000
    7        6.368296   1.000000
    8        6.564592   1.000000
    9        7.238416   1.000566
   10        7.253413   1.000807
   11        8.637028  -0.000000
   12        9.716685  -0.000000
   13       16.564776   0.000000
   14       30.405293   0.000000
   15       32.441580   0.000000
   16       33.277323   0.000000
   17       34.623131   0.000000
   18       36.128048   0.000000
   19       37.630663   0.000000
   20       40.091359   0.000000
   21       40.219376   0.000000
   22       41.314688   0.000000
   23       41.889453   0.000000
   24       42.460708   0.000000
   25       45.854666   0.000000
   26       46.217168   0.000000
   27       47.295154   0.000000
   28       47.432712   0.000000
   29       50.374480   0.000000
   30       52.938337   0.000000
   31       53.863845   0.000000
   32       55.781568   0.000000
   33       59.844937   0.000000
   34       62.291861   0.000000
   35       63.112618   0.000000
   36       63.351987   0.000000
   37       64.596053   0.000000
   38       66.177904   0.000000
   39       67.389476   0.000000
   40       68.714342   0.000000
 
  0.1818182E+00 -0.1211951E-16  0.9090909E-01  0.9015778E-02
    1       -0.155507   1.000000
    2        3.214222   1.000000
    3        4.930702   1.000000
    4        5.163181   1.000000
    5        5.805922   1.000000
    6        6.371020   1.000000
    7        6.717157   1.000000
    8        6.979710   1.000000
    9        6.987231   1.000000
   10        7.140006   1.000040
   11        8.703132  -0.000000
   12       11.502384  -0.000000
   13       16.768100   0.000000
   14       26.842317   0.000000
   15       31.465283   0.000000
   16       31.701770   0.000000
   17       32.838315   0.000000
   18       33.311552   0.000000
   19       37.557436   0.000000
   20       38.959468   0.000000
   21       39.232398   0.000000
   22       40.401470   0.000000
   23       42.862139   0.000000
   24       44.531238   0.000000
   25       46.539711   0.000000
   26       47.186974   0.000000
   27       48.618722   0.000000
   28       51.258380   0.000000
   29       53.414791   0.000000
   30       55.887708   0.000000
   31       56.675308   0.000000
   32       57.980878   0.000000
   33       58.850351   0.000000
   34       60.579754   0.000000
   35       61.702162   0.000000
   36       62.597734   0.000000
   37       64.401904   0.000000
   38       67.201984   0.000000
   39       68.673652   0.000000
   40       69.568541   0.000000
 
  0.2727273E+00 -0.5238229E-17  0.9090909E-01  0.9015778E-02
    1        1.186440   1.000000
    2        3.497815   1.000000
    3        4.049333   1.000000
    4        5.066821   1.000000
    5        5.615680   1.000000
    6        6.415399   1.000000
    7        6.581331   1.000000
    8        7.330317   1.004057
    9        7.651160   0.915654
   10        7.845503   0.201833
   11        8.749479  -0.000000
   12       13.359543   0.000000
   13       17.236601   0.000000
   14       22.846060   0.000000
   15       28.400175   0.000000
   16       29.194764   0.000000
   17       30.830499   0.000000
   18       33.293572   0.000000
   19       35.996094   0.000000
   20       38.105503   0.000000
   21       38.602188   0.000000
   22       40.952627   0.000000
   23       41.218656   0.000000
   24       45.125744   0.000000
   25       49.861491   0.000000
   26       51.327169   0.000000
   27       52.010353   0.000000
   28       52.638227   0.000000
   29       56.143673   0.000000
   30       56.816431   0.000000
   31       58.239142   0.000000
   32       59.723628   0.000000
   33       60.091950   0.000000
   34       60.307650   0.000000
   35       62.315092   0.000000
   36       63.299898   0.000000
   37       64.954318   0.000000
   38       67.812814   0.000000
   39       68.155558   0.000000
   40       69.435250   0.000000
 
  0.3636364E+00  0.2710879E-16  0.9090909E-01  0.9015778E-02
    1        2.307820   1.000000
    2        3.174928   1.000000
    3        3.548815   1.000000
    4        5.069345   1.000000
    5        6.050397   1.000000
    6        6.274681   1.000000
    7        6.318733   1.000000
    8        8.478087  -0.000003
    9        8.552210  -0.000000
   10        8.560547  -0.000000
   11        8.802114  -0.000000
   12       14.794890   0.000000
   13       17.678538   0.000000
   14       20.131396   0.000000
   15       25.168950   0.000000
   16       27.271702   0.000000
   17       28.248662   0.000000
   18       32.466851   0.000000
   19       34.843316   0.000000
   20       36.852651   0.000000
   21       39.686942   0.000000
   22       40.043405   0.000000
   23       42.317092   0.000000
   24       45.735099   0.000000
   25       50.830651   0.000000
   26       53.287363   0.000000
   27       54.665607   0.000000
   28       55.656160   0.000000
   29       56.876000   0.000000
   30       58.514986   0.000000
   31       59.806416   0.000000
   32       60.387348   0.000000
   33       61.441604   0.000000
   34       61.665611   0.000000
   35       63.243962   0.000000
   36       64.802530   0.000000
   37       67.302673   0.000000
   38       67.786629   0.000000
   39       68.840836   0.000000
   40       69.216569   0.000000
 
  0.4545455E+00 -0.3123553E-16  0.9090909E-01  0.9015778E-02
    1        2.667569   1.000000
    2        2.848542   1.000000
    3        3.419976   1.000000
    4        5.157150   1.000000
    5        6.167518   1.000000
    6        6.287109   1.000000
    7        6.573631   1.000000
    8        8.720919  -0.000000
    9        8.996405  -0.000000
   10        9.135674  -0.000000
   11       10.273563  -0.000000
   12       13.808377   0.000000
   13       18.417560   0.000000
   14       20.132512   0.000000
   15       23.061147   0.000000
   16       25.566999   0.000000
   17       26.191103   0.000000
   18       31.840144   0.000000
   19       34.466477   0.000000
   20       35.967307   0.000000
   21       39.563528   0.000000