       N       E                     dE             d eps       ncg     rms          rms(c)
DAV:   1     0.608151052613E+02    0.60815E+02   -0.25407E+03  9408   0.330E+02
DAV:   2    -0.147252120932E+02   -0.75540E+02   -0.64369E+02  7952   0.973E+01
DAV:   3    -0.189963696122E+02   -0.42712E+01   -0.40774E+01  9552   0.240E+01
DAV:   4    -0.190131198236E+02   -0.16750E-01   -0.16741E-01  8984   0.158E+00
DAV:   5    -0.190131330234E+02   -0.13200E-04   -0.13199E-04  9192   0.422E-02    0.184E+01
DAV:   6    -0.162347107584E+02    0.27784E+01   -0.15262E+00 11192   0.234E+01    0.162E+00
DAV:   7    -0.160936710680E+02    0.14104E+00   -0.81223E-02  9896   0.422E+00    0.123E+00
DAV:   8    -0.160627012637E+02    0.30970E-01   -0.24357E-03 10088   0.317E-01    0.542E-01
DAV:   9    -0.160531505067E+02    0.95508E-02   -0.88956E-04 10752   0.168E-01    0.595E-02
DAV:  10    -0.160531630063E+02   -0.12500E-04   -0.31814E-05  8512   0.231E-02    0.214E-02
DAV:  11    -0.160531514920E+02    0.11514E-04   -0.17623E-07  8120   0.466E-03    0.160E-03
DAV:  12    -0.160531506711E+02    0.82086E-06   -0.74853E-08  5968   0.153E-03
   1 F= -.16053151E+02 E0= -.16053478E+02  d E =0.980810E-03
