 vasp.6.2.0 18Jan21 (build Mar 17 2021 09:06:54) complex                        
  
 executed on             LinuxIFC date 2021.09.09  12:04:01
 serial version


--------------------------------------------------------------------------------------------------------


 INCAR:
   ENCUT = 280.000000
   SIGMA = 0.200000
   EDIFF = 1.00e-06
   GGA = PE
   PREC = normal
   IBRION = 1
   ICHARG = 1
   ISIF = 2
   ISMEAR = 1
   KPAR = 1
   NBANDS = 40
   NSW = 0
   NCORE = 1
   LCHARG = .TRUE.

 POTCAR:    PAW_PBE Fe 06Sep2000                  
 POTCAR:    PAW_PBE Fe 06Sep2000                  
   SHA256 =  cd5a22d9368cc8b5cc476bea79732366149640da08ac9009b0e1b7fc627eea28 Fe/POTCAR             
   COPYR  = (c) Copyright 06Sep2000 Georg Kresse                                                    
   COPYR  = This file is part of the software VASP. Any use, copying, and all other rights are regul
   COPYR  = If you do not have a valid VASP license, you may not use, copy or distribute this file. 
   VRHFIN =Fe:  d7 s1                                                                               
   LEXCH  = PE                                                                                      
   EATOM  =   594.3153 eV,   43.6809 Ry                                                             
                                                                                                    
   TITEL  = PAW_PBE Fe 06Sep2000                                                                    
   LULTRA =        F    use ultrasoft PP ?                                                          
   IUNSCR =        1    unscreen: 0-lin 1-nonlin 2-no                                               
   RPACOR =    2.000    partial core radius                                                         
   POMASS =   55.847; ZVAL   =    8.000    mass and valenz                                          
   RCORE  =    2.300    outmost cutoff radius                                                       
   RWIGS  =    2.460; RWIGS  =    1.302    wigner-seitz radius (au A)                               
   ENMAX  =  267.882; ENMIN  =  200.911 eV                                                          
   RCLOC  =    1.701    cutoff for local pot                                                        
   LCOR   =        T    correct aug charges                                                         
   LPAW   =        T    paw PP                                                                      
   EAUG   =  511.368                                                                                
   DEXC   =    0.000                                                                                
   RMAX   =    2.356    core radius for proj-oper                                                   
   RAUG   =    1.300    factor for augmentation sphere                                              
   RDEP   =    2.442    radius for radial grids                                                     
   RDEPT  =    1.890    core radius for aug-charge                                                  
                                                                                                    
   Atomic configuration                                                                             
    9 entries                                                                                       
     n  l   j            E        occ.                                                              
     1  0  0.50     -6993.8440   2.0000                                                             
     2  0  0.50      -814.6047   2.0000                                                             
     2  1  1.50      -693.3689   6.0000                                                             
     3  0  0.50       -89.4732   2.0000                                                             
     3  1  1.50       -55.6373   6.0000                                                             
     3  2  2.50        -3.8151   7.0000                                                             
     4  0  0.50        -4.2551   1.0000                                                             
     4  1  1.50        -3.4015   0.0000                                                             
     4  3  2.50        -1.3606   0.0000                                                             
   Description                                                                                      
     l       E           TYP  RCUT    TYP  RCUT                                                     
     2     -3.8151135     23  2.300                                                                 
     2     -5.1756961     23  2.300                                                                 
     0     -4.2550963     23  2.300                                                                 
     0      7.2035603     23  2.300                                                                 
     1     -2.7211652     23  2.300                                                                 
     1     18.4316424     23  2.300                                                                 
  local pseudopotential read in
  partial core-charges read in
  partial kinetic energy density read in
  atomic valenz-charges read in
  non local Contribution for L=           2  read in
    real space projection operators read in
  non local Contribution for L=           2  read in
    real space projection operators read in
  non local Contribution for L=           0  read in
    real space projection operators read in
  non local Contribution for L=           0  read in
    real space projection operators read in
  non local Contribution for L=           1  read in
    real space projection operators read in
  non local Contribution for L=           1  read in
    real space projection operators read in
    PAW grid and wavefunctions read in
 
   number of l-projection  operators is LMAX  =           6
   number of lm-projection operators is LMMAX =          18
 
  PAW_PBE Fe 06Sep2000                  :
 energy of atom  1       EATOM= -594.3153
 kinetic energy error for atom=    0.0278 (will be added to EATOM!!)
 
 
 POSCAR: Fe
  positions in cartesian coordinates
  No initial velocities read in
 exchange correlation table for  LEXCH =        8
   RHO(1)=    0.500       N(1)  =     2000
   RHO(2)=  100.500       N(2)  =     4000
 


--------------------------------------------------------------------------------------------------------


 ion  position               nearest neighbor table
   1  0.000  0.000  0.000-   2 2.42   2 2.42   2 2.42   2 2.42   2 2.42   2 2.42
   2  0.333  0.667  0.500-   1 2.42   1 2.42   1 2.42   1 2.42   1 2.42   1 2.42
 
  LATTYP: Found a hexagonal cell.
 ALAT       =     2.3300000000
 C/A-ratio  =     1.7244635193
  
  Lattice vectors:
  
 A1 = (   2.3300000000,   0.0000000000,   0.0000000000)
 A2 = (  -1.1650000000,   2.0178391908,   0.0000000000)
 A3 = (   0.0000000000,   0.0000000000,   4.0180000000)


Analysis of symmetry for initial positions (statically):
=====================================================================
 Subroutine PRICEL returns:
 Original cell was already a primitive cell.
 

 Routine SETGRP: Setting up the symmetry group for a 
 hexagonal supercell.


 Subroutine GETGRP returns: Found 24 space group operations
 (whereof 12 operations were pure point group operations)
 out of a pool of 24 trial point group operations.


The static configuration has the point symmetry D_3h.
 The point group associated with its full space group is D_6h.


Analysis of symmetry for dynamics (positions and initial velocities):
=====================================================================
 Subroutine PRICEL returns:
 Original cell was already a primitive cell.
 

 Routine SETGRP: Setting up the symmetry group for a 
 hexagonal supercell.


 Subroutine GETGRP returns: Found 24 space group operations
 (whereof 12 operations were pure point group operations)
 out of a pool of 24 trial point group operations.


The dynamic configuration has the point symmetry D_3h.
 The point group associated with its full space group is D_6h.


 Subroutine INISYM returns: Found 24 space group operations
 (whereof 12 operations are pure point group operations),
 and found     1 'primitive' translations


----------------------------------------------------------------------------------------

                                     Primitive cell                                     

  volume of cell :      18.8909

  direct lattice vectors                    reciprocal lattice vectors
     2.330000000  0.000000000  0.000000000     0.429184549  0.247789815  0.000000000
    -1.165000000  2.017839191  0.000000000     0.000000000  0.495579630  0.000000000
     0.000000000  0.000000000  4.018000000     0.000000000  0.000000000  0.248880040

  length of vectors
     2.330000000  2.330000000  4.018000000     0.495579630  0.495579630  0.248880040

  position of ions in fractional coordinates (direct lattice)
     0.000000000  0.000000000  0.000000000
     0.333333333  0.666666667  0.500000000

  ion indices of the primitive-cell ions
   primitive index   ion index
                 1           1
                 2           2

----------------------------------------------------------------------------------------

 
 
 KPOINTS: KPOINTS created by Atomic Simulation Env

Automatic generation of k-mesh.
 Grid dimensions read from file:
 generate k-points for:   11   11   11

 Generating k-lattice:

  Cartesian coordinates                     Fractional coordinates (reciprocal lattice)
     0.039016777  0.022526347  0.000000000     0.090909091 -0.000000000  0.000000000
     0.000000000  0.045052694  0.000000000     0.000000000  0.090909091  0.000000000
     0.000000000  0.000000000  0.022625458     0.000000000  0.000000000  0.090909091

  Length of vectors
     0.045052694  0.045052694  0.022625458

  Shift w.r.t. Gamma in fractional coordinates (k-lattice)
     0.000000000  0.000000000  0.000000000

 
 Subroutine IBZKPT returns following result:
 ===========================================
 
 Found     96 irreducible k-points:
 
 Following reciprocal coordinates:
            Coordinates               Weight
  0.000000  0.000000  0.000000      1.000000
  0.090909 -0.000000  0.000000      6.000000
  0.181818 -0.000000  0.000000      6.000000
  0.272727 -0.000000  0.000000      6.000000
  0.363636  0.000000  0.000000      6.000000
  0.454545 -0.000000  0.000000      6.000000
  0.090909  0.090909  0.000000      6.000000
  0.181818  0.090909  0.000000     12.000000
  0.272727  0.090909  0.000000     12.000000
  0.363636  0.090909  0.000000     12.000000
  0.454545  0.090909  0.000000      6.000000
  0.181818  0.181818  0.000000      6.000000
  0.272727  0.181818  0.000000     12.000000
  0.363636  0.181818  0.000000     12.000000
  0.272727  0.272727  0.000000      6.000000
  0.363636  0.272727  0.000000      6.000000
  0.000000  0.000000  0.090909      2.000000
  0.090909 -0.000000  0.090909     12.000000
  0.181818 -0.000000  0.090909     12.000000
  0.272727 -0.000000  0.090909     12.000000
  0.363636  0.000000  0.090909     12.000000
  0.454545 -0.000000  0.090909     12.000000
  0.090909  0.090909  0.090909     12.000000
  0.181818  0.090909  0.090909     24.000000
  0.272727  0.090909  0.090909     24.000000
  0.363636  0.090909  0.090909     24.000000
  0.454545  0.090909  0.090909     12.000000
  0.181818  0.181818  0.090909     12.000000
  0.272727  0.181818  0.090909     24.000000
  0.363636  0.181818  0.090909     24.000000
  0.272727  0.272727  0.090909     12.000000
  0.363636  0.272727  0.090909     12.000000
  0.000000  0.000000  0.181818      2.000000
  0.090909 -0.000000  0.181818     12.000000
  0.181818 -0.000000  0.181818     12.000000
  0.272727 -0.000000  0.181818     12.000000
  0.363636  0.000000  0.181818     12.000000
  0.454545 -0.000000  0.181818     12.000000
  0.090909  0.090909  0.181818     12.000000
  0.181818  0.090909  0.181818     24.000000
  0.272727  0.090909  0.181818     24.000000
  0.363636  0.090909  0.181818     24.000000
  0.454545  0.090909  0.181818     12.000000
  0.181818  0.181818  0.181818     12.000000
  0.272727  0.181818  0.181818     24.000000
  0.363636  0.181818  0.181818     24.000000
  0.272727  0.272727  0.181818     12.000000
  0.363636  0.272727  0.181818     12.000000
  0.000000  0.000000  0.272727      2.000000
  0.090909 -0.000000  0.272727     12.000000
  0.181818 -0.000000  0.272727     12.000000
  0.272727 -0.000000  0.272727     12.000000
  0.363636  0.000000  0.272727     12.000000
  0.454545 -0.000000  0.272727     12.000000
  0.090909  0.090909  0.272727     12.000000
  0.181818  0.090909  0.272727     24.000000
  0.272727  0.090909  0.272727     24.000000
  0.363636  0.090909  0.272727     24.000000
  0.454545  0.090909  0.272727     12.000000
  0.181818  0.181818  0.272727     12.000000
  0.272727  0.181818  0.272727     24.000000
  0.363636  0.181818  0.272727     24.000000
  0.272727  0.272727  0.272727     12.000000
  0.363636  0.272727  0.272727     12.000000
  0.000000  0.000000  0.363636      2.000000
  0.090909 -0.000000  0.363636     12.000000
  0.181818 -0.000000  0.363636     12.000000
  0.272727 -0.000000  0.363636     12.000000
  0.363636  0.000000  0.363636     12.000000
  0.454545 -0.000000  0.363636     12.000000
  0.090909  0.090909  0.363636     12.000000
  0.181818  0.090909  0.363636     24.000000
  0.272727  0.090909  0.363636     24.000000
  0.363636  0.090909  0.363636     24.000000
  0.454545  0.090909  0.363636     12.000000
  0.181818  0.181818  0.363636     12.000000
  0.272727  0.181818  0.363636     24.000000
  0.363636  0.181818  0.363636     24.000000
  0.272727  0.272727  0.363636     12.000000
  0.363636  0.272727  0.363636     12.000000
  0.000000  0.000000  0.454545      2.000000
  0.090909 -0.000000  0.454545     12.000000
  0.181818 -0.000000  0.454545     12.000000
  0.272727 -0.000000  0.454545     12.000000
  0.363636  0.000000  0.454545     12.000000
  0.454545 -0.000000  0.454545     12.000000
  0.090909  0.090909  0.454545     12.000000
  0.181818  0.090909  0.454545     24.000000
  0.272727  0.090909  0.454545     24.000000
  0.363636  0.090909  0.454545     24.000000
  0.454545  0.090909  0.454545     12.000000
  0.181818  0.181818  0.454545     12.000000
  0.272727  0.181818  0.454545     24.000000
  0.363636  0.181818  0.454545     24.000000
  0.272727  0.272727  0.454545     12.000000
  0.363636  0.272727  0.454545     12.000000
 
 Following cartesian coordinates:
            Coordinates               Weight
  0.000000  0.000000  0.000000      1.000000
  0.039017  0.022526  0.000000      6.000000
  0.078034  0.045053  0.000000      6.000000
  0.117050  0.067579  0.000000      6.000000
  0.156067  0.090105  0.000000      6.000000
  0.195084  0.112632  0.000000      6.000000
  0.039017  0.067579  0.000000      6.000000
  0.078034  0.090105  0.000000     12.000000
  0.117050  0.112632  0.000000     12.000000
  0.156067  0.135158  0.000000     12.000000
  0.195084  0.157684  0.000000      6.000000
  0.078034  0.135158  0.000000      6.000000
  0.117050  0.157684  0.000000     12.000000
  0.156067  0.180211  0.000000     12.000000
  0.117050  0.202737  0.000000      6.000000
  0.156067  0.225263  0.000000      6.000000
  0.000000  0.000000  0.022625      2.000000
  0.039017  0.022526  0.022625     12.000000
  0.078034  0.045053  0.022625     12.000000
  0.117050  0.067579  0.022625     12.000000
  0.156067  0.090105  0.022625     12.000000
  0.195084  0.112632  0.022625     12.000000
  0.039017  0.067579  0.022625     12.000000
  0.078034  0.090105  0.022625     24.000000
  0.117050  0.112632  0.022625     24.000000
  0.156067  0.135158  0.022625     24.000000
  0.195084  0.157684  0.022625     12.000000
  0.078034  0.135158  0.022625     12.000000
  0.117050  0.157684  0.022625     24.000000
  0.156067  0.180211  0.022625     24.000000
  0.117050  0.202737  0.022625     12.000000
  0.156067  0.225263  0.022625     12.000000
  0.000000  0.000000  0.045251      2.000000
  0.039017  0.022526  0.045251     12.000000
  0.078034  0.045053  0.045251     12.000000
  0.117050  0.067579  0.045251     12.000000
  0.156067  0.090105  0.045251     12.000000
  0.195084  0.112632  0.045251     12.000000
  0.039017  0.067579  0.045251     12.000000
  0.078034  0.090105  0.045251     24.000000
  0.117050  0.112632  0.045251     24.000000
  0.156067  0.135158  0.045251     24.000000
  0.195084  0.157684  0.045251     12.000000
  0.078034  0.135158  0.045251     12.000000
  0.117050  0.157684  0.045251     24.000000
  0.156067  0.180211  0.045251     24.000000
  0.117050  0.202737  0.045251     12.000000
  0.156067  0.225263  0.045251     12.000000
  0.000000  0.000000  0.067876      2.000000
  0.039017  0.022526  0.067876     12.000000
  0.078034  0.045053  0.067876     12.000000
  0.117050  0.067579  0.067876     12.000000
  0.156067  0.090105  0.067876     12.000000
  0.195084  0.112632  0.067876     12.000000
  0.039017  0.067579  0.067876     12.000000
  0.078034  0.090105  0.067876     24.000000
  0.117050  0.112632  0.067876     24.000000
  0.156067  0.135158  0.067876     24.000000
  0.195084  0.157684  0.067876     12.000000
  0.078034  0.135158  0.067876     12.000000
  0.117050  0.157684  0.067876     24.000000
  0.156067  0.180211  0.067876     24.000000
  0.117050  0.202737  0.067876     12.000000
  0.156067  0.225263  0.067876     12.000000
  0.000000  0.000000  0.090502      2.000000
  0.039017  0.022526  0.090502     12.000000
  0.078034  0.045053  0.090502     12.000000
  0.117050  0.067579  0.090502     12.000000
  0.156067  0.090105  0.090502     12.000000
  0.195084  0.112632  0.090502     12.000000
  0.039017  0.067579  0.090502     12.000000
  0.078034  0.090105  0.090502     24.000000
  0.117050  0.112632  0.090502     24.000000
  0.156067  0.135158  0.090502     24.000000
  0.195084  0.157684  0.090502     12.000000
  0.078034  0.135158  0.090502     12.000000
  0.117050  0.157684  0.090502     24.000000
  0.156067  0.180211  0.090502     24.000000
  0.117050  0.202737  0.090502     12.000000
  0.156067  0.225263  0.090502     12.000000
  0.000000  0.000000  0.113127      2.000000
  0.039017  0.022526  0.113127     12.000000
  0.078034  0.045053  0.113127     12.000000
  0.117050  0.067579  0.113127     12.000000
  0.156067  0.090105  0.113127     12.000000
  0.195084  0.112632  0.113127     12.000000
  0.039017  0.067579  0.113127     12.000000
  0.078034  0.090105  0.113127     24.000000
  0.117050  0.112632  0.113127     24.000000
  0.156067  0.135158  0.113127     24.000000
  0.195084  0.157684  0.113127     12.000000
  0.078034  0.135158  0.113127     12.000000
  0.117050  0.157684  0.113127     24.000000
  0.156067  0.180211  0.113127     24.000000
  0.117050  0.202737  0.113127     12.000000
  0.156067  0.225263  0.113127     12.000000
 


--------------------------------------------------------------------------------------------------------




 Dimension of arrays:
   k-points           NKPTS =     96   k-points in BZ     NKDIM =     96   number of bands    NBANDS=     40
   number of dos      NEDOS =    301   number of ions     NIONS =      2
   non local maximal  LDIM  =      6   non local SUM 2l+1 LMDIM =     18
   total plane-waves  NPLWV =   1600
   max r-space proj   IRMAX =      1   max aug-charges    IRDMAX=   3216
   dimension x,y,z NGX =    10 NGY =   10 NGZ =   16
   dimension x,y,z NGXF=    20 NGYF=   20 NGZF=   32
   support grid    NGXF=    20 NGYF=   20 NGZF=   32
   ions per type =               2
   NGX,Y,Z   is equivalent  to a cutoff of   7.14,  7.14,  6.62 a.u.
   NGXF,Y,Z  is equivalent  to a cutoff of  14.27, 14.27, 13.24 a.u.

 SYSTEM =  unknown system                          
 POSCAR =  Fe                                      

 Startparameter for this run:
   NWRITE =      2    write-flag & timer
   PREC   = normal    normal or accurate (medium, high low for compatibility)
   ISTART =      0    job   : 0-new  1-cont  2-samecut
   ICHARG =      1    charge: 1-file 2-atom 10-const
   ISPIN  =      1    spin polarized calculation?
   LNONCOLLINEAR =      F non collinear calculations
   LSORBIT =      F    spin-orbit coupling
   INIWAV =      1    electr: 0-lowe 1-rand  2-diag
   LASPH  =      F    aspherical Exc in radial PAW
   METAGGA=      F    non-selfconsistent MetaGGA calc.

 Electronic Relaxation 1
   ENCUT  =  280.0 eV  20.58 Ry    4.54 a.u.   3.18  3.18  5.48*2*pi/ulx,y,z
   ENINI  =  280.0     initial cutoff
   ENAUG  =  511.4 eV  augmentation charge cutoff
   NELM   =     60;   NELMIN=  2; NELMDL= -5     # of ELM steps 
   EDIFF  = 0.1E-05   stopping-criterion for ELM
   LREAL  =      F    real-space projection
   NLSPLINE    = F    spline interpolate recip. space projectors
   LCOMPAT=      F    compatible to vasp.4.4
   GGA_COMPAT  = T    GGA compatible to vasp.4.4-vasp.4.6
   LMAXPAW     = -100 max onsite density
   LMAXMIX     =    2 max onsite mixed and CHGCAR
   VOSKOWN=      0    Vosko Wilk Nusair interpolation
   ROPT   =    0.00000
 Ionic relaxation
   EDIFFG = 0.1E-04   stopping-criterion for IOM
   NSW    =      0    number of steps for IOM
   NBLOCK =      1;   KBLOCK =      1    inner block; outer block 
   IBRION =     -1    ionic relax: 0-MD 1-quasi-New 2-CG
   NFREE  =      0    steps in history (QN), initial steepest desc. (CG)
   ISIF   =      2    stress and relaxation
   IWAVPR =      0    prediction:  0-non 1-charg 2-wave 3-comb
   ISYM   =      2    0-nonsym 1-usesym 2-fastsym
   LCORR  =      T    Harris-Foulkes like correction to forces

   POTIM  = 0.5000    time-step for ionic-motion
   TEIN   =    0.0    initial temperature
   TEBEG  =    0.0;   TEEND  =   0.0 temperature during run
   SMASS  =  -3.00    Nose mass-parameter (am)
   estimated Nose-frequenzy (Omega)   =  0.10E-29 period in steps = 0.13E+47 mass=  -0.124E-27a.u.
   SCALEE = 1.0000    scale energy and forces
   NPACO  =    256;   APACO  = 16.0  distance and # of slots for P.C.
   PSTRESS=    0.0 pullay stress

  Mass of Ions in am
   POMASS =  55.85
  Ionic Valenz
   ZVAL   =   8.00
  Atomic Wigner-Seitz radii
   RWIGS  =  -1.00
  virtual crystal weights 
   VCA    =   1.00
   NELECT =      16.0000    total number of electrons
   NUPDOWN=      -1.0000    fix difference up-down

 DOS related values:
   EMIN   =  10.00;   EMAX   =-10.00  energy-range for DOS
   EFERMI =   0.00
   ISMEAR =     1;   SIGMA  =   0.20  broadening in eV -4-tet -1-fermi 0-gaus

 Electronic relaxation 2 (details)
   IALGO  =     38    algorithm
   LDIAG  =      T    sub-space diagonalisation (order eigenvalues)
   LSUBROT=      F    optimize rotation matrix (better conditioning)
   TURBO    =      0    0=normal 1=particle mesh
   IRESTART =      0    0=no restart 2=restart with 2 vectors
   NREBOOT  =      0    no. of reboots
   NMIN     =      0    reboot dimension
   EREF     =   0.00    reference energy to select bands
   IMIX   =      4    mixing-type and parameters
     AMIX     =   0.40;   BMIX     =  1.00
     AMIX_MAG =   1.60;   BMIX_MAG =  1.00
     AMIN     =   0.10
     WC   =   100.;   INIMIX=   1;  MIXPRE=   1;  MAXMIX= -45

 Intra band minimization:
   WEIMIN = 0.0000     energy-eigenvalue tresh-hold
   EBREAK =  0.62E-08  absolut break condition
   DEPER  =   0.30     relativ break condition  

   TIME   =   0.40     timestep for ELM

  volume/ion in A,a.u.               =       9.45        63.74
  Fermi-wavevector in a.u.,A,eV,Ry     =   1.548926  2.927046 32.642716  2.399172
  Thomas-Fermi vector in A             =   2.653806
 
 Write flags
   LWAVE        =      T    write WAVECAR
   LDOWNSAMPLE  =      F    k-point downsampling of WAVECAR
   LCHARG       =      T    write CHGCAR
   LVTOT        =      F    write LOCPOT, total local potential
   LVHAR        =      F    write LOCPOT, Hartree potential only
   LELF         =      F    write electronic localiz. function (ELF)
   LORBIT       =      0    0 simple, 1 ext, 2 COOP (PROOUT), +10 PAW based schemes


 Dipole corrections
   LMONO  =      F    monopole corrections only (constant potential shift)
   LDIPOL =      F    correct potential (dipole corrections)
   IDIPOL =      0    1-x, 2-y, 3-z, 4-all directions 
   EPSILON=  1.0000000 bulk dielectric constant

 Exchange correlation treatment:
   GGA     =    PE    GGA type
   LEXCH   =     8    internal setting for exchange type
   VOSKOWN=      0    Vosko Wilk Nusair interpolation
   LHFCALC =     F    Hartree Fock is set to
   LHFONE  =     F    Hartree Fock one center treatment
   AEXX    =    0.0000 exact exchange contribution

 Linear response parameters
   LEPSILON=     F    determine dielectric tensor
   LRPA    =     F    only Hartree local field effects (RPA)
   LNABLA  =     F    use nabla operator in PAW spheres
   LVEL    =     F    velocity operator in full k-point grid
   LINTERFAST=   F  fast interpolation
   KINTER  =     0    interpolate to denser k-point grid
   CSHIFT  =0.1000    complex shift for real part using Kramers Kronig
   OMEGAMAX=  -1.0    maximum frequency
   DEG_THRESHOLD= 0.2000000E-02 threshold for treating states as degnerate
   RTIME   =   -0.100 relaxation time in fs
  (WPLASMAI=    0.000 imaginary part of plasma frequency in eV, 0.658/RTIME)
   DFIELD  = 0.0000000 0.0000000 0.0000000 field for delta impulse in time
 
 Orbital magnetization related:
   ORBITALMAG=     F  switch on orbital magnetization
   LCHIMAG   =     F  perturbation theory with respect to B field
   DQ        =  0.001000  dq finite difference perturbation B field
   LLRAUG    =     F  two centre corrections for induced B field



--------------------------------------------------------------------------------------------------------


 Static calculation
 charge density and potential will be updated during run
 non-spin polarized calculation
 Variant of blocked Davidson
 Davidson routine will perform the subspace rotation
 perform sub-space diagonalisation
    after iterative eigenvector-optimisation
 modified Broyden-mixing scheme, WC =      100.0
 initial mixing is a Kerker type mixing with AMIX =  0.4000 and BMIX =      1.0000
 Hartree-type preconditioning will be used
 using additional bands           32
 reciprocal scheme for non local part
 use partial core corrections
 calculate Harris-corrections to forces 
   (improved forces if not selfconsistent)
 use gradient corrections 
 use of overlap-Matrix (Vanderbilt PP)
 Methfessel and Paxton  Order N= 1 SIGMA  =   0.20


--------------------------------------------------------------------------------------------------------


  energy-cutoff  :      280.00
  volume of cell :       18.89
      direct lattice vectors                 reciprocal lattice vectors
     2.330000000  0.000000000  0.000000000     0.429184549  0.247789815  0.000000000
    -1.165000000  2.017839191  0.000000000     0.000000000  0.495579630  0.000000000
     0.000000000  0.000000000  4.018000000     0.000000000  0.000000000  0.248880040

  length of vectors
     2.330000000  2.330000000  4.018000000     0.495579630  0.495579630  0.248880040


 
 k-points in units of 2pi/SCALE and weight: KPOINTS created by Atomic Simulation Env
   0.00000000  0.00000000  0.00000000       0.001
   0.03901678  0.02252635  0.00000000       0.005
   0.07803355  0.04505269  0.00000000       0.005
   0.11705033  0.06757904  0.00000000       0.005
   0.15606711  0.09010539  0.00000000       0.005
   0.19508389  0.11263173  0.00000000       0.005
   0.03901678  0.06757904  0.00000000       0.005
   0.07803355  0.09010539  0.00000000       0.009
   0.11705033  0.11263173  0.00000000       0.009
   0.15606711  0.13515808  0.00000000       0.009
   0.19508389  0.15768443  0.00000000       0.005
   0.07803355  0.13515808  0.00000000       0.005
   0.11705033  0.15768443  0.00000000       0.009
   0.15606711  0.18021077  0.00000000       0.009
   0.11705033  0.20273712  0.00000000       0.005
   0.15606711  0.22526347  0.00000000       0.005
   0.00000000  0.00000000  0.02262546       0.002
   0.03901678  0.02252635  0.02262546       0.009
   0.07803355  0.04505269  0.02262546       0.009
   0.11705033  0.06757904  0.02262546       0.009
   0.15606711  0.09010539  0.02262546       0.009
   0.19508389  0.11263173  0.02262546       0.009
   0.03901678  0.06757904  0.02262546       0.009
   0.07803355  0.09010539  0.02262546       0.018
   0.11705033  0.11263173  0.02262546       0.018
   0.15606711  0.13515808  0.02262546       0.018
   0.19508389  0.15768443  0.02262546       0.009
   0.07803355  0.13515808  0.02262546       0.009
   0.11705033  0.15768443  0.02262546       0.018
   0.15606711  0.18021077  0.02262546       0.018
   0.11705033  0.20273712  0.02262546       0.009
   0.15606711  0.22526347  0.02262546       0.009
   0.00000000  0.00000000  0.04525092       0.002
   0.03901678  0.02252635  0.04525092       0.009
   0.07803355  0.04505269  0.04525092       0.009
   0.11705033  0.06757904  0.04525092       0.009
   0.15606711  0.09010539  0.04525092       0.009
   0.19508389  0.11263173  0.04525092       0.009
   0.03901678  0.06757904  0.04525092       0.009
   0.07803355  0.09010539  0.04525092       0.018
   0.11705033  0.11263173  0.04525092       0.018
   0.15606711  0.13515808  0.04525092       0.018
   0.19508389  0.15768443  0.04525092       0.009
   0.07803355  0.13515808  0.04525092       0.009
   0.11705033  0.15768443  0.04525092       0.018
   0.15606711  0.18021077  0.04525092       0.018
   0.11705033  0.20273712  0.04525092       0.009
   0.15606711  0.22526347  0.04525092       0.009
   0.00000000  0.00000000  0.06787637       0.002
   0.03901678  0.02252635  0.06787637       0.009
   0.07803355  0.04505269  0.06787637       0.009
   0.11705033  0.06757904  0.06787637       0.009
   0.15606711  0.09010539  0.06787637       0.009
   0.19508389  0.11263173  0.06787637       0.009
   0.03901678  0.06757904  0.06787637       0.009
   0.07803355  0.09010539  0.06787637       0.018
   0.11705033  0.11263173  0.06787637       0.018
   0.15606711  0.13515808  0.06787637       0.018
   0.19508389  0.15768443  0.06787637       0.009
   0.07803355  0.13515808  0.06787637       0.009
   0.11705033  0.15768443  0.06787637       0.018
   0.15606711  0.18021077  0.06787637       0.018
   0.11705033  0.20273712  0.06787637       0.009
   0.15606711  0.22526347  0.06787637       0.009
   0.00000000  0.00000000  0.09050183       0.002
   0.03901678  0.02252635  0.09050183       0.009
   0.07803355  0.04505269  0.09050183       0.009
   0.11705033  0.06757904  0.09050183       0.009
   0.15606711  0.09010539  0.09050183       0.009
   0.19508389  0.11263173  0.09050183       0.009
   0.03901678  0.06757904  0.09050183       0.009
   0.07803355  0.09010539  0.09050183       0.018
   0.11705033  0.11263173  0.09050183       0.018
   0.15606711  0.13515808  0.09050183       0.018
   0.19508389  0.15768443  0.09050183       0.009
   0.07803355  0.13515808  0.09050183       0.009
   0.11705033  0.15768443  0.09050183       0.018
   0.15606711  0.18021077  0.09050183       0.018
   0.11705033  0.20273712  0.09050183       0.009
   0.15606711  0.22526347  0.09050183       0.009
   0.00000000  0.00000000  0.11312729       0.002
   0.03901678  0.02252635  0.11312729       0.009
   0.07803355  0.04505269  0.11312729       0.009
   0.11705033  0.06757904  0.11312729       0.009
   0.15606711  0.09010539  0.11312729       0.009
   0.19508389  0.11263173  0.11312729       0.009
   0.03901678  0.06757904  0.11312729       0.009
   0.07803355  0.09010539  0.11312729       0.018
   0.11705033  0.11263173  0.11312729       0.018
   0.15606711  0.13515808  0.11312729       0.018
   0.19508389  0.15768443  0.11312729       0.009
   0.07803355  0.13515808  0.11312729       0.009
   0.11705033  0.15768443  0.11312729       0.018
   0.15606711  0.18021077  0.11312729       0.018
   0.11705033  0.20273712  0.11312729       0.009
   0.15606711  0.22526347  0.11312729       0.009
 
 k-points in reciprocal lattice and weights: KPOINTS created by Atomic Simulation Env
   0.00000000  0.00000000  0.00000000       0.001
   0.09090909 -0.00000000  0.00000000       0.005
   0.18181818 -0.00000000  0.00000000       0.005
   0.27272727 -0.00000000  0.00000000       0.005
   0.36363636  0.00000000  0.00000000       0.005
   0.45454545 -0.00000000  0.00000000       0.005
   0.09090909  0.09090909  0.00000000       0.005
   0.18181818  0.09090909  0.00000000       0.009
   0.27272727  0.09090909  0.00000000       0.009
   0.36363636  0.09090909  0.00000000       0.009
   0.45454545  0.09090909  0.00000000       0.005
   0.18181818  0.18181818  0.00000000       0.005
   0.27272727  0.18181818  0.00000000       0.009
   0.36363636  0.18181818  0.00000000       0.009
   0.27272727  0.27272727  0.00000000       0.005
   0.36363636  0.27272727  0.00000000       0.005
   0.00000000  0.00000000  0.09090909       0.002
   0.09090909 -0.00000000  0.09090909       0.009
   0.18181818 -0.00000000  0.09090909       0.009
   0.27272727 -0.00000000  0.09090909       0.009
   0.36363636  0.00000000  0.09090909       0.009
   0.45454545 -0.00000000  0.09090909       0.009
   0.09090909  0.09090909  0.09090909       0.009
   0.18181818  0.09090909  0.09090909       0.018
   0.27272727  0.09090909  0.09090909       0.018
   0.36363636  0.09090909  0.09090909       0.018
   0.45454545  0.09090909  0.09090909       0.009
   0.18181818  0.18181818  0.09090909       0.009
   0.27272727  0.18181818  0.09090909       0.018
   0.36363636  0.18181818  0.09090909       0.018
   0.27272727  0.27272727  0.09090909       0.009
   0.36363636  0.27272727  0.09090909       0.009
   0.00000000  0.00000000  0.18181818       0.002
   0.09090909 -0.00000000  0.18181818       0.009
   0.18181818 -0.00000000  0.18181818       0.009
   0.27272727 -0.00000000  0.18181818       0.009
   0.36363636  0.00000000  0.18181818       0.009
   0.45454545 -0.00000000  0.18181818       0.009
   0.09090909  0.09090909  0.18181818       0.009
   0.18181818  0.09090909  0.18181818       0.018
   0.27272727  0.09090909  0.18181818       0.018
   0.36363636  0.09090909  0.18181818       0.018
   0.45454545  0.09090909  0.18181818       0.009
   0.18181818  0.18181818  0.18181818       0.009
   0.27272727  0.18181818  0.18181818       0.018
   0.36363636  0.18181818  0.18181818       0.018
   0.27272727  0.27272727  0.18181818       0.009
   0.36363636  0.27272727  0.18181818       0.009
   0.00000000  0.00000000  0.27272727       0.002
   0.09090909 -0.00000000  0.27272727       0.009
   0.18181818 -0.00000000  0.27272727       0.009
   0.27272727 -0.00000000  0.27272727       0.009
   0.36363636  0.00000000  0.27272727       0.009
   0.45454545 -0.00000000  0.27272727       0.009
   0.09090909  0.09090909  0.27272727       0.009
   0.18181818  0.09090909  0.27272727       0.018
   0.27272727  0.09090909  0.27272727       0.018
   0.36363636  0.09090909  0.27272727       0.018
   0.45454545  0.09090909  0.27272727       0.009
   0.18181818  0.18181818  0.27272727       0.009
   0.27272727  0.18181818  0.27272727       0.018
   0.36363636  0.18181818  0.27272727       0.018
   0.27272727  0.27272727  0.27272727       0.009
   0.36363636  0.27272727  0.27272727       0.009
   0.00000000  0.00000000  0.36363636       0.002
   0.09090909 -0.00000000  0.36363636       0.009
   0.18181818 -0.00000000  0.36363636       0.009
   0.27272727 -0.00000000  0.36363636       0.009
   0.36363636  0.00000000  0.36363636       0.009
   0.45454545 -0.00000000  0.36363636       0.009
   0.09090909  0.09090909  0.36363636       0.009
   0.18181818  0.09090909  0.36363636       0.018
   0.27272727  0.09090909  0.36363636       0.018
   0.36363636  0.09090909  0.36363636       0.018
   0.45454545  0.09090909  0.36363636       0.009
   0.18181818  0.18181818  0.36363636       0.009
   0.27272727  0.18181818  0.36363636       0.018
   0.36363636  0.18181818  0.36363636       0.018
   0.27272727  0.27272727  0.36363636       0.009
   0.36363636  0.27272727  0.36363636       0.009
   0.00000000  0.00000000  0.45454545       0.002
   0.09090909 -0.00000000  0.45454545       0.009
   0.18181818 -0.00000000  0.45454545       0.009
   0.27272727 -0.00000000  0.45454545       0.009
   0.36363636  0.00000000  0.45454545       0.009
   0.45454545 -0.00000000  0.45454545       0.009
   0.09090909  0.09090909  0.45454545       0.009
   0.18181818  0.09090909  0.45454545       0.018
   0.27272727  0.09090909  0.45454545       0.018
   0.36363636  0.09090909  0.45454545       0.018
   0.45454545  0.09090909  0.45454545       0.009
   0.18181818  0.18181818  0.45454545       0.009
   0.27272727  0.18181818  0.45454545       0.018
   0.36363636  0.18181818  0.45454545       0.018
   0.27272727  0.27272727  0.45454545       0.009
   0.36363636  0.27272727  0.45454545       0.009
 
 position of ions in fractional coordinates (direct lattice) 
   0.00000000  0.00000000  0.00000000
   0.33333333  0.66666667  0.50000000
 
 position of ions in cartesian coordinates  (Angst):
   0.00000000  0.00000000  0.00000000
   0.00000000  1.34522613  2.00900000
 


--------------------------------------------------------------------------------------------------------


 k-point   1 :   0.0000 0.0000 0.0000  plane waves:     209
 k-point   2 :   0.0909-0.0000 0.0000  plane waves:     205
 k-point   3 :   0.1818-0.0000 0.0000  plane waves:     201
 k-point   4 :   0.2727-0.0000 0.0000  plane waves:     198
 k-point   5 :   0.3636 0.0000 0.0000  plane waves:     198
 k-point   6 :   0.4545-0.0000 0.0000  plane waves:     202
 k-point   7 :   0.0909 0.0909 0.0000  plane waves:     205
 k-point   8 :   0.1818 0.0909 0.0000  plane waves:     200
 k-point   9 :   0.2727 0.0909 0.0000  plane waves:     199
 k-point  10 :   0.3636 0.0909 0.0000  plane waves:     206
 k-point  11 :   0.4545 0.0909 0.0000  plane waves:     206
 k-point  12 :   0.1818 0.1818 0.0000  plane waves:     199
 k-point  13 :   0.2727 0.1818 0.0000  plane waves:     201
 k-point  14 :   0.3636 0.1818 0.0000  plane waves:     203
 k-point  15 :   0.2727 0.2727 0.0000  plane waves:     203
 k-point  16 :   0.3636 0.2727 0.0000  plane waves:     203
 k-point  17 :   0.0000 0.0000 0.0909  plane waves:     209
 k-point  18 :   0.0909-0.0000 0.0909  plane waves:     203
 k-point  19 :   0.1818-0.0000 0.0909  plane waves:     204
 k-point  20 :   0.2727-0.0000 0.0909  plane waves:     200
 k-point  21 :   0.3636 0.0000 0.0909  plane waves:     200
 k-point  22 :   0.4545-0.0000 0.0909  plane waves:     203
 k-point  23 :   0.0909 0.0909 0.0909  plane waves:     202
 k-point  24 :   0.1818 0.0909 0.0909  plane waves:     201
 k-point  25 :   0.2727 0.0909 0.0909  plane waves:     201
 k-point  26 :   0.3636 0.0909 0.0909  plane waves:     204
 k-point  27 :   0.4545 0.0909 0.0909  plane waves:     206
 k-point  28 :   0.1818 0.1818 0.0909  plane waves:     195
 k-point  29 :   0.2727 0.1818 0.0909  plane waves:     201
 k-point  30 :   0.3636 0.1818 0.0909  plane waves:     201
 k-point  31 :   0.2727 0.2727 0.0909  plane waves:     201
 k-point  32 :   0.3636 0.2727 0.0909  plane waves:     204
 k-point  33 :   0.0000 0.0000 0.1818  plane waves:     203
 k-point  34 :   0.0909-0.0000 0.1818  plane waves:     202
 k-point  35 :   0.1818-0.0000 0.1818  plane waves:     201
 k-point  36 :   0.2727-0.0000 0.1818  plane waves:     202
 k-point  37 :   0.3636 0.0000 0.1818  plane waves:     200
 k-point  38 :   0.4545-0.0000 0.1818  plane waves:     199
 k-point  39 :   0.0909 0.0909 0.1818  plane waves:     198
 k-point  40 :   0.1818 0.0909 0.1818  plane waves:     198
 k-point  41 :   0.2727 0.0909 0.1818  plane waves:     201
 k-point  42 :   0.3636 0.0909 0.1818  plane waves:     205
 k-point  43 :   0.4545 0.0909 0.1818  plane waves:     209
 k-point  44 :   0.1818 0.1818 0.1818  plane waves:     199
 k-point  45 :   0.2727 0.1818 0.1818  plane waves:     199
 k-point  46 :   0.3636 0.1818 0.1818  plane waves:     204
 k-point  47 :   0.2727 0.2727 0.1818  plane waves:     200
 k-point  48 :   0.3636 0.2727 0.1818  plane waves:     204
 k-point  49 :   0.0000 0.0000 0.2727  plane waves:     203
 k-point  50 :   0.0909-0.0000 0.2727  plane waves:     200
 k-point  51 :   0.1818-0.0000 0.2727  plane waves:     194
 k-point  52 :   0.2727-0.0000 0.2727  plane waves:     200
 k-point  53 :   0.3636 0.0000 0.2727  plane waves:     202
 k-point  54 :   0.4545-0.0000 0.2727  plane waves:     199
 k-point  55 :   0.0909 0.0909 0.2727  plane waves:     198
 k-point  56 :   0.1818 0.0909 0.2727  plane waves:     194
 k-point  57 :   0.2727 0.0909 0.2727  plane waves:     200
 k-point  58 :   0.3636 0.0909 0.2727  plane waves:     200
 k-point  59 :   0.4545 0.0909 0.2727  plane waves:     203
 k-point  60 :   0.1818 0.1818 0.2727  plane waves:     197
 k-point  61 :   0.2727 0.1818 0.2727  plane waves:     206
 k-point  62 :   0.3636 0.1818 0.2727  plane waves:     205
 k-point  63 :   0.2727 0.2727 0.2727  plane waves:     206
 k-point  64 :   0.3636 0.2727 0.2727  plane waves:     203
 k-point  65 :   0.0000 0.0000 0.3636  plane waves:     203
 k-point  66 :   0.0909-0.0000 0.3636  plane waves:     204
 k-point  67 :   0.1818-0.0000 0.3636  plane waves:     195
 k-point  68 :   0.2727-0.0000 0.3636  plane waves:     201
 k-point  69 :   0.3636 0.0000 0.3636  plane waves:     203
 k-point  70 :   0.4545-0.0000 0.3636  plane waves:     200
 k-point  71 :   0.0909 0.0909 0.3636  plane waves:     196
 k-point  72 :   0.1818 0.0909 0.3636  plane waves:     195
 k-point  73 :   0.2727 0.0909 0.3636  plane waves:     199
 k-point  74 :   0.3636 0.0909 0.3636  plane waves:     202
 k-point  75 :   0.4545 0.0909 0.3636  plane waves:     200
 k-point  76 :   0.1818 0.1818 0.3636  plane waves:     201
 k-point  77 :   0.2727 0.1818 0.3636  plane waves:     202
 k-point  78 :   0.3636 0.1818 0.3636  plane waves:     206
 k-point  79 :   0.2727 0.2727 0.3636  plane waves:     205
 k-point  80 :   0.3636 0.2727 0.3636  plane waves:     204
 k-point  81 :   0.0000 0.0000 0.4545  plane waves:     203
 k-point  82 :   0.0909-0.0000 0.4545  plane waves:     203
 k-point  83 :   0.1818-0.0000 0.4545  plane waves:     195
 k-point  84 :   0.2727-0.0000 0.4545  plane waves:     201
 k-point  85 :   0.3636 0.0000 0.4545  plane waves:     204
 k-point  86 :   0.4545-0.0000 0.4545  plane waves:     196
 k-point  87 :   0.0909 0.0909 0.4545  plane waves:     192
 k-point  88 :   0.1818 0.0909 0.4545  plane waves:     197
 k-point  89 :   0.2727 0.0909 0.4545  plane waves:     198
 k-point  90 :   0.3636 0.0909 0.4545  plane waves:     200
 k-point  91 :   0.4545 0.0909 0.4545  plane waves:     198
 k-point  92 :   0.1818 0.1818 0.4545  plane waves:     200
 k-point  93 :   0.2727 0.1818 0.4545  plane waves:     202
 k-point  94 :   0.3636 0.1818 0.4545  plane waves:     200
 k-point  95 :   0.2727 0.2727 0.4545  plane waves:     204
 k-point  96 :   0.3636 0.2727 0.4545  plane waves:     206

 maximum number of plane-waves:       209
 maximum index in each direction: 
   IXMAX=    3   IYMAX=    3   IZMAX=    5
   IXMIN=   -3   IYMIN=   -3   IZMIN=   -5


 total amount of memory used by VASP MPI-rank0    48699. kBytes
=======================================================================

   base      :      30000. kBytes
   nonl-proj :       2895. kBytes
   grid      :        721. kBytes
   one-center:         31. kBytes
   wavefun   :      15052. kBytes
 
     INWAV:  cpu time    0.0000: real time    0.0000
 Broyden mixing: mesh for mixing (old mesh)
   NGX =  7   NGY =  7   NGZ = 11
  (NGX  = 20   NGY  = 20   NGZ  = 32)
  gives a total of    539 points

 initial charge density was supplied:
 charge density of overlapping atoms calculated
 number of electron      16.0000000 magnetization 
 keeping initial charge density in first step


--------------------------------------------------------------------------------------------------------


 Maximum index for augmentation-charges         2934 (set IRDMAX)


--------------------------------------------------------------------------------------------------------


 First call to EWALD:  gamma=   0.666
 Maximum number of real-space cells 3x 3x 2
 Maximum number of reciprocal cells 2x 2x 4

    FEWALD:  cpu time    0.0008: real time    0.0008


--------------------------------------- Iteration      1(   1)  ---------------------------------------


    POTLOK:  cpu time    0.0031: real time    0.0031
    SETDIJ:  cpu time    0.0021: real time    0.0021
     EDDAV:  cpu time    0.7425: real time    0.7626
       DOS:  cpu time    0.0056: real time    0.0056
    --------------------------------------------
      LOOP:  cpu time    0.7533: real time    0.7734

 eigenvalue-minimisations  :  9408
 total energy-change (2. order) : 0.6081511E+02  (-0.2540716E+03)
 number of electron      16.0000000 magnetization 
 augmentation part       16.0000000 magnetization 

 Free energy of the ion-electron system (eV)
  ---------------------------------------------------
  alpha Z        PSCENC =       146.34308510
  Ewald energy   TEWEN  =     -1258.64197719
  -Hartree energ DENC   =      -195.97172423
  -exchange      EXHF   =         0.00000000
  -V(xc)+E(xc)   XCENC  =         8.98395836
  PAW double counting   =      1109.69170683    -1125.09647265
  entropy T*S    EENTRO =        -0.00038017
  eigenvalues    EBANDS =       186.93200111
  atomic energy  EATOM  =      1188.57490811
  Solvation  Ediel_sol  =         0.00000000
  ---------------------------------------------------
  free energy    TOTEN  =        60.81510526 eV

  energy without entropy =       60.81548544  energy(sigma->0) =       60.81523199


--------------------------------------------------------------------------------------------------------




--------------------------------------- Iteration      1(   2)  ---------------------------------------


     EDDAV:  cpu time    0.6384: real time    0.6384
       DOS:  cpu time    0.0061: real time    0.0061
    --------------------------------------------
      LOOP:  cpu time    0.6444: real time    0.6445

 eigenvalue-minimisations  :  7952
 total energy-change (2. order) :-0.7554032E+02  (-0.6436888E+02)
 number of electron      16.0000000 magnetization 
 augmentation part       16.0000000 magnetization 

 Free energy of the ion-electron system (eV)
  ---------------------------------------------------
  alpha Z        PSCENC =       146.34308510
  Ewald energy   TEWEN  =     -1258.64197719
  -Hartree energ DENC   =      -195.97172423
  -exchange      EXHF   =         0.00000000
  -V(xc)+E(xc)   XCENC  =         8.98395836
  PAW double counting   =      1109.69170683    -1125.09647265
  entropy T*S    EENTRO =        -0.00077207
  eigenvalues    EBANDS =       111.39207565
  atomic energy  EATOM  =      1188.57490811
  Solvation  Ediel_sol  =         0.00000000
  ---------------------------------------------------
  free energy    TOTEN  =       -14.72521209 eV

  energy without entropy =      -14.72444003  energy(sigma->0) =      -14.72495474


--------------------------------------------------------------------------------------------------------




--------------------------------------- Iteration      1(   3)  ---------------------------------------


     EDDAV:  cpu time    0.7344: real time    0.7344
       DOS:  cpu time    0.0064: real time    0.0064
    --------------------------------------------
      LOOP:  cpu time    0.7408: real time    0.7408

 eigenvalue-minimisations  :  9552
 total energy-change (2. order) :-0.4271158E+01  (-0.4077414E+01)
 number of electron      16.0000000 magnetization 
 augmentation part       16.0000000 magnetization 

 Free energy of the ion-electron system (eV)
  ---------------------------------------------------
  alpha Z        PSCENC =       146.34308510
  Ewald energy   TEWEN  =     -1258.64197719
  -Hartree energ DENC   =      -195.97172423
  -exchange      EXHF   =         0.00000000
  -V(xc)+E(xc)   XCENC  =         8.98395836
  PAW double counting   =      1109.69170683    -1125.09647265
  entropy T*S    EENTRO =        -0.00004500
  eigenvalues    EBANDS =       107.12019106
  atomic energy  EATOM  =      1188.57490811
  Solvation  Ediel_sol  =         0.00000000
  ---------------------------------------------------
  free energy    TOTEN  =       -18.99636961 eV

  energy without entropy =      -18.99632462  energy(sigma->0) =      -18.99635461


--------------------------------------------------------------------------------------------------------




--------------------------------------- Iteration      1(   4)  ---------------------------------------


     EDDAV:  cpu time    0.6913: real time    0.6913
       DOS:  cpu time    0.0065: real time    0.0065
    --------------------------------------------
      LOOP:  cpu time    0.6977: real time    0.6978

 eigenvalue-minimisations  :  8984
 total energy-change (2. order) :-0.1675021E-01  (-0.1674135E-01)
 number of electron      16.0000000 magnetization 
 augmentation part       16.0000000 magnetization 

 Free energy of the ion-electron system (eV)
  ---------------------------------------------------
  alpha Z        PSCENC =       146.34308510
  Ewald energy   TEWEN  =     -1258.64197719
  -Hartree energ DENC   =      -195.97172423
  -exchange      EXHF   =         0.00000000
  -V(xc)+E(xc)   XCENC  =         8.98395836
  PAW double counting   =      1109.69170683    -1125.09647265
  entropy T*S    EENTRO =        -0.00007983
  eigenvalues    EBANDS =       107.10347569
  atomic energy  EATOM  =      1188.57490811
  Solvation  Ediel_sol  =         0.00000000
  ---------------------------------------------------
  free energy    TOTEN  =       -19.01311982 eV

  energy without entropy =      -19.01303999  energy(sigma->0) =      -19.01309321


--------------------------------------------------------------------------------------------------------




--------------------------------------- Iteration      1(   5)  ---------------------------------------


     EDDAV:  cpu time    0.7024: real time    0.7024
       DOS:  cpu time    0.0062: real time    0.0062
    CHARGE:  cpu time    0.0178: real time    0.0178
    MIXING:  cpu time    0.0001: real time    0.0001
    --------------------------------------------
      LOOP:  cpu time    0.7265: real time    0.7265

 eigenvalue-minimisations  :  9192
 total energy-change (2. order) :-0.1319981E-04  (-0.1319926E-04)
 number of electron      16.0000046 magnetization 
 augmentation part        7.1310972 magnetization 

 Broyden mixing:
  rms(total) = 0.18396E+01    rms(broyden)= 0.18395E+01
  rms(prec ) = 0.29859E+01
  weight for this iteration     100.00

 Free energy of the ion-electron system (eV)
  ---------------------------------------------------
  alpha Z        PSCENC =       146.34308510
  Ewald energy   TEWEN  =     -1258.64197719
  -Hartree energ DENC   =      -195.97172423
  -exchange      EXHF   =         0.00000000
  -V(xc)+E(xc)   XCENC  =         8.98395836
  PAW double counting   =      1109.69170683    -1125.09647265
  entropy T*S    EENTRO =        -0.00007987
  eigenvalues    EBANDS =       107.10346252
  atomic energy  EATOM  =      1188.57490811
  Solvation  Ediel_sol  =         0.00000000
  ---------------------------------------------------
  free energy    TOTEN  =       -19.01313302 eV

  energy without entropy =      -19.01305315  energy(sigma->0) =      -19.01310640


--------------------------------------------------------------------------------------------------------




--------------------------------------- Iteration      1(   6)  ---------------------------------------


    POTLOK:  cpu time    0.0029: real time    0.0029
    SETDIJ:  cpu time    0.0021: real time    0.0021
     EDDAV:  cpu time    0.8428: real time    0.8428
       DOS:  cpu time    0.0065: real time    0.0065
    CHARGE:  cpu time    0.0176: real time    0.0176
    MIXING:  cpu time    0.0002: real time    0.0002
    --------------------------------------------
      LOOP:  cpu time    0.8721: real time    0.8721

 eigenvalue-minimisations  : 11192
 total energy-change (2. order) : 0.2778422E+01  (-0.1526190E+00)
 number of electron      16.0000058 magnetization 
 augmentation part        8.3866990 magnetization 

 Broyden mixing:
  rms(total) = 0.16227E+00    rms(broyden)= 0.16218E+00
  rms(prec ) = 0.26093E+00
  weight for this iteration     100.00

 eigenvalues of (default mixing * dielectric matrix)
  average eigenvalue GAMMA=   0.9783
  0.9783

 Free energy of the ion-electron system (eV)
  ---------------------------------------------------
  alpha Z        PSCENC =       146.34308510
  Ewald energy   TEWEN  =     -1258.64197719
  -Hartree energ DENC   =      -163.66098783
  -exchange      EXHF   =         0.00000000
  -V(xc)+E(xc)   XCENC  =         7.39839854
  PAW double counting   =      1300.61950762    -1312.27360920
  entropy T*S    EENTRO =         0.00104449
  eigenvalues    EBANDS =        75.40491960
  atomic energy  EATOM  =      1188.57490811
  Solvation  Ediel_sol  =         0.00000000
  ---------------------------------------------------
  free energy    TOTEN  =       -16.23471076 eV

  energy without entropy =      -16.23575524  energy(sigma->0) =      -16.23505892


--------------------------------------------------------------------------------------------------------




--------------------------------------- Iteration      1(   7)  ---------------------------------------


    POTLOK:  cpu time    0.0029: real time    0.0029
    SETDIJ:  cpu time    0.0021: real time    0.0021
     EDDAV:  cpu time    0.7493: real time    0.7493
       DOS:  cpu time    0.0065: real time    0.0065
    CHARGE:  cpu time    0.0173: real time    0.0173
    MIXING:  cpu time    0.0002: real time    0.0002
    --------------------------------------------
      LOOP:  cpu time    0.7783: real time    0.7784

 eigenvalue-minimisations  :  9896
 total energy-change (2. order) : 0.1410397E+00  (-0.8122257E-02)
 number of electron      16.0000056 magnetization 
 augmentation part        8.1743444 magnetization 

 Broyden mixing:
  rms(total) = 0.12341E+00    rms(broyden)= 0.12341E+00
  rms(prec ) = 0.20621E+00
  weight for this iteration     100.00

 eigenvalues of (default mixing * dielectric matrix)
  average eigenvalue GAMMA=   1.0589
  1.3313  0.7865

 Free energy of the ion-electron system (eV)
  ---------------------------------------------------
  alpha Z        PSCENC =       146.34308510
  Ewald energy   TEWEN  =     -1258.64197719
  -Hartree energ DENC   =      -166.04183863
  -exchange      EXHF   =         0.00000000
  -V(xc)+E(xc)   XCENC  =         7.54392298
  PAW double counting   =      1394.90520133    -1409.99304416
  entropy T*S    EENTRO =         0.00098336
  eigenvalues    EBANDS =        81.21508803
  atomic energy  EATOM  =      1188.57490811
  Solvation  Ediel_sol  =         0.00000000
  ---------------------------------------------------
  free energy    TOTEN  =       -16.09367107 eV

  energy without entropy =      -16.09465443  energy(sigma->0) =      -16.09399886


--------------------------------------------------------------------------------------------------------




--------------------------------------- Iteration      1(   8)  ---------------------------------------


    POTLOK:  cpu time    0.0028: real time    0.0028
    SETDIJ:  cpu time    0.0021: real time    0.0021
     EDDAV:  cpu time    0.7636: real time    0.7637
       DOS:  cpu time    0.0064: real time    0.0064
    CHARGE:  cpu time    0.0172: real time    0.0172
    MIXING:  cpu time    0.0002: real time    0.0002
    --------------------------------------------
      LOOP:  cpu time    0.7923: real time    0.7923

 eigenvalue-minimisations  : 10088
 total energy-change (2. order) : 0.3096980E-01  (-0.2435682E-03)
 number of electron      16.0000057 magnetization 
 augmentation part        8.1988627 magnetization 

 Broyden mixing:
  rms(total) = 0.54221E-01    rms(broyden)= 0.54220E-01
  rms(prec ) = 0.88009E-01
  weight for this iteration     100.00

 eigenvalues of (default mixing * dielectric matrix)
  average eigenvalue GAMMA=   1.5027
  2.6298  1.0488  0.8294

 Free energy of the ion-electron system (eV)
  ---------------------------------------------------
  alpha Z        PSCENC =       146.34308510
  Ewald energy   TEWEN  =     -1258.64197719
  -Hartree energ DENC   =      -163.86972043
  -exchange      EXHF   =         0.00000000
  -V(xc)+E(xc)   XCENC  =         7.45726259
  PAW double counting   =      1477.49422274    -1494.18821641
  entropy T*S    EENTRO =         0.00099123
  eigenvalues    EBANDS =        80.76674299
  atomic energy  EATOM  =      1188.57490811
  Solvation  Ediel_sol  =         0.00000000
  ---------------------------------------------------
  free energy    TOTEN  =       -16.06270126 eV

  energy without entropy =      -16.06369250  energy(sigma->0) =      -16.06303167


--------------------------------------------------------------------------------------------------------




--------------------------------------- Iteration      1(   9)  ---------------------------------------


    POTLOK:  cpu time    0.0029: real time    0.0029
    SETDIJ:  cpu time    0.0020: real time    0.0020
     EDDAV:  cpu time    0.8043: real time    0.8043
       DOS:  cpu time    0.0064: real time    0.0064
    CHARGE:  cpu time    0.0175: real time    0.0175
    MIXING:  cpu time    0.0002: real time    0.0002
    --------------------------------------------
      LOOP:  cpu time    0.8334: real time    0.8334

 eigenvalue-minimisations  : 10752
 total energy-change (2. order) : 0.9550757E-02  (-0.8895555E-04)
 number of electron      16.0000057 magnetization 
 augmentation part        8.2110434 magnetization 

 Broyden mixing:
  rms(total) = 0.59542E-02    rms(broyden)= 0.59533E-02
  rms(prec ) = 0.75525E-02
  weight for this iteration     100.00

 eigenvalues of (default mixing * dielectric matrix)
  average eigenvalue GAMMA=   1.6021
  2.6414  0.8318  0.9966  1.9385

 Free energy of the ion-electron system (eV)
  ---------------------------------------------------
  alpha Z        PSCENC =       146.34308510
  Ewald energy   TEWEN  =     -1258.64197719
  -Hartree energ DENC   =      -161.98452486
  -exchange      EXHF   =         0.00000000
  -V(xc)+E(xc)   XCENC  =         7.38656005
  PAW double counting   =      1567.29472409    -1585.66713159
  entropy T*S    EENTRO =         0.00098460
  eigenvalues    EBANDS =        80.64022119
  atomic energy  EATOM  =      1188.57490811
  Solvation  Ediel_sol  =         0.00000000
  ---------------------------------------------------
  free energy    TOTEN  =       -16.05315051 eV

  energy without entropy =      -16.05413511  energy(sigma->0) =      -16.05347871


--------------------------------------------------------------------------------------------------------




--------------------------------------- Iteration      1(  10)  ---------------------------------------


    POTLOK:  cpu time    0.0030: real time    0.0030
    SETDIJ:  cpu time    0.0021: real time    0.0021
     EDDAV:  cpu time    0.6567: real time    0.6568
       DOS:  cpu time    0.0065: real time    0.0065
    CHARGE:  cpu time    0.0174: real time    0.0174
    MIXING:  cpu time    0.0002: real time    0.0002
    --------------------------------------------
      LOOP:  cpu time    0.6860: real time    0.6860

 eigenvalue-minimisations  :  8512
 total energy-change (2. order) :-0.1249953E-04  (-0.3181420E-05)
 number of electron      16.0000057 magnetization 
 augmentation part        8.2109025 magnetization 

 Broyden mixing:
  rms(total) = 0.21366E-02    rms(broyden)= 0.21359E-02
  rms(prec ) = 0.30915E-02
  weight for this iteration     100.00

 eigenvalues of (default mixing * dielectric matrix)
  average eigenvalue GAMMA=   1.6406
  2.5838  2.5199  0.8312  1.0018  1.2663

 Free energy of the ion-electron system (eV)
  ---------------------------------------------------
  alpha Z        PSCENC =       146.34308510
  Ewald energy   TEWEN  =     -1258.64197719
  -Hartree energ DENC   =      -162.05733393
  -exchange      EXHF   =         0.00000000
  -V(xc)+E(xc)   XCENC  =         7.39059755
  PAW double counting   =      1568.52828748    -1586.82458754
  entropy T*S    EENTRO =         0.00098035
  eigenvalues    EBANDS =        80.63287707
  atomic energy  EATOM  =      1188.57490811
  Solvation  Ediel_sol  =         0.00000000
  ---------------------------------------------------
  free energy    TOTEN  =       -16.05316301 eV

  energy without entropy =      -16.05414336  energy(sigma->0) =      -16.05348979


--------------------------------------------------------------------------------------------------------




--------------------------------------- Iteration      1(  11)  ---------------------------------------


    POTLOK:  cpu time    0.0029: real time    0.0029
    SETDIJ:  cpu time    0.0021: real time    0.0021
     EDDAV:  cpu time    0.6539: real time    0.6539
       DOS:  cpu time    0.0065: real time    0.0065
    CHARGE:  cpu time    0.0175: real time    0.0175
    MIXING:  cpu time    0.0003: real time    0.0002
    --------------------------------------------
      LOOP:  cpu time    0.6832: real time    0.6832

 eigenvalue-minimisations  :  8120
 total energy-change (2. order) : 0.1151427E-04  (-0.1762325E-07)
 number of electron      16.0000057 magnetization 
 augmentation part        8.2106140 magnetization 

 Broyden mixing:
  rms(total) = 0.15984E-03    rms(broyden)= 0.15975E-03
  rms(prec ) = 0.23528E-03
  weight for this iteration     100.00

 eigenvalues of (default mixing * dielectric matrix)
  average eigenvalue GAMMA=   1.5690
  2.5794  2.5794  0.8310  1.0072  1.0072  1.4101

 Free energy of the ion-electron system (eV)
  ---------------------------------------------------
  alpha Z        PSCENC =       146.34308510
  Ewald energy   TEWEN  =     -1258.64197719
  -Hartree energ DENC   =      -162.11706125
  -exchange      EXHF   =         0.00000000
  -V(xc)+E(xc)   XCENC  =         7.39339981
  PAW double counting   =      1567.95715217    -1586.19662234
  entropy T*S    EENTRO =         0.00098051
  eigenvalues    EBANDS =        80.63298358
  atomic energy  EATOM  =      1188.57490811
  Solvation  Ediel_sol  =         0.00000000
  ---------------------------------------------------
  free energy    TOTEN  =       -16.05315149 eV

  energy without entropy =      -16.05413200  energy(sigma->0) =      -16.05347833


--------------------------------------------------------------------------------------------------------




--------------------------------------- Iteration      1(  12)  ---------------------------------------


    POTLOK:  cpu time    0.0029: real time    0.0029
    SETDIJ:  cpu time    0.0021: real time    0.0021
     EDDAV:  cpu time    0.5297: real time    0.5297
       DOS:  cpu time    0.0064: real time    0.0064
    --------------------------------------------
      LOOP:  cpu time    0.5410: real time    0.5410

 eigenvalue-minimisations  :  5968
 total energy-change (2. order) : 0.8208635E-06  (-0.7485287E-08)
 number of electron      16.0000057 magnetization 
 augmentation part        8.2106140 magnetization 

 Free energy of the ion-electron system (eV)
  ---------------------------------------------------
  alpha Z        PSCENC =       146.34308510
  Ewald energy   TEWEN  =     -1258.64197719
  -Hartree energ DENC   =      -162.12272085
  -exchange      EXHF   =         0.00000000
  -V(xc)+E(xc)   XCENC  =         7.39365602
  PAW double counting   =      1567.96380838    -1586.19771648
  entropy T*S    EENTRO =         0.00098081
  eigenvalues    EBANDS =        80.63282544
  atomic energy  EATOM  =      1188.57490811
  Solvation  Ediel_sol  =         0.00000000
  ---------------------------------------------------
  free energy    TOTEN  =       -16.05315067 eV

  energy without entropy =      -16.05413148  energy(sigma->0) =      -16.05347761


--------------------------------------------------------------------------------------------------------




 average (electrostatic) potential at core
  the test charge radii are     1.0103
  (the norm of the test charge is              1.0000)
       1 -41.8289       2 -41.8289
 
 
 
 E-fermi :   7.7692     XC(G=0): -14.2419     alpha+bet :-16.4105

 Fermi energy:         7.7692372400

 k-point     1 :       0.0000    0.0000    0.0000
  band No.  band energies     occupation 
      1      -1.5518      2.00000
      2       2.3705      2.00000
      3       5.4841      2.00000
      4       6.0185      2.00000
      5       6.0186      2.00000
      6       6.3957      2.00000
      7       6.3958      2.00000
      8       7.2647      2.00209
      9       7.3207      2.00676
     10       7.3207      2.00676
     11       8.6070     -0.00000
     12       8.6070     -0.00000
     13      16.1107      0.00000
     14      31.5590      0.00000
     15      32.7236      0.00000
     16      34.8774      0.00000
     17      37.4268      0.00000
     18      37.4269      0.00000
     19      38.2023      0.00000
     20      38.2025      0.00000
     21      40.1651      0.00000
     22      41.0219      0.00000
     23      41.0219      0.00000
     24      42.1243      0.00000
     25      45.1029      0.00000
     26      45.1029      0.00000
     27      46.4543      0.00000
     28      49.1796      0.00000
     29      49.1800      0.00000
     30      51.1365      0.00000
     31      51.1366      0.00000
     32      54.1381      0.00000
     33      62.1401      0.00000
     34      63.4862      0.00000
     35      63.5955      0.00000
     36      63.5965      0.00000
     37      64.9233      0.00000
     38      66.5136      0.00000
     39      66.5148      0.00000
     40      68.7225      0.00000

 k-point     2 :       0.0909   -0.0000    0.0000
  band No.  band energies     occupation 
      1      -1.2060      2.00000
      2       2.6243      2.00000
      3       5.4343      2.00000
      4       6.0075      2.00000
      5       6.2278      2.00000
      6       6.2438      2.00000
      7       6.2789      2.00000
      8       6.5898      2.00000
      9       7.1831      2.00027
     10       7.1943      2.00037
     11       8.6499     -0.00000
     12       9.8893     -0.00000
     13      16.1289      0.00000
     14      30.4321      0.00000
     15      33.0293      0.00000
     16      33.2371      0.00000
     17      34.5589      0.00000
     18      36.8562      0.00000
     19      36.9484      0.00000
     20      39.9763      0.00000
     21      40.5221      0.00000
     22      41.2131      0.00000
     23      41.9528      0.00000
     24      41.9823      0.00000
     25      46.2258      0.00000
     26      46.5242      0.00000
     27      46.5894      0.00000
     28      46.9048      0.00000
     29      50.4673      0.00000
     30      52.6383      0.00000
     31      53.6132      0.00000
     32      55.8548      0.00000
     33      60.9656      0.00000
     34      62.6707      0.00000
     35      63.0500      0.00000
     36      63.3764      0.00000
     37      63.5915      0.00000
     38      67.1591      0.00000
     39      68.6500      0.00000
     40      68.6928      0.00000

 k-point     3 :       0.1818   -0.0000    0.0000
  band No.  band energies     occupation 
      1      -0.2319      2.00000
      2       3.2159      2.00000
      3       5.0275      2.00000
      4       5.1419      2.00000
      5       5.8434      2.00000
      6       6.4768      2.00000
      7       6.8102      2.00000
      8       6.8317      2.00000
      9       6.8966      2.00000
     10       7.1207      2.00005
     11       8.7242     -0.00000
     12      11.8719     -0.00000
     13      16.2107      0.00000
     14      26.7858      0.00000
     15      31.6053      0.00000
     16      31.9754      0.00000
     17      32.5264      0.00000
     18      33.8275      0.00000
     19      37.7176      0.00000
     20      39.1693      0.00000
     21      39.7482      0.00000
     22      39.7658      0.00000
     23      42.5338      0.00000
     24      43.8916      0.00000
     25      46.2497      0.00000
     26      47.1950      0.00000
     27      48.8369      0.00000
     28      51.2082      0.00000
     29      53.5995      0.00000
     30      55.7674      0.00000
     31      56.3661      0.00000
     32      59.0530      0.00000
     33      59.3495      0.00000
     34      60.6713      0.00000
     35      61.0192      0.00000
     36      62.3380      0.00000
     37      64.4530      0.00000
     38      68.0231      0.00000
     39      68.5766      0.00000
     40      69.8929      0.00000

 k-point     4 :       0.2727   -0.0000    0.0000
  band No.  band energies     occupation 
      1       1.1356      2.00000
      2       3.4880      2.00000
      3       4.0813      2.00000
      4       5.0560      2.00000
      5       5.6746      2.00000
      6       6.3867      2.00000
      7       6.5574      2.00000
      8       7.2920      2.00379
      9       7.6381      1.88706
     10       7.8659      0.27824
     11       8.7747     -0.00000
     12      14.0753      0.00000
     13      16.3877      0.00000
     14      22.7762      0.00000
     15      28.8702      0.00000
     16      29.0801      0.00000
     17      30.4955      0.00000
     18      33.4712      0.00000
     19      36.0568      0.00000
     20      39.1234      0.00000
     21      39.8305      0.00000
     22      39.9480      0.00000
     23      40.1868      0.00000
     24      44.2506      0.00000
     25      49.7394      0.00000
     26      51.4657      0.00000
     27      52.3683      0.00000
     28      54.1212      0.00000
     29      55.4838      0.00000
     30      56.2843      0.00000
     31      57.9277      0.00000
     32      59.4578      0.00000
     33      60.3851      0.00000
     34      61.1472      0.00000
     35      61.7067      0.00000
     36      63.5868      0.00000
     37      64.7079      0.00000
     38      68.4761      0.00000
     39      68.5761      0.00000
     40      69.5155      0.00000

 k-point     5 :       0.3636    0.0000    0.0000
  band No.  band energies     occupation 
      1       2.3271      2.00000
      2       3.2058      2.00000
      3       3.4447      2.00000
      4       5.2918      2.00000
      5       5.9953      2.00000
      6       6.0462      2.00000
      7       6.2786      2.00000
      8       8.4725     -0.00001
      9       8.6022     -0.00000
     10       8.6217     -0.00000
     11       8.7939     -0.00000
     12      16.0913      0.00000
     13      16.4061      0.00000
     14      19.9824      0.00000
     15      25.5933      0.00000
     16      27.1394      0.00000
     17      27.7987      0.00000
     18      32.4969      0.00000
     19      34.8529      0.00000
     20      38.0957      0.00000
     21      38.7526      0.00000
     22      40.9095      0.00000
     23      41.9641      0.00000
     24      44.6325      0.00000
     25      52.4794      0.00000
     26      53.2469      0.00000
     27      53.3826      0.00000
     28      56.6036      0.00000
     29      57.0016      0.00000
     30      57.6272      0.00000
     31      60.0130      0.00000
     32      60.5190      0.00000
     33      61.2200      0.00000
     34      61.5173      0.00000
     35      63.2143      0.00000
     36      64.8481      0.00000
     37      67.9527      0.00000
     38      68.3884      0.00000
     39      68.4963      0.00000
     40      68.7837      0.00000

 k-point     6 :       0.4545   -0.0000    0.0000
  band No.  band energies     occupation 
      1       2.7442      2.00000
      2       2.9950      2.00000
      3       3.1252      2.00000
      4       5.7676      2.00000
      5       5.8542      2.00000
      6       6.1236      2.00000
      7       6.3087      2.00000
      8       8.7965     -0.00000
      9       8.9901     -0.00000
     10       9.1332     -0.00000
     11      10.3700     -0.00000
     12      13.9994      0.00000
     13      18.5919      0.00000
     14      20.0812      0.00000
     15      22.9353      0.00000
     16      25.1568      0.00000
     17      26.0491      0.00000
     18      31.8304      0.00000
     19      34.4731      0.00000
     20      36.9250      0.00000
     21      38.5836      0.00000
     22      41.7498      0.00000
     23      44.1456      0.00000
     24      44.8123      0.00000
     25      49.1184      0.00000
     26      54.1010      0.00000
     27      55.1388      0.00000
     28      58.7063      0.00000
     29      59.4344      0.00000
     30      59.7480      0.00000
     31      61.1866      0.00000
     32      61.8072      0.00000
     33      61.9467      0.00000
     34      64.1929      0.00000
     35      64.3226      0.00000
     36      66.0425      0.00000
     37      67.1404      0.00000
     38      67.3310      0.00000
     39      68.7379      0.00000
     40      69.1163      0.00000

 k-point     7 :       0.0909    0.0909    0.0000
  band No.  band energies     occupation 
      1      -0.5431      2.00000
      2       3.0668      2.00000
      3       5.1942      2.00000
      4       5.3491      2.00000
      5       6.0516      2.00000
      6       6.1525      2.00000
      7       6.6532      2.00000
      8       6.7476      2.00000
      9       7.0035      2.00000
     10       7.1788      2.00024
     11       8.6751     -0.00000
     12      11.3224     -0.00000
     13      16.1834      0.00000
     14      28.4646      0.00000
     15      29.9365      0.00000
     16      33.3828      0.00000
     17      34.0891      0.00000
     18      35.5096      0.00000
     19      35.8871      0.00000
     20      38.0820      0.00000
     21      39.4856      0.00000
     22      43.3018      0.00000
     23      43.4675      0.00000
     24      44.4036      0.00000
     25      45.1810      0.00000
     26      45.3998      0.00000
     27      45.6043      0.00000
     28      51.6025      0.00000
     29      54.0212      0.00000
     30      54.5022      0.00000
     31      54.5721      0.00000
     32      58.3109      0.00000
     33      59.6975      0.00000
     34      61.4295      0.00000
     35      61.8679      0.00000
     36      62.4008      0.00000
     37      63.6119      0.00000
     38      68.2114      0.00000
     39      68.5120      0.00000
     40      70.2077      0.00000

 k-point     8 :       0.1818    0.0909    0.0000
  band No.  band energies     occupation 
      1       0.6557      2.00000
      2       3.6221      2.00000
      3       4.4266      2.00000
      4       4.8284      2.00000
      5       5.7650      2.00000
      6       6.2954      2.00000
      7       6.6262      2.00000
      8       6.9121      2.00000
      9       7.4155      2.03134
     10       7.7771      0.93325
     11       8.6921     -0.00000
     12      13.3041      0.00000
     13      16.3625      0.00000
     14      24.8143      0.00000
     15      27.4769      0.00000
     16      30.6472      0.00000
     17      32.9586      0.00000
     18      33.3603      0.00000
     19      36.6288      0.00000
     20      37.5604      0.00000
     21      38.2446      0.00000
     22      42.9282      0.00000
     23      43.0378      0.00000
     24      43.9785      0.00000
     25      47.0722      0.00000
     26      47.9688      0.00000
     27      49.8357      0.00000
     28      54.4883      0.00000
     29      56.3040      0.00000
     30      57.1758      0.00000
     31      57.2568      0.00000
     32      59.4300      0.00000
     33      59.9137      0.00000
     34      60.7245      0.00000
     35      61.3782      0.00000
     36      61.7952      0.00000
     37      64.1693      0.00000
     38      68.2897      0.00000
     39      68.7329      0.00000
     40      69.9340      0.00000

 k-point     9 :       0.2727    0.0909    0.0000
  band No.  band energies     occupation 
      1       2.0310      2.00000
      2       3.5497      2.00000
      3       3.7239      2.00000
      4       4.9056      2.00000
      5       5.8402      2.00000
      6       5.9454      2.00000
      7       6.5149      2.00000
      8       7.4372      2.04063
      9       8.2580     -0.00297
     10       8.6985     -0.00000
     11       8.7892     -0.00000
     12      15.5406      0.00000
     13      16.6108      0.00000
     14      21.1355      0.00000
     15      25.7013      0.00000
     16      27.3082      0.00000
     17      30.1410      0.00000
     18      31.7295      0.00000
     19      36.0035      0.00000
     20      37.1344      0.00000
     21      38.8953      0.00000
     22      42.6483      0.00000
     23      42.6664      0.00000
     24      45.3036      0.00000
     25      49.1572      0.00000
     26      51.8435      0.00000
     27      53.6006      0.00000
     28      54.5279      0.00000
     29      55.2691      0.00000
     30      58.1575      0.00000
     31      59.2639      0.00000
     32      60.6364      0.00000
     33      61.3211      0.00000
     34      61.4461      0.00000
     35      62.7393      0.00000
     36      64.3233      0.00000
     37      66.7446      0.00000
     38      67.8014      0.00000
     39      68.2043      0.00000
     40      70.0825      0.00000

 k-point    10 :       0.3636    0.0909    0.0000
  band No.  band energies     occupation 
      1       2.8552      2.00000
      2       3.2349      2.00000
      3       3.2949      2.00000
      4       5.3618      2.00000
      5       5.7585      2.00000
      6       6.1504      2.00000
      7       6.2137      2.00000
      8       8.3955     -0.00009
      9       8.6927     -0.00000
     10       8.8518     -0.00000
     11      10.0809     -0.00000
     12      15.4891      0.00000
     13      17.8722      0.00000
     14      19.8520      0.00000
     15      24.3001      0.00000
     16      24.3201      0.00000
     17      26.9230      0.00000
     18      30.7840      0.00000
     19      35.0216      0.00000
     20      36.5700      0.00000
     21      39.7844      0.00000
     22      43.0337      0.00000
     23      44.0217      0.00000
     24      45.1574      0.00000
     25      51.0598      0.00000
     26      51.9701      0.00000
     27      54.2180      0.00000
     28      55.7461      0.00000
     29      57.4655      0.00000
     30      59.3768      0.00000
     31      59.8324      0.00000
     32      61.3085      0.00000
     33      62.0174      0.00000
     34      64.1865      0.00000
     35      65.1224      0.00000
     36      66.0249      0.00000
     37      66.0272      0.00000
     38      68.3093      0.00000
     39      69.2571      0.00000
     40      69.6908      0.00000

 k-point    11 :       0.4545    0.0909    0.0000
  band No.  band energies     occupation 
      1       2.9499      2.00000
      2       3.1518      2.00000
      3       3.1743      2.00000
      4       5.7247      2.00000
      5       5.7461      2.00000
      6       5.9831      2.00000
      7       6.3475      2.00000
      8       8.6882     -0.00000
      9       8.9365     -0.00000
     10       8.9546     -0.00000
     11      11.3648     -0.00000
     12      13.6759      0.00000
     13      19.4483      0.00000
     14      20.5243      0.00000
     15      22.5069      0.00000
     16      23.5505      0.00000
     17      25.3999      0.00000
     18      30.4498      0.00000
     19      34.6111      0.00000
[...]
     17      27.8078      0.00000
     18      29.1017      0.00000
     19      34.2927      0.00000
     20      34.9858      0.00000
     21      38.7208      0.00000
     22      39.4297      0.00000
     23      44.2845      0.00000
     24      45.4477      0.00000
     25      51.3464      0.00000
     26      53.1401      0.00000
     27      55.0988      0.00000
     28      55.8812      0.00000
     29      58.9202      0.00000
     30      60.3755      0.00000
     31      61.2250      0.00000
     32      61.5148      0.00000
     33      63.9858      0.00000
     34      64.2378      0.00000
     35      64.7255      0.00000
     36      65.1923      0.00000
     37      66.5678      0.00000
     38      67.7325      0.00000
     39      69.4298      0.00000
     40      69.9552      0.00000

 k-point    91 :       0.4545    0.0909    0.4545
  band No.  band energies     occupation 
      1       2.6085      2.00000
      2       2.7728      2.00000
      3       4.1122      2.00000
      4       4.2363      2.00000
      5       6.5697      2.00000
      6       7.0264      2.00000
      7       7.7363      1.27446
      8       8.0626     -0.05820
      9       8.8216     -0.00000
     10       8.8217     -0.00000
     11      11.2513     -0.00000
     12      11.7889     -0.00000
     13      18.1088      0.00000
     14      18.1464      0.00000
     15      26.4107      0.00000
     16      27.2050      0.00000
     17      28.5810      0.00000
     18      29.1157      0.00000
     19      34.0691      0.00000
     20      34.2383      0.00000
     21      38.0555      0.00000
     22      38.2986      0.00000
     23      44.4205      0.00000
     24      45.6115      0.00000
     25      51.5623      0.00000
     26      53.4029      0.00000
     27      58.1492      0.00000
     28      58.9229      0.00000
     29      59.1641      0.00000
     30      59.7073      0.00000
     31      60.3073      0.00000
     32      61.0663      0.00000
     33      64.7100      0.00000
     34      64.9930      0.00000
     35      65.6733      0.00000
     36      66.4897      0.00000
     37      67.4145      0.00000
     38      67.4506      0.00000
     39      70.1621      0.00000
     40      70.3334      0.00000

 k-point    92 :       0.1818    0.1818    0.4545
  band No.  band energies     occupation 
      1       2.7507      2.00000
      2       3.0241      2.00000
      3       4.7230      2.00000
      4       4.7860      2.00000
      5       5.2805      2.00000
      6       5.3464      2.00000
      7       6.9419      2.00000
      8       7.2135      2.00061
      9       8.5963     -0.00000
     10       8.7135     -0.00000
     11       9.2566     -0.00000
     12       9.8618     -0.00000
     13      24.3439      0.00000
     14      24.6762      0.00000
     15      24.9812      0.00000
     16      26.1160      0.00000
     17      26.6443      0.00000
     18      28.0957      0.00000
     19      38.3498      0.00000
     20      39.4417      0.00000
     21      40.0833      0.00000
     22      41.2205      0.00000
     23      43.1632      0.00000
     24      43.2746      0.00000
     25      49.6463      0.00000
     26      50.1189      0.00000
     27      54.0342      0.00000
     28      54.4847      0.00000
     29      56.5133      0.00000
     30      57.9156      0.00000
     31      59.1614      0.00000
     32      59.6462      0.00000
     33      61.1437      0.00000
     34      61.1519      0.00000
     35      63.2475      0.00000
     36      63.3185      0.00000
     37      66.3749      0.00000
     38      67.9915      0.00000
     39      68.5288      0.00000
     40      68.8351      0.00000

 k-point    93 :       0.2727    0.1818    0.4545
  band No.  band energies     occupation 
      1       3.0760      2.00000
      2       3.1909      2.00000
      3       4.5180      2.00000
      4       4.7459      2.00000
      5       5.5897      2.00000
      6       5.7686      2.00000
      7       6.8827      2.00000
      8       7.1449      2.00009
      9       8.7089     -0.00000
     10       8.9747     -0.00000
     11      10.8254     -0.00000
     12      11.3989     -0.00000
     13      21.1181      0.00000
     14      21.7243      0.00000
     15      23.9513      0.00000
     16      24.7271      0.00000
     17      27.3402      0.00000
     18      29.1765      0.00000
     19      36.2536      0.00000
     20      37.7963      0.00000
     21      39.1050      0.00000
     22      40.5800      0.00000
     23      43.6270      0.00000
     24      44.1474      0.00000
     25      50.9680      0.00000
     26      51.4949      0.00000
     27      55.2288      0.00000
     28      56.9490      0.00000
     29      58.8732      0.00000
     30      60.5716      0.00000
     31      61.1513      0.00000
     32      61.3769      0.00000
     33      62.4215      0.00000
     34      62.5626      0.00000
     35      63.4497      0.00000
     36      63.7949      0.00000
     37      66.6337      0.00000
     38      68.3818      0.00000
     39      68.9034      0.00000
     40      69.3716      0.00000

 k-point    94 :       0.3636    0.1818    0.4545
  band No.  band energies     occupation 
      1       3.0910      2.00000
      2       3.2599      2.00000
      3       4.3899      2.00000
      4       4.6140      2.00000
      5       5.7092      2.00000
      6       6.0771      2.00000
      7       7.2516      2.00155
      8       7.3867      2.02099
      9       8.6694     -0.00000
     10       8.8535     -0.00000
     11      12.5916     -0.00000
     12      13.0554     -0.00000
     13      18.5159      0.00000
     14      18.9047      0.00000
     15      23.3045      0.00000
     16      24.0901      0.00000
     17      28.9496      0.00000
     18      30.1286      0.00000
     19      34.7527      0.00000
     20      35.8509      0.00000
     21      37.9972      0.00000
     22      39.5573      0.00000
     23      44.4877      0.00000
     24      44.8831      0.00000
     25      54.1956      0.00000
     26      54.7657      0.00000
     27      55.6022      0.00000
     28      57.2784      0.00000
     29      58.7593      0.00000
     30      59.2774      0.00000
     31      60.4920      0.00000
     32      61.5899      0.00000
     33      63.5790      0.00000
     34      63.7096      0.00000
     35      65.4962      0.00000
     36      66.0313      0.00000
     37      67.4474      0.00000
     38      67.6870      0.00000
     39      68.4974      0.00000
     40      69.4953      0.00000

 k-point    95 :       0.2727    0.2727    0.4545
  band No.  band energies     occupation 
      1       3.5140      2.00000
      2       3.5770      2.00000
      3       4.6022      2.00000
      4       4.8424      2.00000
      5       5.2615      2.00000
      6       5.5000      2.00000
      7       6.8114      2.00000
      8       7.0345      2.00000
      9       8.6840     -0.00000
     10       8.8836     -0.00000
     11      13.0580     -0.00000
     12      13.6136      0.00000
     13      19.5052      0.00000
     14      19.9674      0.00000
     15      21.5164      0.00000
     16      21.9437      0.00000
     17      29.1396      0.00000
     18      30.8466      0.00000
     19      34.7710      0.00000
     20      36.2708      0.00000
     21      37.8170      0.00000
     22      39.0211      0.00000
     23      46.4759      0.00000
     24      46.8988      0.00000
     25      51.2152      0.00000
     26      51.3163      0.00000
     27      58.1399      0.00000
     28      58.6356      0.00000
     29      58.9094      0.00000
     30      60.0770      0.00000
     31      61.6581      0.00000
     32      61.8161      0.00000
     33      61.8485      0.00000
     34      61.9611      0.00000
     35      65.3608      0.00000
     36      65.4997      0.00000
     37      66.8503      0.00000
     38      67.2124      0.00000
     39      67.8295      0.00000
     40      68.7593      0.00000

 k-point    96 :       0.3636    0.2727    0.4545
  band No.  band energies     occupation 
      1       3.7286      2.00000
      2       3.8735      2.00000
      3       4.5046      2.00000
      4       4.5876      2.00000
      5       5.2996      2.00000
      6       5.4277      2.00000
      7       6.8874      2.00000
      8       7.0566      2.00001
      9       8.6528     -0.00000
     10       8.7264     -0.00000
     11      14.9319      0.00000
     12      15.0746      0.00000
     13      17.8109      0.00000
     14      18.1848      0.00000
     15      20.8674      0.00000
     16      21.3171      0.00000
     17      30.8119      0.00000
     18      31.7006      0.00000
     19      33.9487      0.00000
     20      34.1903      0.00000
     21      37.5892      0.00000
     22      38.4621      0.00000
     23      47.7702      0.00000
     24      48.4294      0.00000
     25      52.4900      0.00000
     26      52.9123      0.00000
     27      55.6641      0.00000
     28      56.0044      0.00000
     29      59.5119      0.00000
     30      60.7891      0.00000
     31      61.6662      0.00000
     32      62.0656      0.00000
     33      63.1299      0.00000
     34      63.1747      0.00000
     35      63.5093      0.00000
     36      65.0285      0.00000
     37      66.7607      0.00000
     38      68.5402      0.00000
     39      69.6851      0.00000
     40      69.9500      0.00000


--------------------------------------------------------------------------------------------------------


 soft charge-density along one line, spin component           1
         0         1         2         3         4         5         6         7         8         9
x     7.7894    0.0000    0.0891   -0.1543   -0.0566   -0.0980    0.0200   -0.0000    0.0014   -0.0024
x     0.0000    0.0000
y     7.7894    0.0000    0.0891    0.1543   -0.0566    0.0980    0.0200    0.0000    0.0014    0.0024
y     0.0000    0.0000
z     7.7894    0.0000    0.0000   -0.0000    0.3580    0.0000    0.0000    0.0000   -0.1512    0.0000
z     0.0000   -0.0000    0.0219   -0.0000    0.0000    0.0000    0.0000    0.0000
 total charge-density along one line
x    16.0000    0.0000    1.4554   -2.5208    0.2851    0.4939    0.0199    0.0000    0.0014   -0.0024
x    -0.0000   -0.0001    0.0000   -0.0000   -0.0000    0.0000    0.0000    0.0000   -0.0000   -0.0000
x    -0.0000    0.0000
y    16.0000    0.0000    1.4554    2.5208    0.2851   -0.4939    0.0199   -0.0000    0.0014    0.0024
y    -0.0000    0.0001    0.0000    0.0000   -0.0000   -0.0000    0.0000   -0.0000   -0.0000    0.0000
y    -0.0000   -0.0000
z    16.0000    0.0000   -0.0000    0.0000    5.8064    0.0000    0.0000    0.0000    1.1883    0.0000
z     0.0000    0.0000    0.0212    0.0000    0.0000    0.0000    0.0021    0.0000    0.0000   -0.0000
z    -0.0004   -0.0000    0.0000   -0.0000    0.0002    0.0000    0.0000   -0.0000   -0.0001    0.0000
z    -0.0000    0.0000    0.0001    0.0000
 
 pseudopotential strength for first ion, spin component:           1
 -3.924   0.000  -0.000  -0.000  -0.000  -4.502   0.000  -0.000
  0.000  -3.917   0.000  -0.000  -0.000   0.000  -4.495   0.000
 -0.000   0.000  -3.926   0.000  -0.000  -0.000   0.000  -4.504
 -0.000  -0.000   0.000  -3.917   0.000  -0.000  -0.000   0.000
 -0.000  -0.000  -0.000   0.000  -3.924  -0.000  -0.000  -0.000
 -4.502   0.000  -0.000  -0.000  -0.000  -5.038   0.000  -0.000
  0.000  -4.495   0.000  -0.000  -0.000   0.000  -5.030   0.000
 -0.000   0.000  -4.504   0.000  -0.000  -0.000   0.000  -5.039
 -0.000  -0.000   0.000  -4.495   0.000  -0.000  -0.000   0.000
 -0.000  -0.000  -0.000   0.000  -4.502  -0.000  -0.000  -0.000
  0.000  -0.000   0.001  -0.000  -0.000   0.000  -0.000   0.001
  0.000  -0.000   0.002  -0.000  -0.000   0.000  -0.000   0.002
 -0.000   0.000   0.000   0.000  -0.001  -0.000   0.000   0.000
  0.000  -0.000   0.000  -0.000  -0.000   0.000  -0.000   0.000
 -0.001   0.000   0.000   0.000  -0.000  -0.001   0.000   0.000
 -0.000   0.000   0.000   0.000  -0.001  -0.000   0.000   0.000
  0.000  -0.000   0.000  -0.000  -0.000   0.000  -0.000   0.000
 -0.001   0.000   0.000   0.000  -0.000  -0.001   0.000   0.000
 total augmentation occupancy for first ion, spin component:           1
  1.743   0.000   0.000   0.000   0.000  -1.215   0.000  -0.000   0.000   0.000  -0.000   0.000   0.000  -0.000   0.038  -0.000
  0.000   2.125  -0.000  -0.000   0.000   0.000  -1.400  -0.000   0.000   0.000  -0.000   0.000   0.000  -0.000  -0.000   0.000
  0.000   0.000   1.422  -0.000  -0.000  -0.000  -0.000  -0.964  -0.000   0.000   0.014  -0.008  -0.000   0.000   0.000   0.000
  0.000  -0.000  -0.000   2.125   0.000   0.000   0.000   0.000  -1.400   0.000   0.000   0.000   0.000   0.000  -0.000   0.000
  0.000   0.000  -0.000  -0.000   1.743  -0.000   0.000   0.000   0.000  -1.215  -0.000   0.000   0.038  -0.000  -0.000  -0.002
 -1.215   0.000  -0.000   0.000  -0.000   2.059   0.000   0.000  -0.000  -0.000  -0.000   0.000  -0.000   0.000  -0.055   0.000
  0.000  -1.400   0.000   0.000   0.000  -0.000   2.022   0.000  -0.000   0.000   0.000   0.000   0.000   0.000  -0.000   0.000
 -0.000  -0.000  -0.964   0.000   0.000   0.000   0.000   1.866   0.000  -0.000  -0.071   0.006   0.000   0.000  -0.000  -0.000
  0.000   0.000   0.000  -1.400  -0.000   0.000  -0.000   0.000   2.022   0.000  -0.000   0.000   0.000   0.000  -0.000   0.000
  0.000   0.000   0.000  -0.000  -1.215  -0.000   0.000  -0.000  -0.000   2.059   0.000  -0.000  -0.055  -0.000   0.000   0.003
 -0.000  -0.000   0.014   0.000  -0.000  -0.000   0.000  -0.071  -0.000   0.000   2.903  -0.343   0.000   0.000   0.000   0.000
  0.000   0.000  -0.008   0.000   0.000   0.000   0.000   0.006   0.000  -0.000  -0.343   0.046   0.000   0.000   0.000   0.000
  0.000  -0.000  -0.000   0.000   0.038  -0.000   0.000   0.000   0.000  -0.055  -0.000   0.000   0.392   0.000  -0.000  -0.031
  0.000   0.000   0.000  -0.000   0.000  -0.000   0.000   0.000   0.000   0.000   0.000   0.000   0.000   0.377   0.000   0.000
  0.038   0.000   0.000   0.000  -0.000  -0.055  -0.000  -0.000   0.000   0.000   0.000   0.000  -0.000  -0.000   0.392   0.000
 -0.000  -0.000   0.000   0.000  -0.002   0.000   0.000  -0.000   0.000   0.003  -0.000   0.000  -0.031   0.000   0.000   0.003
  0.000  -0.000   0.000   0.000  -0.000  -0.000   0.000   0.000   0.000  -0.000   0.000   0.000   0.000  -0.033   0.000  -0.000
 -0.002   0.000  -0.000   0.000   0.000   0.003   0.000   0.000   0.000  -0.000   0.000   0.000   0.000   0.000  -0.031  -0.000


------------------------ aborting loop because EDIFF is reached ----------------------------------------


    CHARGE:  cpu time    0.0177: real time    0.0177
    FORLOC:  cpu time    0.0002: real time    0.0002
    FORNL :  cpu time    0.0914: real time    0.0915
    STRESS:  cpu time    0.1378: real time    0.1378
    FORCOR:  cpu time    0.0030: real time    0.0030
    FORHAR:  cpu time    0.0006: real time    0.0006
    MIXING:  cpu time    0.0002: real time    0.0002

  FORCE on cell =-STRESS in cart. coord.  units (eV):
  Direction    XX          YY          ZZ          XY          YZ          ZX
  --------------------------------------------------------------------------------------
  Alpha Z   146.34309   146.34309   146.34309
  Ewald    -409.25371  -409.25371  -440.13511     0.00000     0.00000     0.00000
  Hartree    57.73446    57.73446    46.65202    -0.00000    -0.00000    -0.00000
  E(xc)     -79.38372   -79.38374   -79.18366     0.00019     0.00000    -0.00000
  Local     112.25933   112.25954   152.27864    -0.00080    -0.00000     0.00000
  n-local   -51.03966   -50.53589   -52.71250    -4.25923     1.50300     1.03817
  augment    75.40466    75.40423    75.61368     0.00098     0.00000    -0.00000
  Kinetic   155.64124   149.44800   150.34445     1.13638    -1.03515     0.10601
  Fock        0.00000     0.00000     0.00000     0.00000     0.00000     0.00000
  -------------------------------------------------------------------------------------
  Total       4.86082     4.86082    -0.79939    -0.00000     0.00000     0.00000
  in kB     412.25688   412.25688   -67.79830    -0.00000     0.00000     0.00000
  external pressure =      252.24 kB  Pullay stress =        0.00 kB


 VOLUME and BASIS-vectors are now :
 -----------------------------------------------------------------------------
  energy-cutoff  :      280.00
  volume of cell :       18.89
      direct lattice vectors                 reciprocal lattice vectors
     2.330000000  0.000000000  0.000000000     0.429184549  0.247789815  0.000000000
    -1.165000000  2.017839191  0.000000000     0.000000000  0.495579630  0.000000000
     0.000000000  0.000000000  4.018000000     0.000000000  0.000000000  0.248880040

  length of vectors
     2.330000000  2.330000000  4.018000000     0.495579630  0.495579630  0.248880040


 FORCES acting on ions
    electron-ion (+dipol)            ewald-force                    non-local-force                 convergence-correction
 -----------------------------------------------------------------------------------------------
   -.669E-08 -.870E-06 0.135E-13   0.656E-12 -.386E-12 -.238E-13   -.249E-17 0.146E-16 -.172E-19   -.996E-08 0.569E-08 -.412E-13
   -.748E-05 0.804E-05 0.673E-13   -.662E-12 0.381E-12 0.238E-13   0.800E-17 -.133E-16 0.165E-19   0.102E-07 -.581E-08 -.259E-13
 -----------------------------------------------------------------------------------------------
   -.749E-05 0.717E-05 0.809E-13   -.653E-14 -.490E-14 -.254E-16   0.552E-17 0.125E-17 -.652E-21   0.211E-09 -.123E-09 -.671E-13
 
 
 POSITION                                       TOTAL-FORCE (eV/Angst)
 -----------------------------------------------------------------------------------
      0.00000      0.00000      0.00000        -0.000000      0.000000     -0.000000
      0.00000      1.34523      2.00900         0.000000     -0.000000      0.000000
 -----------------------------------------------------------------------------------
    total drift:                               -0.000007      0.000007      0.000000


--------------------------------------------------------------------------------------------------------



  FREE ENERGIE OF THE ION-ELECTRON SYSTEM (eV)
  ---------------------------------------------------
  free  energy   TOTEN  =       -16.05315067 eV

  energy  without entropy=      -16.05413148  energy(sigma->0) =      -16.05347761
 


--------------------------------------------------------------------------------------------------------


    POTLOK:  cpu time    0.0050: real time    0.0050


--------------------------------------------------------------------------------------------------------


 writing wavefunctions
     LOOP+:  cpu time    9.0435: real time    9.0639
    4ORBIT:  cpu time    0.0000: real time    0.0000

 total amount of memory used by VASP MPI-rank0    48699. kBytes
=======================================================================

   base      :      30000. kBytes
   nonl-proj :       2895. kBytes
   grid      :        721. kBytes
   one-center:         31. kBytes
   wavefun   :      15052. kBytes
 
  
  
 General timing and accounting informations for this job:
 ========================================================
  
                  Total CPU time used (sec):        9.219
                            User time (sec):        9.175
                          System time (sec):        0.044
                         Elapsed time (sec):        9.228
  
                   Maximum memory used (kb):       52936.
                   Average memory used (kb):          N/A
  
                          Minor page faults:         6940
                          Major page faults:            0
                 Voluntary context switches:           26
