unknown system                          
   1.00000000000000     
     3.509554    0.000000    0.000000
     0.000000    3.509554    0.000000
     0.000000    0.000000    3.509554
   Pd   Ir   Pt   Cu
     1     1     1     1
Direct
  0.000000  0.000000  0.000000
  0.500000  0.500000  0.000000
  0.500000  0.000000  0.500000
  0.000000  0.500000  0.500000
 
   28   28   28
  266.36      253.38      220.38      179.66      139.88      103.07      69.796      43.400      27.236      19.638    
  15.558      13.180      11.973      11.659      11.674      11.659      11.973      13.180      15.558      19.638    
  27.236      43.400      69.796      103.07      139.88      179.66      220.38      253.38      253.54      241.26    
  209.99      171.25      133.27      98.144      66.587      41.769      26.680      19.523      15.614      13.345    
  12.196      11.895      11.908      11.895      12.196      13.345      15.614      19.523      26.680      41.769    
  66.587      98.144      133.27      171.25      209.99      241.26      220.35      209.84      182.92      149.23    
  115.89      85.222      58.247      37.607      25.320      19.286      15.874      13.936      12.975      12.728    
  12.740      12.728      12.975      13.936      15.874      19.286      25.320      37.607      58.247      85.222    
  115.89      149.23      182.92      209.84      178.17      169.79      148.15      120.69      93.357      68.634    
  47.786      32.604      23.833      19.197      16.576      15.192      14.579      14.474      14.510      14.474    
  14.579      15.192      16.576      19.197      23.833      32.604      47.786      68.634      93.357      120.69    
  148.15      169.79      136.16      129.79      113.22      92.005      70.982      52.640      38.159      28.347    
  22.790      19.611      18.034      17.430      17.357      17.528      17.639      17.528      17.357      17.430    
  18.034      19.611      22.790      28.347      38.159      52.640      70.982      92.005      113.22      129.79    
  98.033      93.501      81.675      66.558      51.883      39.766      31.013      25.588      22.451      20.879    
  20.565      21.043      21.891      22.681      23.006      22.681      21.891      21.043      20.565      20.879    
  22.451      25.588      31.013      39.766      51.883      66.558      81.675      93.501      65.354      62.530    
  55.197      45.970      37.357      30.781      26.565      24.173      23.066      23.303      24.751      26.997    
  29.436      31.341      32.065      31.341      29.436      26.997      24.751      23.303      23.066      24.173    
  26.565      30.781      37.357      45.970      55.197      62.530      40.630      39.248      35.714      31.434    
  27.736      25.292      24.044      23.830      24.888      27.375      31.111      35.596      40.001      43.279    
  44.497      43.279      40.001      35.596      31.111      27.375      24.888      23.830      24.044      25.292    
  27.736      31.434      35.714      39.248      25.688      25.241      24.148      22.968      22.184      22.034    
  22.780      24.715      28.158      33.062      39.089      45.641      51.777      56.248      57.898      56.248    
  51.777      45.641      39.089      33.062      28.158      24.715      22.780      22.034      22.184      22.968    
  24.148      25.241      18.422      18.351      18.230      18.296      18.866      20.261      22.772      26.900    
  32.721      39.803      47.578      55.482      62.689      67.925      69.863      67.925      62.689      55.482    
  47.578      39.803      32.721      26.900      22.772      20.261      18.866      18.296      18.230      18.351    
  14.380      14.454      14.766      15.544      17.082      19.675      23.857      30.160      38.203      47.037    
  55.915      64.519      72.357      78.170      80.358      78.170      72.357      64.519      55.915      47.037    
  38.203      30.160      23.857      19.675      17.082      15.544      14.766      14.454      11.985      12.151    
  12.746      14.012      16.257      19.840      25.643      34.037      44.101      54.373      64.073      73.330    
  82.040      88.778      91.377      88.778      82.040      73.330      64.073      54.373      44.101      34.037    
  25.643      19.840      16.257      14.012      12.746      12.151      10.755      10.967      11.714      13.273    
  15.985      20.380      27.609      37.833      49.637      61.175      71.780      82.092      92.282      100.50    
  103.73      100.50      92.282      82.092      71.780      61.175      49.637      37.833      27.609      20.380    
  15.985      13.273      11.714      10.967      10.413      10.631      11.412      13.078      16.014      20.938    
  29.153      40.660      53.704      66.221      77.705      89.191      100.97      110.69      114.56      110.69    
  100.97      89.191      77.705      66.221      53.704      40.660      29.153      20.938      16.014      13.078    
  11.412      10.631      10.415      10.627      11.402      13.079      16.072      21.175      29.742      41.713    
  55.215      68.113      79.978      91.992      104.47      114.84      118.98      114.84      104.47      91.992    
  79.978      68.113      55.215      41.713      29.742      21.175      16.072      13.079      11.402      10.627    
  10.413      10.631      11.412      13.078      16.014      20.938      29.153      40.660      53.704      66.221    
  77.705      89.191      100.97      110.69      114.56      110.69      100.97      89.191      77.705      66.221    
  53.704      40.660      29.153      20.938      16.014      13.078      11.412      10.631      10.755      10.967    
  11.714      13.273      15.985      20.380      27.609      37.833      49.637      61.175      71.780      82.092    
  92.282      100.50      103.73      100.50      92.282      82.092      71.780      61.175      49.637      37.833    
  27.609      20.380      15.985      13.273      11.714      10.967      11.985      12.151      12.746      14.012    
  16.257      19.840      25.643      34.037      44.101      54.373      64.073      73.330      82.040      88.778    
  91.377      88.778      82.040      73.330      64.073      54.373      44.101      34.037      25.643      19.840    
  16.257      14.012      12.746      12.151      14.380      14.454      14.766      15.544      17.082      19.675    
  23.857      30.160      38.203      47.037      55.915      64.519      72.357      78.170      80.358      78.170    
  72.357      64.519      55.915      47.037      38.203      30.160      23.857      19.675      17.082      15.544    
  14.766      14.454      18.422      18.351      18.230      18.296      18.866      20.261      22.772      26.900    
  32.721      39.803      47.578      55.482      62.689      67.925      69.863      67.925      62.689      55.482    
  47.578      39.803      32.721      26.900      22.772      20.261      18.866      18.296      18.230      18.351    
  25.688      25.241      24.148      22.968      22.184      22.034      22.780      24.715      28.158      33.062    
  39.089      45.641      51.777      56.248      57.898      56.248      51.777      45.641      39.089      33.062    
  28.158      24.715      22.780      22.034      22.184      22.968      24.148      25.241      40.630      39.248    
  35.714      31.434      27.736      25.292      24.044      23.830      24.888      27.375      31.111      35.596    
  40.001      43.279      44.497      43.279      40.001      35.596      31.111      27.375      24.888      23.830    
  24.044      25.292      27.736      31.434      35.714      39.248      65.354      62.530      55.197      45.970    
  37.357      30.781      26.565      24.173      23.066      23.303      24.751      26.997      29.436      31.341    
  32.065      31.341      29.436      26.997      24.751      23.303      23.066      24.173      26.565      30.781    
  37.357      45.970      55.197      62.530      98.033      93.501      81.675      66.558      51.883      39.766    
  31.013      25.588      22.451      20.879      20.565      21.043      21.891      22.681      23.006      22.681    
  21.891      21.043      20.565      20.879      22.451      25.588      31.013      39.766      51.883      66.558    
  81.675      93.501      136.16      129.79      113.22      92.005      70.982      52.640      38.159      28.347    
  22.790      19.611      18.034      17.430      17.357      17.528      17.639      17.528      17.357      17.430    
  18.034      19.611      22.790      28.347      38.159      52.640      70.982      92.005      113.22      129.79    
  178.17      169.79      148.15      120.69      93.357      68.634      47.786      32.604      23.833      19.197    
  16.576      15.192      14.579      14.474      14.510      14.474      14.579      15.192      16.576      19.197    
  23.833      32.604      47.786      68.634      93.357      120.69      148.15      169.79      220.35      209.84    
  182.92      149.23      115.89      85.222      58.247      37.607      25.320      19.286      15.874      13.936    
  12.975      12.728      12.740      12.728      12.975      13.936      15.874      19.286      25.320      37.607    
  58.247      85.222      115.89      149.23      182.92      209.84      253.54      241.26      209.99      171.25    
  133.27      98.144      66.587      41.769      26.680      19.523      15.614      13.345      12.196      11.895    
  11.908      11.895      12.196      13.345      15.614      19.523      26.680      41.769      66.587      98.144    
  133.27      171.25      209.99      241.26      253.65      241.39      210.17      171.46      133.46      98.264    
  66.635      41.772      26.666      19.505      15.589      13.310      12.148      11.836      11.845      11.836    
  12.148      13.310      15.589      19.505      26.666      41.772      66.635      98.264      133.46      171.46    
  210.17      241.39      241.91      230.29      200.61      163.67      127.29      93.657      63.639      40.255    
  26.152      19.394      15.644      13.471      12.367      12.068      12.075      12.068      12.367      13.471    
  15.644      19.394      26.152      40.255      63.639      93.657      127.29      163.67      200.61      230.29    
  211.35      201.32      175.55      143.16      111.03      81.546      55.840      36.383      24.889      19.164    
  15.898      14.046      13.126      12.884      12.892      12.884      13.126      14.046      15.898      19.164    
  24.889      36.383      55.840      81.546      111.03      143.16      175.55      201.32      171.96      163.87    
  142.93      116.30      89.779      65.927      46.033      31.719      23.496      19.075      16.577      15.263    
  14.683      14.583      14.616      14.583      14.683      15.263      16.577      19.075      23.496      31.719    
  46.033      65.927      89.779      116.30      142.93      163.87      131.95      125.75      109.61      88.929    
  68.487      50.786      36.978      27.735      22.493      19.465      17.981      17.426      17.372      17.543    
  17.650      17.543      17.372      17.426      17.981      19.465      22.493      27.735      36.978      50.786    
  68.487      88.929      109.61      125.75      95.044      90.630      79.113      64.410      50.193      38.550    
  30.236      25.127      22.147      20.679      20.415      20.896      21.718      22.477      22.788      22.477    
  21.718      20.896      20.415      20.679      22.147      25.127      30.236      38.550      50.193      64.410    
  79.113      90.630      63.286      60.553      53.460      44.554      36.279      30.009      26.022      23.751    
  22.730      22.997      24.414      26.581      28.920      30.742      31.434      30.742      28.920      26.581    
  24.414      22.997      22.730      23.751      26.022      30.009      36.279      44.554      53.460      60.553    
  39.436      38.112      34.728      30.639      27.116      24.793      23.596      23.420      24.472      26.896    
  30.512      34.832      39.058      42.192      43.356      42.192      39.058      34.832      30.512      26.896    
  24.472      23.420      23.596      24.793      27.116      30.639      34.728      38.112      25.178      24.753    
  23.714      22.587      21.820      21.664      22.397      24.280      27.627      32.396      38.241      44.567    
  50.456      54.728      56.300      54.728      50.456      44.567      38.241      32.396      27.627      24.280    
  22.397      21.664      21.820      22.587      23.714      24.753      18.214      18.145      18.025      18.086    
  18.633      19.985      22.417      26.415      32.082      39.001      46.582      54.230      61.134      66.107    
  67.940      66.107      61.134      54.230      46.582      39.001      32.082      26.415      22.417      19.985    
  18.633      18.086      18.025      18.145      14.272      14.350      14.666      15.434      16.935      19.455    
  23.498      29.619      37.492      46.183      54.888      63.210      70.657      76.104      78.140      76.104    
  70.657      63.210      54.888      46.183      37.492      29.619      23.498      19.455      16.935      15.434    
  14.666      14.350      11.915      12.087      12.693      13.953      16.156      19.643      25.263      33.449    
  43.357      53.530      63.074      71.978      80.133      86.329      88.701      86.329      80.133      71.978    
  63.074      53.530      43.357      33.449      25.263      19.643      16.156      13.953      12.693      12.087    
  10.666      10.889      11.658      13.223      15.902      20.183      27.203      37.212      48.886      60.361    
  70.794      80.624      90.029      97.472      100.38      97.472      90.029      80.624      70.794      60.361    
  48.886      37.212      27.203      20.183      15.902      13.223      11.658      10.889      10.274      10.507    
  11.324      13.010      15.927      20.730      28.726      40.018      52.954      65.424      76.699      87.569    
  98.347      107.09      110.55      107.09      98.347      87.569      76.699      65.424      52.954      40.018    
  28.726      20.730      15.927      13.010      11.324      10.507      10.247      10.478      11.293      13.000    
  15.979      20.961      29.306      41.064      54.464      67.321      78.958      90.298      101.69      111.00    
  114.69      111.00      101.69      90.298      78.958      67.321      54.464      41.064      29.306      20.961    
  15.979      13.000      11.293      10.478      10.274      10.507      11.324      13.010      15.927      20.730    
  28.726      40.018      52.954      65.424      76.699      87.569      98.347      107.09      110.55      107.09    
  98.347      87.569      76.699      65.424      52.954      40.018      28.726      20.730      15.927      13.010    
  11.324      10.507      10.666      10.889      11.658      13.223      15.902      20.183      27.203      37.212    
  48.886      60.361      70.794      80.624      90.029      97.472      100.38      97.472      90.029      80.624    
  70.794      60.361      48.886      37.212      27.203      20.183      15.902      13.223      11.658      10.889    
  11.915      12.087      12.693      13.953      16.156      19.643      25.263      33.449      43.357      53.530    
  63.074      71.978      80.133      86.329      88.701      86.329      80.133      71.978      63.074      53.530    
  43.357      33.449      25.263      19.643      16.156      13.953      12.693      12.087      14.272      14.350    
  14.666      15.434      16.935      19.455      23.498      29.619      37.492      46.183      54.888      63.210    
  70.657      76.104      78.140      76.104      70.657      63.210      54.888      46.183      37.492      29.619    
  23.498      19.455      16.935      15.434      14.666      14.350      18.214      18.145      18.025      18.086    
  18.633      19.985      22.417      26.415      32.082      39.001      46.582      54.230      61.134      66.107    
  67.940      66.107      61.134      54.230      46.582      39.001      32.082      26.415      22.417      19.985    
  18.633      18.086      18.025      18.145      25.178      24.753      23.714      22.587      21.820      21.664    
  22.397      24.280      27.627      32.396      38.241      44.567      50.456      54.728      56.300      54.728    
  50.456      44.567      38.241      32.396      27.627      24.280      22.397      21.664      21.820      22.587    
  23.714      24.753      39.436      38.112      34.728      30.639      27.116      24.793      23.596      23.420    
  24.472      26.896      30.512      34.832      39.058      42.192      43.356      42.192      39.058      34.832    
  30.512      26.896      24.472      23.420      23.596      24.793      27.116      30.639      34.728      38.112    
  63.286      60.553      53.460      44.554      36.279      30.009      26.022      23.751      22.730      22.997    
  24.414      26.581      28.920      30.742      31.434      30.742      28.920      26.581      24.414      22.997    
  22.730      23.751      26.022      30.009      36.279      44.554      53.460      60.553      95.044      90.630    
  79.113      64.410      50.193      38.550      30.236      25.127      22.147      20.679      20.415      20.896    
  21.718      22.477      22.788      22.477      21.718      20.896      20.415      20.679      22.147      25.127    
  30.236      38.550      50.193      64.410      79.113      90.630      131.95      125.75      109.61      88.929    
  68.487      50.786      36.978      27.735      22.493      19.465      17.981      17.426      17.372      17.543    
  17.650      17.543      17.372      17.426      17.981      19.465      22.493      27.735      36.978      50.786    
  68.487      88.929      109.61      125.75      171.96      163.87      142.93      116.30      89.779      65.927    
  46.033      31.719      23.496      19.075      16.577      15.263      14.683      14.583      14.616      14.583    
  14.683      15.263      16.577      19.075      23.496      31.719      46.033      65.927      89.779      116.30    
  142.93      163.87      211.35      201.32      175.55      143.16      111.03      81.546      55.840      36.383    
  24.889      19.164      15.898      14.046      13.126      12.884      12.892      12.884      13.126      14.046    
  15.898      19.164      24.889      36.383      55.840      81.546      111.03      143.16      175.55      201.32    
  241.91      230.29      200.61      163.67      127.29      93.657      63.639      40.255      26.152      19.394    
  15.644      13.471      12.367      12.068      12.075      12.068      12.367      13.471      15.644      19.394    
  26.152      40.255      63.639      93.657      127.29      163.67      200.61      230.29      220.65      210.23    
  183.47      149.86      116.45      85.566      58.370      37.596      25.268      19.230      15.811      13.855    
  12.869      12.602      12.606      12.602      12.869      13.855      15.811      19.230      25.268      37.596    
  58.370      85.566      116.45      149.86      183.47      210.23      211.56      201.58      175.92      143.59    
  111.41      81.775      55.918      36.371      24.850      19.127      15.858      13.997      13.065      12.811    
  12.813      12.811      13.065      13.997      15.858      19.127      24.850      36.371      55.918      81.775    
  111.41      143.59      175.92      201.58      187.33      178.51      155.72      126.80      97.947      71.741    
  49.512      33.233      23.814      18.905      16.077      14.506      13.740      13.542      13.549      13.542    
  13.740      14.506      16.077      18.905      23.814      33.233      49.512      71.741      97.947      126.80    
  155.72      178.51      154.74      147.43      128.43      104.14      79.988      58.639      41.400      29.427    
  22.632      18.797      16.666      15.582      15.126      15.062      15.097      15.062      15.126      15.582    
  16.666      18.797      22.632      29.427      41.400      58.639      79.988      104.14      128.43      147.43    
  119.81      114.11      99.259      80.232      61.568      45.758      33.844      26.130      21.700      19.108    
  17.896      17.498      17.522      17.713      17.819      17.713      17.522      17.498      17.896      19.108    
  21.700      26.130      33.844      45.758      61.568      80.232      99.259      114.11      86.307      82.262    
  71.719      58.316      45.505      35.255      28.169      23.888      21.331      20.156      20.047      20.558    
  21.333      22.024      22.303      22.024      21.333      20.558      20.047      20.156      21.331      23.888    
  28.169      35.255      45.505      58.316      71.719      82.262      57.347      54.892      48.536      40.607    
  33.333      27.935      24.561      22.606      21.821      22.182      23.523      25.491      27.579      29.191    
  29.799      29.191      27.579      25.491      23.523      22.182      21.821      22.606      24.561      27.935    
  33.333      40.607      48.536      54.892      36.112      34.957      32.013      28.475      25.448      23.444    
  22.382      22.310      23.347      25.595      28.885      32.764      36.518      39.281      40.302      39.281    
  36.518      32.764      28.885      25.595      23.347      22.310      22.382      23.444      25.448      28.475    
  32.013      34.957      23.794      23.430      22.537      21.545      20.820      20.660      21.359      23.104    
  26.174      30.551      35.892      41.607      46.853      50.610      51.983      50.610      46.853      41.607    
  35.892      30.551      26.174      23.104      21.359      20.660      20.820      21.545      22.537      23.430    
  17.647      17.582      17.467      17.511      17.999      19.233      21.454      25.081      30.293      36.726    
  43.763      50.737      56.871      61.188      62.759      61.188      56.871      50.737      43.763      36.726    
  30.293      25.081      21.454      19.233      17.999      17.511      17.467      17.582      14.052      14.131    
  14.439      15.158      16.539      18.855      22.508      28.096      35.442      43.687      51.912      59.527    
  66.025      70.588      72.258      70.588      66.025      59.527      51.912      43.687      35.442      28.096    
  22.508      18.855      16.539      15.158      14.439      14.131      11.897      12.070      12.660      13.852    
  15.900      19.101      24.193      31.749      41.144      50.976      60.107      68.174      75.025      79.938    
  81.768      79.938      75.025      68.174      60.107      50.976      41.144      31.749      24.193      19.101    
  15.900      13.852      12.660      12.070      10.714      10.940      11.699      13.196      15.711      19.640    
  26.038      35.369      46.578      57.806      67.816      76.533      84.105      89.724      91.861      89.724    
  84.105      76.533      67.816      57.806      46.578      35.369      26.038      19.640      15.711      13.196    
  11.699      10.940      10.281      10.523      11.345      12.980      15.745      20.160      27.484      38.082    
  50.592      62.864      73.644      83.098      91.538      97.969      100.45      97.969      91.538      83.098    
  73.644      62.864      50.592      38.082      27.484      20.160      15.745      12.980      11.345      10.523    
  10.217      10.460      11.289      12.955      15.791      20.376      28.034      39.095      52.084      64.754    
  75.856      85.646      94.485      101.28      103.91      101.28      94.485      85.646      75.856      64.754    
  52.084      39.095      28.034      20.376      15.791      12.955      11.289      10.460      10.281      10.523    
  11.345      12.980      15.745      20.160      27.484      38.082      50.592      62.864      73.644      83.098    
  91.538      97.969      100.45      97.969      91.538      83.098      73.644      62.864      50.592      38.082    
  27.484      20.160      15.745      12.980      11.345      10.523      10.714      10.940      11.699      13.196    
  15.711      19.640      26.038      35.369      46.578      57.806      67.816      76.533      84.105      89.724    
  91.861      89.724      84.105      76.533      67.816      57.806      46.578      35.369      26.038      19.640    
  15.711      13.196      11.699      10.940      11.897      12.070      12.660      13.852      15.900      19.101    
  24.193      31.749      41.144      50.976      60.107      68.174      75.025      79.938      81.768      79.938    
  75.025      68.174      60.107      50.976      41.144      31.749      24.193      19.101      15.900      13.852    
  12.660      12.070      14.052      14.131      14.439      15.158      16.539      18.855      22.508      28.096    
  35.442      43.687      51.912      59.527      66.025      70.588      72.258      70.588      66.025      59.527    
  51.912      43.687      35.442      28.096      22.508      18.855      16.539      15.158      14.439      14.131    
  17.647      17.582      17.467      17.511      17.999      19.233      21.454      25.081      30.293      36.726    
  43.763      50.737      56.871      61.188      62.759      61.188      56.871      50.737      43.763      36.726    
  30.293      25.081      21.454      19.233      17.999      17.511      17.467      17.582      23.794      23.430    
  22.537      21.545      20.820      20.660      21.359      23.104      26.174      30.551      35.892      41.607    
  46.853      50.610      51.983      50.610      46.853      41.607      35.892      30.551      26.174      23.104    
  21.359      20.660      20.820      21.545      22.537      23.430      36.112      34.957      32.013      28.475    
  25.448      23.444      22.382      22.310      23.347      25.595      28.885      32.764      36.518      39.281    
  40.302      39.281      36.518      32.764      28.885      25.595      23.347      22.310      22.382      23.444    
  25.448      28.475      32.013      34.957      57.347      54.892      48.536      40.607      33.333      27.935    
  24.561      22.606      21.821      22.182      23.523      25.491      27.579      29.191      29.799      29.191    
  27.579      25.491      23.523      22.182      21.821      22.606      24.561      27.935      33.333      40.607    
  48.536      54.892      86.307      82.262      71.719      58.316      45.505      35.255      28.169      23.888    
  21.331      20.156      20.047      20.558      21.333      22.024      22.303      22.024      21.333      20.558    
  20.047      20.156      21.331      23.888      28.169      35.255      45.505      58.316      71.719      82.262    
  119.81      114.11      99.259      80.232      61.568      45.758      33.844      26.130      21.700      19.108    
  17.896      17.498      17.522      17.713      17.819      17.713      17.522      17.498      17.896      19.108    
  21.700      26.130      33.844      45.758      61.568      80.232      99.259      114.11      154.74      147.43    
  128.43      104.14      79.988      58.639      41.400      29.427      22.632      18.797      16.666      15.582    
  15.126      15.062      15.097      15.062      15.126      15.582      16.666      18.797      22.632      29.427    
  41.400      58.639      79.988      104.14      128.43      147.43      187.33      178.51      155.72      126.80    
  97.947      71.741      49.512      33.233      23.814      18.905      16.077      14.506      13.740      13.542    
  13.549      13.542      13.740      14.506      16.077      18.905      23.814      33.233      49.512      71.741    
  97.947      126.80      155.72      178.51      211.56      201.58      175.92      143.59      111.41      81.775    
  55.918      36.371      24.850      19.127      15.858      13.997      13.065      12.811      12.813      12.811    
  13.065      13.997      15.858      19.127      24.850      36.371      55.918      81.775      111.41      143.59    
  175.92      201.58      178.52      170.27      148.89      121.56      94.097      69.050      47.882      32.527    
  23.725      19.111      16.510      15.133      14.517      14.404      14.437      14.404      14.517      15.133    
  16.510      19.111      23.725      32.527      47.882      69.050      94.097      121.56      148.89      170.27    
  172.23      164.24      143.51      116.99      90.367      66.250      46.096      31.646      23.403      19.004    
  16.528      15.228      14.651      14.550      14.582      14.550      14.651      15.228      16.528      19.004    
  23.403      31.646      46.096      66.250      90.367      116.99      143.51      164.24      154.84      147.58    
  128.69      104.45      80.245      58.767      41.407      29.376      22.580      18.762      16.650      15.581    
  15.135      15.078      15.115      15.078      15.135      15.581      16.650      18.762      22.580      29.376    
  41.407      58.767      80.245      104.45      128.69      147.58      129.87      123.68      107.54      86.819    