unknown system                          
   1.00000000000000     
     3.509554    0.000000    0.000000
     0.000000    3.509554    0.000000
     0.000000    0.000000    3.509554
   Pd   Ir   Pt   Cu
     1     1     1     1
Direct
  0.000000  0.000000  0.000000
  0.500000  0.500000  0.000000
  0.500000  0.000000  0.500000
  0.000000  0.500000  0.500000
 
   28   28   28
 0.26636436154E+03 0.25337789767E+03 0.22037818575E+03 0.17965740767E+03 0.13987960789E+03
 0.10307112617E+03 0.69796411016E+02 0.43399842452E+02 0.27235649839E+02 0.19637522812E+02
 0.15558123607E+02 0.13180235905E+02 0.11972594204E+02 0.11658530447E+02 0.11674480868E+02
 0.11658530447E+02 0.11972594204E+02 0.13180235905E+02 0.15558123607E+02 0.19637522812E+02
 0.27235649839E+02 0.43399842452E+02 0.69796411016E+02 0.10307112617E+03 0.13987960789E+03
 0.17965740767E+03 0.22037818575E+03 0.25337789767E+03 0.25353571675E+03 0.24125564556E+03
 0.20998615489E+03 0.17125067098E+03 0.13327046180E+03 0.98144365451E+02 0.66587096071E+02
 0.41768509744E+02 0.26680244953E+02 0.19523172305E+02 0.15613732196E+02 0.13345288038E+02
 0.12196282394E+02 0.11894707523E+02 0.11907502608E+02 0.11894707523E+02 0.12196282394E+02
 0.13345288038E+02 0.15613732196E+02 0.19523172305E+02 0.26680244953E+02 0.41768509744E+02
 0.66587096071E+02 0.98144365451E+02 0.13327046180E+03 0.17125067098E+03 0.20998615489E+03
 0.24125564556E+03 0.22034690477E+03 0.20983983845E+03 0.18292383256E+03 0.14922525202E+03
 0.11589453911E+03 0.85222146712E+02 0.58246853167E+02 0.37606990668E+02 0.25319964673E+02
 0.19285727810E+02 0.15873810261E+02 0.13935540789E+02 0.12974740886E+02 0.12728219771E+02
 0.12740413364E+02 0.12728219771E+02 0.12974740886E+02 0.13935540789E+02 0.15873810261E+02
 0.19285727810E+02 0.25319964673E+02 0.37606990668E+02 0.58246853167E+02 0.85222146712E+02
 0.11589453911E+03 0.14922525202E+03 0.18292383256E+03 0.20983983845E+03 0.17817079118E+03
 0.16979453686E+03 0.14815315088E+03 0.12069300910E+03 0.93356931207E+02 0.68633995160E+02
 0.47785927336E+02 0.32603695406E+02 0.23832643954E+02 0.19196830973E+02 0.16575992337E+02
 0.15191735409E+02 0.14578814003E+02 0.14473767228E+02 0.14510096045E+02 0.14473767228E+02
 0.14578814003E+02 0.15191735409E+02 0.16575992337E+02 0.19196830973E+02 0.23832643954E+02
 0.32603695406E+02 0.47785927336E+02 0.68633995160E+02 0.93356931207E+02 0.12069300910E+03
 0.14815315088E+03 0.16979453686E+03 0.13615709334E+03 0.12979170274E+03 0.11322135445E+03
 0.92005319271E+02 0.70982289213E+02 0.52639875065E+02 0.38158609482E+02 0.28347176212E+02
 0.22790467979E+02 0.19610661076E+02 0.18034128872E+02 0.17430404563E+02 0.17356941458E+02
 0.17528201970E+02 0.17639076876E+02 0.17528201970E+02 0.17356941458E+02 0.17430404563E+02
 0.18034128872E+02 0.19610661076E+02 0.22790467979E+02 0.28347176212E+02 0.38158609482E+02
 0.52639875065E+02 0.70982289213E+02 0.92005319271E+02 0.11322135445E+03 0.12979170274E+03
 0.98032759294E+02 0.93501177343E+02 0.81674766100E+02 0.66558208124E+02 0.51883006734E+02
 0.39765959529E+02 0.31013037288E+02 0.25588371840E+02 0.22451400377E+02 0.20878759340E+02
 0.20564620261E+02 0.21043134082E+02 0.21890629972E+02 0.22681394994E+02 0.23006109462E+02
 0.22681394994E+02 0.21890629972E+02 0.21043134082E+02 0.20564620261E+02 0.20878759340E+02
 0.22451400377E+02 0.25588371840E+02 0.31013037288E+02 0.39765959529E+02 0.51883006734E+02
 0.66558208124E+02 0.81674766100E+02 0.93501177343E+02 0.65353849846E+02 0.62530402434E+02
 0.55197197257E+02 0.45969616250E+02 0.37356593322E+02 0.30781329178E+02 0.26564817768E+02
 0.24173232856E+02 0.23066344247E+02 0.23302988680E+02 0.24751280109E+02 0.26997137031E+02
 0.29435573334E+02 0.31340813128E+02 0.32064913021E+02 0.31340813128E+02 0.29435573334E+02
 0.26997137031E+02 0.24751280109E+02 0.23302988680E+02 0.23066344247E+02 0.24173232856E+02
 0.26564817768E+02 0.30781329178E+02 0.37356593322E+02 0.45969616250E+02 0.55197197257E+02
 0.62530402434E+02 0.40630394662E+02 0.39248160915E+02 0.35714197855E+02 0.31434135196E+02
 0.27735721308E+02 0.25291750355E+02 0.24043718206E+02 0.23830237737E+02 0.24888052942E+02
 0.27374955093E+02 0.31111411535E+02 0.35596131685E+02 0.40001447399E+02 0.43278620592E+02
 0.44496982392E+02 0.43278620592E+02 0.40001447399E+02 0.35596131685E+02 0.31111411535E+02
 0.27374955093E+02 0.24888052942E+02 0.23830237737E+02 0.24043718206E+02 0.25291750355E+02
 0.27735721308E+02 0.31434135196E+02 0.35714197855E+02 0.39248160915E+02 0.25688426698E+02
 0.25240629762E+02 0.24147976123E+02 0.22968409718E+02 0.22183723823E+02 0.22033722846E+02
 0.22780352133E+02 0.24714598776E+02 0.28157597351E+02 0.33062483132E+02 0.39089020067E+02
 0.45641447341E+02 0.51777483303E+02 0.56248039322E+02 0.57897864031E+02 0.56248039322E+02
 0.51777483303E+02 0.45641447341E+02 0.39089020067E+02 0.33062483132E+02 0.28157597351E+02
 0.24714598776E+02 0.22780352133E+02 0.22033722846E+02 0.22183723823E+02 0.22968409718E+02
 0.24147976123E+02 0.25240629762E+02 0.18422459760E+02 0.18351243483E+02 0.18229781105E+02
 0.18296158045E+02 0.18865705562E+02 0.20261062770E+02 0.22772041810E+02 0.26899518825E+02
 0.32720778281E+02 0.39802818493E+02 0.47578426056E+02 0.55482263132E+02 0.62689305235E+02
 0.67924861894E+02 0.69863303460E+02 0.67924861894E+02 0.62689305235E+02 0.55482263132E+02
 0.47578426056E+02 0.39802818493E+02 0.32720778281E+02 0.26899518825E+02 0.22772041810E+02
 0.20261062770E+02 0.18865705562E+02 0.18296158045E+02 0.18229781105E+02 0.18351243483E+02
 0.14379992695E+02 0.14454026155E+02 0.14766098072E+02 0.15543663551E+02 0.17082376444E+02
 0.19674891050E+02 0.23856971243E+02 0.30159570074E+02 0.38202907265E+02 0.47037313874E+02
 0.55914573679E+02 0.64518616025E+02 0.72356591743E+02 0.78169917711E+02 0.80357856128E+02
 0.78169917711E+02 0.72356591743E+02 0.64518616025E+02 0.55914573679E+02 0.47037313874E+02
 0.38202907265E+02 0.30159570074E+02 0.23856971243E+02 0.19674891050E+02 0.17082376444E+02
 0.15543663551E+02 0.14766098072E+02 0.14454026155E+02 0.11984960521E+02 0.12151073823E+02
 0.12746213835E+02 0.14012196294E+02 0.16256606004E+02 0.19839934200E+02 0.25642868449E+02
 0.34036645175E+02 0.44100594957E+02 0.54373225804E+02 0.64072841983E+02 0.73329875059E+02
 0.82039693360E+02 0.88777518212E+02 0.91377317235E+02 0.88777518212E+02 0.82039693360E+02
 0.73329875059E+02 0.64072841983E+02 0.54373225804E+02 0.44100594957E+02 0.34036645175E+02
 0.25642868449E+02 0.19839934200E+02 0.16256606004E+02 0.14012196294E+02 0.12746213835E+02
 0.12151073823E+02 0.10754502731E+02 0.10966714467E+02 0.11714401826E+02 0.13273387751E+02
 0.15985228379E+02 0.20379956186E+02 0.27608667700E+02 0.37832679816E+02 0.49637323725E+02
 0.61174955436E+02 0.71780156295E+02 0.82091949730E+02 0.92281873011E+02 0.10049619352E+03
 0.10373045745E+03 0.10049619352E+03 0.92281873011E+02 0.82091949730E+02 0.71780156295E+02
 0.61174955436E+02 0.49637323725E+02 0.37832679816E+02 0.27608667700E+02 0.20379956186E+02
 0.15985228379E+02 0.13273387751E+02 0.11714401826E+02 0.10966714467E+02 0.10413361500E+02
 0.10630921287E+02 0.11412483936E+02 0.13077527089E+02 0.16014035060E+02 0.20938074542E+02
 0.29153224277E+02 0.40659769279E+02 0.53704415699E+02 0.66220787967E+02 0.77704732555E+02
 0.89190625939E+02 0.10096807646E+03 0.11069099578E+03 0.11455813254E+03 0.11069099578E+03
 0.10096807646E+03 0.89190625939E+02 0.77704732555E+02 0.66220787967E+02 0.53704415699E+02
 0.40659769279E+02 0.29153224277E+02 0.20938074542E+02 0.16014035060E+02 0.13077527089E+02
 0.11412483936E+02 0.10630921287E+02 0.10414967066E+02 0.10627233453E+02 0.11401629404E+02
 0.13079106207E+02 0.16071722794E+02 0.21175031697E+02 0.29741827208E+02 0.41712653794E+02
 0.55214555551E+02 0.68113373162E+02 0.79978475473E+02 0.91992161759E+02 0.10446795620E+03
 0.11484054948E+03 0.11897740943E+03 0.11484054948E+03 0.10446795620E+03 0.91992161759E+02
 0.79978475473E+02 0.68113373162E+02 0.55214555551E+02 0.41712653794E+02 0.29741827208E+02
 0.21175031697E+02 0.16071722794E+02 0.13079106207E+02 0.11401629404E+02 0.10627233453E+02
 0.10413361500E+02 0.10630921287E+02 0.11412483936E+02 0.13077527089E+02 0.16014035060E+02
 0.20938074542E+02 0.29153224277E+02 0.40659769279E+02 0.53704415699E+02 0.66220787967E+02
 0.77704732555E+02 0.89190625939E+02 0.10096807646E+03 0.11069099578E+03 0.11455813254E+03
 0.11069099578E+03 0.10096807646E+03 0.89190625939E+02 0.77704732555E+02 0.66220787967E+02
 0.53704415699E+02 0.40659769279E+02 0.29153224277E+02 0.20938074542E+02 0.16014035060E+02
 0.13077527089E+02 0.11412483936E+02 0.10630921287E+02 0.10754502731E+02 0.10966714467E+02
 0.11714401826E+02 0.13273387751E+02 0.15985228379E+02 0.20379956186E+02 0.27608667700E+02
 0.37832679816E+02 0.49637323725E+02 0.61174955436E+02 0.71780156295E+02 0.82091949730E+02
 0.92281873011E+02 0.10049619352E+03 0.10373045745E+03 0.10049619352E+03 0.92281873011E+02
 0.82091949730E+02 0.71780156295E+02 0.61174955436E+02 0.49637323725E+02 0.37832679816E+02
 0.27608667700E+02 0.20379956186E+02 0.15985228379E+02 0.13273387751E+02 0.11714401826E+02
 0.10966714467E+02 0.11984960521E+02 0.12151073823E+02 0.12746213835E+02 0.14012196294E+02
 0.16256606004E+02 0.19839934200E+02 0.25642868449E+02 0.34036645175E+02 0.44100594957E+02
 0.54373225804E+02 0.64072841983E+02 0.73329875059E+02 0.82039693360E+02 0.88777518212E+02
 0.91377317235E+02 0.88777518212E+02 0.82039693360E+02 0.73329875059E+02 0.64072841983E+02
 0.54373225804E+02 0.44100594957E+02 0.34036645175E+02 0.25642868449E+02 0.19839934200E+02
 0.16256606004E+02 0.14012196294E+02 0.12746213835E+02 0.12151073823E+02 0.14379992695E+02
 0.14454026155E+02 0.14766098072E+02 0.15543663551E+02 0.17082376444E+02 0.19674891050E+02
 0.23856971243E+02 0.30159570074E+02 0.38202907265E+02 0.47037313874E+02 0.55914573679E+02
 0.64518616025E+02 0.72356591743E+02 0.78169917711E+02 0.80357856128E+02 0.78169917711E+02
 0.72356591743E+02 0.64518616025E+02 0.55914573679E+02 0.47037313874E+02 0.38202907265E+02
 0.30159570074E+02 0.23856971243E+02 0.19674891050E+02 0.17082376444E+02 0.15543663551E+02
 0.14766098072E+02 0.14454026155E+02 0.18422459760E+02 0.18351243483E+02 0.18229781105E+02
 0.18296158045E+02 0.18865705562E+02 0.20261062770E+02 0.22772041810E+02 0.26899518825E+02
 0.32720778281E+02 0.39802818493E+02 0.47578426056E+02 0.55482263132E+02 0.62689305235E+02
 0.67924861894E+02 0.69863303460E+02 0.67924861894E+02 0.62689305235E+02 0.55482263132E+02
 0.47578426056E+02 0.39802818493E+02 0.32720778281E+02 0.26899518825E+02 0.22772041810E+02
 0.20261062770E+02 0.18865705562E+02 0.18296158045E+02 0.18229781105E+02 0.18351243483E+02
 0.25688426698E+02 0.25240629762E+02 0.24147976123E+02 0.22968409718E+02 0.22183723823E+02
 0.22033722846E+02 0.22780352133E+02 0.24714598776E+02 0.28157597351E+02 0.33062483132E+02
 0.39089020067E+02 0.45641447341E+02 0.51777483303E+02 0.56248039322E+02 0.57897864031E+02
 0.56248039322E+02 0.51777483303E+02 0.45641447341E+02 0.39089020067E+02 0.33062483132E+02
 0.28157597351E+02 0.24714598776E+02 0.22780352133E+02 0.22033722846E+02 0.22183723823E+02
 0.22968409718E+02 0.24147976123E+02 0.25240629762E+02 0.40630394662E+02 0.39248160915E+02
 0.35714197855E+02 0.31434135196E+02 0.27735721308E+02 0.25291750355E+02 0.24043718206E+02
 0.23830237737E+02 0.24888052942E+02 0.27374955093E+02 0.31111411535E+02 0.35596131685E+02
 0.40001447399E+02 0.43278620592E+02 0.44496982392E+02 0.43278620592E+02 0.40001447399E+02
 0.35596131685E+02 0.31111411535E+02 0.27374955093E+02 0.24888052942E+02 0.23830237737E+02
 0.24043718206E+02 0.25291750355E+02 0.27735721308E+02 0.31434135196E+02 0.35714197855E+02
 0.39248160915E+02 0.65353849846E+02 0.62530402434E+02 0.55197197257E+02 0.45969616250E+02
 0.37356593322E+02 0.30781329178E+02 0.26564817768E+02 0.24173232856E+02 0.23066344247E+02
 0.23302988680E+02 0.24751280109E+02 0.26997137031E+02 0.29435573334E+02 0.31340813128E+02
 0.32064913021E+02 0.31340813128E+02 0.29435573334E+02 0.26997137031E+02 0.24751280109E+02
 0.23302988680E+02 0.23066344247E+02 0.24173232856E+02 0.26564817768E+02 0.30781329178E+02
 0.37356593322E+02 0.45969616250E+02 0.55197197257E+02 0.62530402434E+02 0.98032759294E+02
 0.93501177343E+02 0.81674766100E+02 0.66558208124E+02 0.51883006734E+02 0.39765959529E+02
 0.31013037288E+02 0.25588371840E+02 0.22451400377E+02 0.20878759340E+02 0.20564620261E+02
 0.21043134082E+02 0.21890629972E+02 0.22681394994E+02 0.23006109462E+02 0.22681394994E+02
 0.21890629972E+02 0.21043134082E+02 0.20564620261E+02 0.20878759340E+02 0.22451400377E+02
 0.25588371840E+02 0.31013037288E+02 0.39765959529E+02 0.51883006734E+02 0.66558208124E+02
 0.81674766100E+02 0.93501177343E+02 0.13615709334E+03 0.12979170274E+03 0.11322135445E+03
 0.92005319271E+02 0.70982289213E+02 0.52639875065E+02 0.38158609482E+02 0.28347176212E+02
 0.22790467979E+02 0.19610661076E+02 0.18034128872E+02 0.17430404563E+02 0.17356941458E+02
 0.17528201970E+02 0.17639076876E+02 0.17528201970E+02 0.17356941458E+02 0.17430404563E+02
 0.18034128872E+02 0.19610661076E+02 0.22790467979E+02 0.28347176212E+02 0.38158609482E+02
 0.52639875065E+02 0.70982289213E+02 0.92005319271E+02 0.11322135445E+03 0.12979170274E+03
 0.17817079118E+03 0.16979453686E+03 0.14815315088E+03 0.12069300910E+03 0.93356931207E+02
 0.68633995160E+02 0.47785927336E+02 0.32603695406E+02 0.23832643954E+02 0.19196830973E+02
 0.16575992337E+02 0.15191735409E+02 0.14578814003E+02 0.14473767228E+02 0.14510096045E+02
 0.14473767228E+02 0.14578814003E+02 0.15191735409E+02 0.16575992337E+02 0.19196830973E+02
 0.23832643954E+02 0.32603695406E+02 0.47785927336E+02 0.68633995160E+02 0.93356931207E+02
 0.12069300910E+03 0.14815315088E+03 0.16979453686E+03 0.22034690477E+03 0.20983983845E+03
 0.18292383256E+03 0.14922525202E+03 0.11589453911E+03 0.85222146712E+02 0.58246853167E+02
 0.37606990668E+02 0.25319964673E+02 0.19285727810E+02 0.15873810261E+02 0.13935540789E+02
 0.12974740886E+02 0.12728219771E+02 0.12740413364E+02 0.12728219771E+02 0.12974740886E+02
 0.13935540789E+02 0.15873810261E+02 0.19285727810E+02 0.25319964673E+02 0.37606990668E+02
 0.58246853167E+02 0.85222146712E+02 0.11589453911E+03 0.14922525202E+03 0.18292383256E+03
 0.20983983845E+03 0.25353571675E+03 0.24125564556E+03 0.20998615489E+03 0.17125067098E+03
 0.13327046180E+03 0.98144365451E+02 0.66587096071E+02 0.41768509744E+02 0.26680244953E+02
 0.19523172305E+02 0.15613732196E+02 0.13345288038E+02 0.12196282394E+02 0.11894707523E+02
 0.11907502608E+02 0.11894707523E+02 0.12196282394E+02 0.13345288038E+02 0.15613732196E+02
 0.19523172305E+02 0.26680244953E+02 0.41768509744E+02 0.66587096071E+02 0.98144365451E+02
 0.13327046180E+03 0.17125067098E+03 0.20998615489E+03 0.24125564556E+03 0.25364527722E+03
 0.24138976526E+03 0.21017052027E+03 0.17146245659E+03 0.13345673451E+03 0.98263667211E+02
 0.66635455884E+02 0.41771570382E+02 0.26666423365E+02 0.19504755249E+02 0.15588854105E+02
 0.13309637133E+02 0.12147929529E+02 0.11835998680E+02 0.11844791006E+02 0.11835998680E+02
 0.12147929529E+02 0.13309637133E+02 0.15588854105E+02 0.19504755249E+02 0.26666423365E+02
 0.41771570382E+02 0.66635455884E+02 0.98263667211E+02 0.13345673451E+03 0.17146245659E+03
 0.21017052027E+03 0.24138976526E+03 0.24191275966E+03 0.23028618053E+03 0.20060783249E+03
 0.16367376405E+03 0.12729483243E+03 0.93657166890E+02 0.63638553871E+02 0.40255079644E+02
 0.26151932307E+02 0.19394467470E+02 0.15643934498E+02 0.13471173754E+02 0.12366996116E+02
 0.12068305563E+02 0.12074658344E+02 0.12068305563E+02 0.12366996116E+02 0.13471173754E+02
 0.15643934498E+02 0.19394467470E+02 0.26151932307E+02 0.40255079644E+02 0.63638553871E+02
 0.93657166890E+02 0.12729483243E+03 0.16367376405E+03 0.20060783249E+03 0.23028618053E+03
 0.21135254194E+03 0.20131596442E+03 0.17554611882E+03 0.14315668964E+03 0.11103099375E+03
 0.81545570801E+02 0.55839748222E+02 0.36383081777E+02 0.24888609142E+02 0.19164472494E+02
 0.15897792301E+02 0.14046098267E+02 0.13126281864E+02 0.12884079522E+02 0.12891546762E+02
 0.12884079522E+02 0.13126281864E+02 0.14046098267E+02 0.15897792301E+02 0.19164472494E+02
 0.24888609142E+02 0.36383081777E+02 0.55839748222E+02 0.81545570801E+02 0.11103099375E+03
 0.14315668964E+03 0.17554611882E+03 0.20131596442E+03 0.17196177874E+03 0.16387073182E+03
 0.14293034323E+03 0.11629658416E+03 0.89778508989E+02 0.65927384151E+02 0.46032834981E+02
 0.31718596883E+02 0.23495948198E+02 0.19074669632E+02 0.16576598568E+02 0.15263286328E+02
 0.14683370162E+02 0.14582614886E+02 0.14615809825E+02 0.14582614886E+02 0.14683370162E+02
 0.15263286328E+02 0.16576598568E+02 0.19074669632E+02 0.23495948198E+02 0.31718596883E+02
 0.46032834981E+02 0.65927384151E+02 0.89778508989E+02 0.11629658416E+03 0.14293034323E+03
 0.16387073182E+03 0.13194855549E+03 0.12575155254E+03 0.10960758523E+03 0.88929389474E+02
 0.68487444821E+02 0.50785770050E+02 0.36977991832E+02 0.27734787638E+02 0.22493196438E+02
 0.19465497524E+02 0.17980962767E+02 0.17425861374E+02 0.17372043140E+02 0.17543036899E+02
 0.17650234870E+02 0.17543036899E+02 0.17372043140E+02 0.17425861374E+02 0.17980962767E+02
 0.19465497524E+02 0.22493196438E+02 0.27734787638E+02 0.36977991832E+02 0.50785770050E+02
 0.68487444821E+02 0.88929389474E+02 0.10960758523E+03 0.12575155254E+03 0.95043984476E+02
 0.90630082320E+02 0.79113066588E+02 0.64410206480E+02 0.50192759117E+02 0.38549543568E+02
 0.30236481824E+02 0.25127078278E+02 0.22147324172E+02 0.20678815446E+02 0.20415296312E+02
 0.20896345659E+02 0.21718122585E+02 0.22477199300E+02 0.22787695388E+02 0.22477199300E+02
 0.21718122585E+02 0.20896345659E+02 0.20415296312E+02 0.20678815446E+02 0.22147324172E+02
 0.25127078278E+02 0.30236481824E+02 0.38549543568E+02 0.50192759117E+02 0.64410206480E+02
 0.79113066588E+02 0.90630082320E+02 0.63286094271E+02 0.60552997669E+02 0.53460062969E+02
 0.44553944093E+02 0.36278606709E+02 0.30009406363E+02 0.26021963114E+02 0.23751216874E+02
 0.22729621649E+02 0.22997220331E+02 0.24413796911E+02 0.26580820096E+02 0.28920297350E+02
 0.30742466988E+02 0.31433960207E+02 0.30742466988E+02 0.28920297350E+02 0.26580820096E+02
 0.24413796911E+02 0.22997220331E+02 0.22729621649E+02 0.23751216874E+02 0.26021963114E+02
 0.30009406363E+02 0.36278606709E+02 0.44553944093E+02 0.53460062969E+02 0.60552997669E+02
 0.39436290840E+02 0.38111723332E+02 0.34728217495E+02 0.30638668247E+02 0.27116300404E+02
 0.24793148554E+02 0.23596490942E+02 0.23419825923E+02 0.24471927749E+02 0.26895757704E+02
 0.30512208310E+02 0.34831671691E+02 0.39057618694E+02 0.42192156961E+02 0.43355702146E+02
 0.42192156961E+02 0.39057618694E+02 0.34831671691E+02 0.30512208310E+02 0.26895757704E+02
 0.24471927749E+02 0.23419825923E+02 0.23596490942E+02 0.24793148554E+02 0.27116300404E+02
 0.30638668247E+02 0.34728217495E+02 0.38111723332E+02 0.25177809315E+02 0.24752704504E+02
 0.23714013037E+02 0.22586825885E+02 0.21819939113E+02 0.21664018654E+02 0.22396764392E+02
 0.24280328225E+02 0.27627426309E+02 0.32395827328E+02 0.38241286209E+02 0.44566529571E+02
 0.50456462912E+02 0.54727772791E+02 0.56300067732E+02 0.54727772791E+02 0.50456462912E+02
 0.44566529571E+02 0.38241286209E+02 0.32395827328E+02 0.27627426309E+02 0.24280328225E+02
 0.22396764392E+02 0.21664018654E+02 0.21819939113E+02 0.22586825885E+02 0.23714013037E+02
 0.24752704504E+02 0.18214145939E+02 0.18144848102E+02 0.18025483615E+02 0.18085773012E+02
 0.18632657076E+02 0.19984620039E+02 0.22417085109E+02 0.26414669024E+02 0.32082194805E+02
 0.39000608090E+02 0.46582181384E+02 0.54230178777E+02 0.61133903193E+02 0.66107123145E+02
 0.67940173652E+02 0.66107123145E+02 0.61133903193E+02 0.54230178777E+02 0.46582181384E+02
 0.39000608090E+02 0.32082194805E+02 0.26414669024E+02 0.22417085109E+02 0.19984620039E+02
 0.18632657076E+02 0.18085773012E+02 0.18025483615E+02 0.18144848102E+02 0.14272068998E+02
 0.14349716443E+02 0.14666085929E+02 0.15433786575E+02 0.16934912835E+02 0.19455348118E+02
 0.23497914672E+02 0.29618724283E+02 0.37491898958E+02 0.46183121935E+02 0.54888038995E+02
 0.63210168829E+02 0.70656847241E+02 0.76103852063E+02 0.78139866355E+02 0.76103852063E+02
 0.70656847241E+02 0.63210168829E+02 0.54888038995E+02 0.46183121935E+02 0.37491898958E+02
 0.29618724283E+02 0.23497914672E+02 0.19455348118E+02 0.16934912835E+02 0.15433786575E+02
 0.14666085929E+02 0.14349716443E+02 0.11914810138E+02 0.12087415213E+02 0.12693011996E+02
 0.13952841634E+02 0.16156278261E+02 0.19642803029E+02 0.25262778018E+02 0.33448939385E+02
 0.43357318423E+02 0.53530103878E+02 0.63074125552E+02 0.71978020099E+02 0.80133329528E+02
 0.86329251705E+02 0.88701090088E+02 0.86329251705E+02 0.80133329528E+02 0.71978020099E+02
 0.63074125552E+02 0.53530103878E+02 0.43357318423E+02 0.33448939385E+02 0.25262778018E+02
 0.19642803029E+02 0.16156278261E+02 0.13952841634E+02 0.12693011996E+02 0.12087415213E+02
 0.10665694748E+02 0.10888970460E+02 0.11658347278E+02 0.13223195623E+02 0.15901892114E+02
 0.20182632110E+02 0.27202675083E+02 0.37211508486E+02 0.48886341901E+02 0.60360673686E+02
 0.70794050586E+02 0.80624050452E+02 0.90029004756E+02 0.97471535256E+02 0.10038096264E+03
 0.97471535256E+02 0.90029004756E+02 0.80624050452E+02 0.70794050586E+02 0.60360673686E+02
 0.48886341901E+02 0.37211508486E+02 0.27202675083E+02 0.20182632110E+02 0.15901892114E+02
 0.13223195623E+02 0.11658347278E+02 0.10888970460E+02 0.10273531306E+02 0.10507245010E+02
 0.11323564547E+02 0.13010225063E+02 0.15926520405E+02 0.20730052636E+02 0.28725694578E+02
 0.40018216532E+02 0.52953531080E+02 0.65424043242E+02 0.76699257383E+02 0.87569309751E+02
 0.98347380512E+02 0.10709342304E+03 0.11055067108E+03 0.10709342304E+03 0.98347380512E+02
 0.87569309751E+02 0.76699257383E+02 0.65424043242E+02 0.52953531080E+02 0.40018216532E+02
 0.28725694578E+02 0.20730052636E+02 0.15926520405E+02 0.13010225063E+02 0.11323564547E+02
 0.10507245010E+02 0.10247103675E+02 0.10477878422E+02 0.11293159094E+02 0.12999890513E+02
 0.15978628752E+02 0.20960853529E+02 0.29305772431E+02 0.41064114154E+02 0.54464095547E+02
 0.67321017329E+02 0.78958182485E+02 0.90298191825E+02 0.10168618645E+03 0.11099886250E+03
 0.11469164260E+03 0.11099886250E+03 0.10168618645E+03 0.90298191825E+02 0.78958182485E+02
 0.67321017329E+02 0.54464095547E+02 0.41064114154E+02 0.29305772431E+02 0.20960853529E+02
 0.15978628752E+02 0.12999890513E+02 0.11293159094E+02 0.10477878422E+02 0.10273531306E+02
 0.10507245010E+02 0.11323564547E+02 0.13010225063E+02 0.15926520405E+02 0.20730052636E+02
 0.28725694578E+02 0.40018216532E+02 0.52953531080E+02 0.65424043242E+02 0.76699257383E+02
 0.87569309751E+02 0.98347380512E+02 0.10709342304E+03 0.11055067108E+03 0.10709342304E+03
 0.98347380512E+02 0.87569309751E+02 0.76699257383E+02 0.65424043242E+02 0.52953531080E+02
 0.40018216532E+02 0.28725694578E+02 0.20730052636E+02 0.15926520405E+02 0.13010225063E+02
 0.11323564547E+02 0.10507245010E+02 0.10665694748E+02 0.10888970460E+02 0.11658347278E+02
 0.13223195623E+02 0.15901892114E+02 0.20182632110E+02 0.27202675083E+02 0.37211508486E+02
 0.48886341901E+02 0.60360673686E+02 0.70794050586E+02 0.80624050452E+02 0.90029004756E+02
 0.97471535256E+02 0.10038096264E+03 0.97471535256E+02 0.90029004756E+02 0.80624050452E+02
 0.70794050586E+02 0.60360673686E+02 0.48886341901E+02 0.37211508486E+02 0.27202675083E+02
 0.20182632110E+02 0.15901892114E+02 0.13223195623E+02 0.11658347278E+02 0.10888970460E+02
 0.11914810138E+02 0.12087415213E+02 0.12693011996E+02 0.13952841634E+02 0.16156278261E+02
 0.19642803029E+02 0.25262778018E+02 0.33448939385E+02 0.43357318423E+02 0.53530103878E+02
 0.63074125552E+02 0.71978020099E+02 0.80133329528E+02 0.86329251705E+02 0.88701090088E+02
 0.86329251705E+02 0.80133329528E+02 0.71978020099E+02 0.63074125552E+02 0.53530103878E+02
 0.43357318423E+02 0.33448939385E+02 0.25262778018E+02 0.19642803029E+02 0.16156278261E+02
 0.13952841634E+02 0.12693011996E+02 0.12087415213E+02 0.14272068998E+02 0.14349716443E+02
 0.14666085929E+02 0.15433786575E+02 0.16934912835E+02 0.19455348118E+02 0.23497914672E+02
 0.29618724283E+02 0.37491898958E+02 0.46183121935E+02 0.54888038995E+02 0.63210168829E+02
 0.70656847241E+02 0.76103852063E+02 0.78139866355E+02 0.76103852063E+02 0.70656847241E+02
 0.63210168829E+02 0.54888038995E+02 0.46183121935E+02 0.37491898958E+02 0.29618724283E+02
 0.23497914672E+02 0.19455348118E+02 0.16934912835E+02 0.15433786575E+02 0.14666085929E+02
 0.14349716443E+02 0.18214145939E+02 0.18144848102E+02 0.18025483615E+02 0.18085773012E+02
 0.18632657076E+02 0.19984620039E+02 0.22417085109E+02 0.26414669024E+02 0.32082194805E+02
 0.39000608090E+02 0.46582181384E+02 0.54230178777E+02 0.61133903193E+02 0.66107123145E+02
 0.67940173652E+02 0.66107123145E+02 0.61133903193E+02 0.54230178777E+02 0.46582181384E+02
 0.39000608090E+02 0.32082194805E+02 0.26414669024E+02 0.22417085109E+02 0.19984620039E+02
 0.18632657076E+02 0.18085773012E+02 0.18025483615E+02 0.18144848102E+02 0.25177809315E+02
 0.24752704504E+02 0.23714013037E+02 0.22586825885E+02 0.21819939113E+02 0.21664018654E+02
 0.22396764392E+02 0.24280328225E+02 0.27627426309E+02 0.32395827328E+02 0.38241286209E+02
 0.44566529571E+02 0.50456462912E+02 0.54727772791E+02 0.56300067732E+02 0.54727772791E+02
 0.50456462912E+02 0.44566529571E+02 0.38241286209E+02 0.32395827328E+02 0.27627426309E+02
 0.24280328225E+02 0.22396764392E+02 0.21664018654E+02 0.21819939113E+02 0.22586825885E+02
 0.23714013037E+02 0.24752704504E+02 0.39436290840E+02 0.38111723332E+02 0.34728217495E+02
 0.30638668247E+02 0.27116300404E+02 0.24793148554E+02 0.23596490942E+02 0.23419825923E+02
 0.24471927749E+02 0.26895757704E+02 0.30512208310E+02 0.34831671691E+02 0.39057618694E+02
 0.42192156961E+02 0.43355702146E+02 0.42192156961E+02 0.39057618694E+02 0.34831671691E+02
 0.30512208310E+02 0.26895757704E+02 0.24471927749E+02 0.23419825923E+02 0.23596490942E+02
 0.24793148554E+02 0.27116300404E+02 0.30638668247E+02 0.34728217495E+02 0.38111723332E+02
 0.63286094271E+02 0.60552997669E+02 0.53460062969E+02 0.44553944093E+02 0.36278606709E+02
 0.30009406363E+02 0.26021963114E+02 0.23751216874E+02 0.22729621649E+02 0.22997220331E+02
 0.24413796911E+02 0.26580820096E+02 0.28920297350E+02 0.30742466988E+02 0.31433960207E+02
 0.30742466988E+02 0.28920297350E+02 0.26580820096E+02 0.24413796911E+02 0.22997220331E+02
 0.22729621649E+02 0.23751216874E+02 0.26021963114E+02 0.30009406363E+02 0.36278606709E+02
 0.44553944093E+02 0.53460062969E+02 0.60552997669E+02 0.95043984476E+02 0.90630082320E+02
 0.79113066588E+02 0.64410206480E+02 0.50192759117E+02 0.38549543568E+02 0.30236481824E+02
 0.25127078278E+02 0.22147324172E+02 0.20678815446E+02 0.20415296312E+02 0.20896345659E+02
 0.21718122585E+02 0.22477199300E+02 0.22787695388E+02 0.22477199300E+02 0.21718122585E+02
 0.20896345659E+02 0.20415296312E+02 0.20678815446E+02 0.22147324172E+02 0.25127078278E+02
 0.30236481824E+02 0.38549543568E+02 0.50192759117E+02 0.64410206480E+02 0.79113066588E+02
 0.90630082320E+02 0.13194855549E+03 0.12575155254E+03 0.10960758523E+03 0.88929389474E+02
 0.68487444821E+02 0.50785770050E+02 0.36977991832E+02 0.27734787638E+02 0.22493196438E+02
 0.19465497524E+02 0.17980962767E+02 0.17425861374E+02 0.17372043140E+02 0.17543036899E+02
 0.17650234870E+02 0.17543036899E+02 0.17372043140E+02 0.17425861374E+02 0.17980962767E+02
 0.19465497524E+02 0.22493196438E+02 0.27734787638E+02 0.36977991832E+02 0.50785770050E+02
 0.68487444821E+02 0.88929389474E+02 0.10960758523E+03 0.12575155254E+03 0.17196177874E+03
 0.16387073182E+03 0.14293034323E+03 0.11629658416E+03 0.89778508989E+02 0.65927384151E+02
 0.46032834981E+02 0.31718596883E+02 0.23495948198E+02 0.19074669632E+02 0.16576598568E+02
 0.15263286328E+02 0.14683370162E+02 0.14582614886E+02 0.14615809825E+02 0.14582614886E+02
 0.14683370162E+02 0.15263286328E+02 0.16576598568E+02 0.19074669632E+02 0.23495948198E+02
 0.31718596883E+02 0.46032834981E+02 0.65927384151E+02 0.89778508989E+02 0.11629658416E+03
 0.14293034323E+03 0.16387073182E+03 0.21135254194E+03 0.20131596442E+03 0.17554611882E+03
 0.14315668964E+03 0.11103099375E+03 0.81545570801E+02 0.55839748222E+02 0.36383081777E+02
 0.24888609142E+02 0.19164472494E+02 0.15897792301E+02 0.14046098267E+02 0.13126281864E+02
 0.12884079522E+02 0.12891546762E+02 0.12884079522E+02 0.13126281864E+02 0.14046098267E+02
 0.15897792301E+02 0.19164472494E+02 0.24888609142E+02 0.36383081777E+02 0.55839748222E+02
 0.81545570801E+02 0.11103099375E+03 0.14315668964E+03 0.17554611882E+03 0.20131596442E+03
 0.24191275966E+03 0.23028618053E+03 0.20060783249E+03 0.16367376405E+03 0.12729483243E+03
 0.93657166890E+02 0.63638553871E+02 0.40255079644E+02 0.26151932307E+02 0.19394467470E+02
 0.15643934498E+02 0.13471173754E+02 0.12366996116E+02 0.12068305563E+02 0.12074658344E+02
 0.12068305563E+02 0.12366996116E+02 0.13471173754E+02 0.15643934498E+02 0.19394467470E+02
 0.26151932307E+02 0.40255079644E+02 0.63638553871E+02 0.93657166890E+02 0.12729483243E+03
 0.16367376405E+03 0.20060783249E+03 0.23028618053E+03 0.22065404566E+03 0.21022710962E+03
 0.18347465909E+03 0.14986474442E+03 0.11645146642E+03 0.85565728177E+02 0.58369778117E+02
 0.37596207743E+02 0.25267647780E+02 0.19230091029E+02 0.15811034289E+02 0.13854577111E+02
 0.12869303551E+02 0.12601689756E+02 0.12605540229E+02 0.12601689756E+02 0.12869303551E+02
 0.13854577111E+02 0.15811034289E+02 0.19230091029E+02 0.25267647780E+02 0.37596207743E+02
 0.58369778117E+02 0.85565728177E+02 0.11645146642E+03 0.14986474442E+03 0.18347465909E+03
 0.21022710962E+03 0.21155591647E+03 0.20157539979E+03 0.17591986600E+03 0.14359220382E+03
 0.11140880926E+03 0.81775306501E+02 0.55917694391E+02 0.36370830597E+02 0.24850401475E+02
 0.19126513185E+02 0.15858005560E+02 0.13997495554E+02 0.13064512588E+02 0.12810532434E+02
 0.12813272438E+02 0.12810532434E+02 0.13064512588E+02 0.13997495554E+02 0.15858005560E+02
 0.19126513185E+02 0.24850401475E+02 0.36370830597E+02 0.55917694391E+02 0.81775306501E+02
 0.11140880926E+03 0.14359220382E+03 0.17591986600E+03 0.20157539979E+03 0.18733351995E+03