   4   4   0   0
  0.1080677E+02  0.3509554E-09  0.3509554E-09  0.3509554E-09  0.5000000E-15
  1.000000000000000E-004
  CAR 
 unknown system                          
     33.98993324      0.59213225  301     14.70220010      1.00000000
      0.592  0.0000E+00  0.0000E+00
      0.703  0.0000E+00  0.0000E+00
      0.815  0.0000E+00  0.0000E+00
      0.926 -0.2319E-31 -0.2582E-32
      1.037 -0.1691E-27 -0.1883E-28
      1.149 -0.6601E-24 -0.7351E-25
      1.260 -0.1379E-20 -0.1535E-21
      1.371 -0.1538E-17 -0.1714E-18
      1.483 -0.8871E-15 -0.9893E-16
      1.594 -0.2794E-12 -0.3121E-13
      1.705 -0.4670E-10 -0.5230E-11
      1.817 -0.4126E-08 -0.4645E-09
      1.928 -0.1920E-06 -0.2184E-07
      2.039 -0.4693E-05 -0.5443E-06
      2.151 -0.6011E-04 -0.7236E-05
      2.262 -0.4022E-03 -0.5201E-04
      2.373 -0.1340E-02 -0.2012E-03
      2.485 -0.1226E-02 -0.3377E-03
      2.596  0.7657E-02  0.5148E-03
      2.707  0.3661E-01  0.4591E-02
      2.819  0.8087E-01  0.1359E-01
      2.930  0.1067E+00  0.2547E-01
      3.041  0.9536E-01  0.3608E-01
      3.153  0.1020E+00  0.4744E-01
      3.264  0.1803E+00  0.6752E-01
      3.375  0.2432E+00  0.9459E-01
      3.487  0.1836E+00  0.1150E+00
      3.598  0.1157E+00  0.1279E+00
      3.709  0.1863E+00  0.1487E+00
      3.821  0.2866E+00  0.1806E+00
      3.932  0.2978E+00  0.2137E+00
      4.043  0.2657E+00  0.2433E+00
      4.155  0.2574E+00  0.2720E+00
      4.266  0.3437E+00  0.3102E+00
      4.377  0.4176E+00  0.3567E+00
      4.489  0.3507E+00  0.3958E+00
      4.600  0.3031E+00  0.4295E+00
      4.711  0.4311E+00  0.4775E+00
      4.823  0.6964E+00  0.5550E+00
      4.934  0.8694E+00  0.6518E+00
      5.045  0.8791E+00  0.7497E+00
      5.156  0.7819E+00  0.8367E+00
      5.268  0.8025E+00  0.9261E+00
      5.379  0.1258E+01  0.1066E+01
      5.490  0.1701E+01  0.1255E+01
      5.602  0.1762E+01  0.1452E+01
      5.713  0.1899E+01  0.1663E+01
      5.824  0.2244E+01  0.1913E+01
      5.936  0.2436E+01  0.2184E+01
      6.047  0.2406E+01  0.2452E+01
      6.158  0.2609E+01  0.2742E+01
      6.270  0.3450E+01  0.3126E+01
      6.381  0.4356E+01  0.3611E+01
      6.492  0.4491E+01  0.4111E+01
      6.604  0.4196E+01  0.4578E+01
      6.715  0.4368E+01  0.5065E+01
      6.826  0.4909E+01  0.5611E+01
      6.938  0.5243E+01  0.6195E+01
      7.049  0.5134E+01  0.6766E+01
      7.160  0.4694E+01  0.7289E+01
      7.272  0.4378E+01  0.7776E+01
      7.383  0.4264E+01  0.8251E+01
      7.494  0.4291E+01  0.8729E+01
      7.606  0.4410E+01  0.9220E+01
      7.717  0.4134E+01  0.9680E+01
      7.828  0.3628E+01  0.1008E+02
      7.940  0.3432E+01  0.1047E+02
      8.051  0.3210E+01  0.1082E+02
      8.162  0.2910E+01  0.1115E+02
      8.274  0.2930E+01  0.1147E+02
      8.385  0.3086E+01  0.1182E+02
      8.496  0.3049E+01  0.1216E+02
      8.608  0.3042E+01  0.1250E+02
      8.719  0.3385E+01  0.1287E+02
      8.830  0.3877E+01  0.1330E+02
      8.942  0.4059E+01  0.1376E+02
      9.053  0.4162E+01  0.1422E+02
      9.164  0.4597E+01  0.1473E+02
      9.276  0.4885E+01  0.1527E+02
      9.387  0.4564E+01  0.1578E+02
      9.498  0.3989E+01  0.1623E+02
      9.610  0.3835E+01  0.1665E+02
      9.721  0.4160E+01  0.1712E+02
      9.832  0.4247E+01  0.1759E+02
      9.944  0.4150E+01  0.1805E+02
     10.055  0.4637E+01  0.1857E+02
     10.166  0.5791E+01  0.1921E+02
     10.277  0.7042E+01  0.2000E+02
     10.389  0.8066E+01  0.2089E+02
     10.500  0.8423E+01  0.2183E+02
     10.611  0.7662E+01  0.2268E+02
     10.723  0.6287E+01  0.2338E+02
     10.834  0.5348E+01  0.2398E+02
     10.945  0.5120E+01  0.2455E+02
     11.057  0.5152E+01  0.2512E+02
     11.168  0.5357E+01  0.2572E+02
     11.279  0.5629E+01  0.2635E+02
     11.391  0.5633E+01  0.2697E+02
     11.502  0.5868E+01  0.2763E+02
     11.613  0.6039E+01  0.2830E+02
     11.725  0.5236E+01  0.2888E+02
     11.836  0.4048E+01  0.2933E+02
     11.947  0.3603E+01  0.2973E+02
     12.059  0.3917E+01  0.3017E+02
     12.170  0.4015E+01  0.3062E+02
     12.281  0.3421E+01  0.3100E+02
     12.393  0.2837E+01  0.3131E+02
     12.504  0.2610E+01  0.3160E+02
     12.615  0.2446E+01  0.3188E+02
     12.727  0.2439E+01  0.3215E+02
     12.838  0.2684E+01  0.3245E+02
     12.949  0.3203E+01  0.3280E+02
     13.061  0.3923E+01  0.3324E+02
     13.172  0.4652E+01  0.3376E+02
     13.283  0.5294E+01  0.3435E+02
     13.395  0.5361E+01  0.3494E+02
     13.506  0.4718E+01  0.3547E+02
     13.617  0.4134E+01  0.3593E+02
     13.729  0.4079E+01  0.3638E+02
     13.840  0.4105E+01  0.3684E+02
     13.951  0.3717E+01  0.3725E+02
     14.063  0.3440E+01  0.3764E+02
     14.174  0.3834E+01  0.3806E+02
     14.285  0.4404E+01  0.3855E+02
     14.397  0.4394E+01  0.3904E+02
     14.508  0.3672E+01  0.3945E+02
     14.619  0.2912E+01  0.3978E+02
     14.731  0.2691E+01  0.4008E+02
     14.842  0.2730E+01  0.4038E+02
     14.953  0.2790E+01  0.4069E+02
     15.065  0.2822E+01  0.4101E+02
     15.176  0.2589E+01  0.4129E+02
     15.287  0.2263E+01  0.4155E+02
     15.398  0.2285E+01  0.4180E+02
     15.510  0.2492E+01  0.4208E+02
     15.621  0.2396E+01  0.4234E+02
     15.732  0.2017E+01  0.4257E+02
     15.844  0.1699E+01  0.4276E+02
     15.955  0.1492E+01  0.4292E+02
     16.066  0.1283E+01  0.4307E+02
     16.178  0.1231E+01  0.4320E+02
     16.289  0.1199E+01  0.4334E+02
     16.400  0.9385E+00  0.4344E+02
     16.512  0.7608E+00  0.4353E+02
     16.623  0.8490E+00  0.4362E+02
     16.734  0.9600E+00  0.4373E+02
     16.846  0.8672E+00  0.4382E+02
     16.957  0.6137E+00  0.4389E+02
     17.068  0.4317E+00  0.4394E+02
     17.180  0.4413E+00  0.4399E+02
     17.291  0.6142E+00  0.4406E+02
     17.402  0.7303E+00  0.4414E+02
     17.514  0.6190E+00  0.4421E+02
     17.625  0.4936E+00  0.4426E+02
     17.736  0.5169E+00  0.4432E+02
     17.848  0.5831E+00  0.4439E+02
     17.959  0.5773E+00  0.4445E+02
     18.070  0.5041E+00  0.4451E+02
     18.182  0.4992E+00  0.4456E+02
     18.293  0.7154E+00  0.4464E+02
     18.404  0.9142E+00  0.4474E+02
     18.516  0.7548E+00  0.4483E+02
     18.627  0.5650E+00  0.4489E+02
     18.738  0.6810E+00  0.4497E+02
     18.850  0.8937E+00  0.4507E+02
     18.961  0.1050E+01  0.4518E+02
     19.072  0.1208E+01  0.4532E+02
     19.184  0.1299E+01  0.4546E+02
     19.295  0.1193E+01  0.4559E+02
     19.406  0.1115E+01  0.4572E+02
     19.518  0.1182E+01  0.4585E+02
     19.629  0.1095E+01  0.4597E+02
     19.740  0.8204E+00  0.4606E+02
     19.852  0.5937E+00  0.4613E+02
     19.963  0.5271E+00  0.4619E+02
     20.074  0.6317E+00  0.4626E+02
     20.186  0.7625E+00  0.4634E+02
     20.297  0.8207E+00  0.4643E+02
     20.408  0.8505E+00  0.4653E+02
     20.519  0.1008E+01  0.4664E+02
     20.631  0.1219E+01  0.4678E+02
     20.742  0.1073E+01  0.4690E+02
     20.853  0.5876E+00  0.4696E+02
     20.965  0.2470E+00  0.4699E+02
     21.076  0.2953E+00  0.4702E+02
     21.187  0.5791E+00  0.4709E+02
     21.299  0.8948E+00  0.4719E+02
     21.410  0.9837E+00  0.4730E+02
     21.521  0.6945E+00  0.4737E+02
     21.633  0.3582E+00  0.4741E+02
     21.744  0.2069E+00  0.4744E+02
     21.855  0.2264E+00  0.4746E+02
     21.967  0.4286E+00  0.4751E+02
     22.078  0.5972E+00  0.4758E+02
     22.189  0.5883E+00  0.4764E+02
     22.301  0.5994E+00  0.4771E+02
     22.412  0.6710E+00  0.4778E+02
     22.523  0.6755E+00  0.4786E+02
     22.635  0.7090E+00  0.4794E+02
     22.746  0.8789E+00  0.4803E+02
     22.857  0.1082E+01  0.4815E+02
     22.969  0.1167E+01  0.4828E+02
     23.080  0.1147E+01  0.4841E+02
     23.191  0.1172E+01  0.4854E+02
     23.303  0.1260E+01  0.4868E+02
     23.414  0.1301E+01  0.4883E+02
     23.525  0.1345E+01  0.4898E+02
     23.637  0.1359E+01  0.4913E+02
     23.748  0.1260E+01  0.4927E+02
     23.859  0.1246E+01  0.4941E+02
     23.971  0.1320E+01  0.4955E+02
     24.082  0.1275E+01  0.4970E+02
     24.193  0.1078E+01  0.4982E+02
     24.305  0.8592E+00  0.4991E+02
     24.416  0.8232E+00  0.5000E+02
     24.527  0.1022E+01  0.5012E+02
     24.639  0.1174E+01  0.5025E+02
     24.750  0.1141E+01  0.5038E+02
     24.861  0.1042E+01  0.5049E+02
     24.973  0.9895E+00  0.5060E+02
     25.084  0.9965E+00  0.5071E+02
     25.195  0.1012E+01  0.5083E+02
     25.307  0.1008E+01  0.5094E+02
     25.418  0.9769E+00  0.5105E+02
     25.529  0.1085E+01  0.5117E+02
     25.640  0.1320E+01  0.5131E+02
     25.752  0.1332E+01  0.5146E+02
     25.863  0.1159E+01  0.5159E+02
     25.974  0.1278E+01  0.5173E+02
     26.086  0.1511E+01  0.5190E+02
     26.197  0.1321E+01  0.5205E+02
     26.308  0.9401E+00  0.5215E+02
     26.420  0.8431E+00  0.5225E+02
     26.531  0.9777E+00  0.5236E+02
     26.642  0.1119E+01  0.5248E+02
     26.754  0.1238E+01  0.5262E+02
     26.865  0.1374E+01  0.5277E+02
     26.976  0.1479E+01  0.5294E+02
     27.088  0.1426E+01  0.5309E+02
     27.199  0.1280E+01  0.5324E+02
     27.310  0.1168E+01  0.5337E+02
     27.422  0.1211E+01  0.5350E+02
     27.533  0.1570E+01  0.5368E+02
     27.644  0.1939E+01  0.5389E+02
     27.756  0.1830E+01  0.5410E+02
     27.867  0.1531E+01  0.5427E+02
     27.978  0.1527E+01  0.5444E+02
     28.090  0.1635E+01  0.5462E+02
     28.201  0.1545E+01  0.5479E+02
     28.312  0.1364E+01  0.5494E+02
     28.424  0.1365E+01  0.5509E+02
     28.535  0.1586E+01  0.5527E+02
     28.646  0.1800E+01  0.5547E+02
     28.758  0.1789E+01  0.5567E+02
     28.869  0.1617E+01  0.5585E+02
     28.980  0.1528E+01  0.5602E+02
     29.092  0.1637E+01  0.5620E+02
     29.203  0.1780E+01  0.5640E+02
     29.314  0.1766E+01  0.5660E+02
     29.426  0.1667E+01  0.5678E+02
     29.537  0.1607E+01  0.5696E+02
     29.648  0.1654E+01  0.5715E+02
     29.760  0.1706E+01  0.5734E+02
     29.871  0.1635E+01  0.5752E+02
     29.982  0.1449E+01  0.5768E+02
     30.094  0.1355E+01  0.5783E+02
     30.205  0.1354E+01  0.5798E+02
     30.316  0.1296E+01  0.5813E+02
     30.428  0.1300E+01  0.5827E+02
     30.539  0.1340E+01  0.5842E+02
     30.650  0.1319E+01  0.5857E+02
     30.761  0.1409E+01  0.5872E+02
     30.873  0.1604E+01  0.5890E+02
     30.984  0.1701E+01  0.5909E+02
     31.095  0.1698E+01  0.5928E+02
     31.207  0.1534E+01  0.5945E+02
     31.318  0.1123E+01  0.5958E+02
     31.429  0.6274E+00  0.5965E+02
     31.541  0.3472E+00  0.5968E+02
     31.652  0.4355E+00  0.5973E+02
     31.763  0.7491E+00  0.5982E+02
     31.875  0.8769E+00  0.5991E+02
     31.986  0.6016E+00  0.5998E+02
     32.097  0.2010E+00  0.6000E+02
     32.209 -0.5480E-03  0.6000E+02
     32.320 -0.2305E-01  0.6000E+02
     32.431 -0.7286E-02  0.6000E+02
     32.543 -0.1006E-02  0.6000E+02
     32.654 -0.7016E-04  0.6000E+02
     32.765 -0.2568E-05  0.6000E+02
     32.877 -0.4999E-07  0.6000E+02
     32.988 -0.5209E-09  0.6000E+02
     33.099 -0.2914E-11  0.6000E+02
     33.211 -0.8727E-14  0.6000E+02
     33.322 -0.2398E-16  0.6000E+02
     33.433  0.0000E+00  0.6000E+02
     33.545  0.0000E+00  0.6000E+02
     33.656  0.0000E+00  0.6000E+02
     33.767  0.0000E+00  0.6000E+02
     33.879  0.0000E+00  0.6000E+02
     33.990  0.0000E+00  0.6000E+02
