    4    4    1    1
  0.1080677E+02  0.3509554E-09  0.3509554E-09  0.3509554E-09  0.5000000E-15
  1.000000000000000E-004
  CAR 
 unknown system                          
     40    216     30
 
  0.0000000E+00  0.0000000E+00  0.0000000E+00  0.7513148E-03
    1        2.592132   1.000000
    2        4.509804   1.000000
    3        5.933495   1.000000
    4        5.995581   1.000000
    5        6.047816   1.000000
    6        6.210870   1.000000
    7        6.260698   1.000000
    8       10.006979   1.000000
    9       10.024597   1.000000
   10       10.200998   1.000000
   11       11.980232   1.000000
   12       12.191772   1.000000
   13       13.275235   1.000000
   14       13.555899   1.000000
   15       13.765552   1.000000
   16       14.780528   0.195069
   17       15.079670  -0.011307
   18       15.366761  -0.000014
   19       15.749582  -0.000000
   20       16.494793  -0.000000
   21       16.626314  -0.000000
   22       16.629902  -0.000000
   23       16.677489  -0.000000
   24       17.435529  -0.000000
   25       26.617585   0.000000
   26       26.871325   0.000000
   27       27.042005   0.000000
   28       27.042507   0.000000
   29       27.348530   0.000000
   30       28.914979   0.000000
 
  0.9090909E-01  0.0000000E+00  0.0000000E+00  0.1502630E-02
    1        2.722685   1.000000
    2        4.609100   1.000000
    3        6.006385   1.000000
    4        6.046698   1.000000
    5        6.141045   1.000000
    6        6.301124   1.000000
    7        6.361750   1.000000
    8        9.942467   1.000000
    9       10.061787   1.000000
   10       10.258053   1.000000
   11       11.986970   1.000000
   12       12.121855   1.000000
   13       13.271502   1.000000
   14       13.363835   1.000000
   15       13.402597   1.000000
   16       14.057733   1.000026
   17       15.013773  -0.025016
   18       15.052030  -0.016460
   19       15.603930  -0.000000
   20       15.698546  -0.000000
   21       16.188841  -0.000000
   22       17.435266  -0.000000
   23       17.611697  -0.000000
   24       17.712186  -0.000000
   25       26.127164   0.000000
   26       26.840783   0.000000
   27       27.209048   0.000000
   28       27.476923   0.000000
   29       27.592085   0.000000
   30       29.404185   0.000000
 
  0.0000000E+00  0.9090909E-01  0.0000000E+00  0.1502630E-02
    1        2.737983   1.000000
    2        4.617224   1.000000
    3        5.993358   1.000000
    4        6.096782   1.000000
    5        6.097354   1.000000
    6        6.301873   1.000000
    7        6.364468   1.000000
    8       10.067219   1.000000
    9       10.083170   1.000000
   10       10.128465   1.000000
   11       11.921245   1.000000
   12       12.207846   1.000000
   13       13.020439   1.000000
   14       13.428130   1.000000
   15       13.520883   1.000000
   16       14.762190   0.258377
   17       14.808593   0.112854
   18       15.361210  -0.000016
   19       15.498791  -0.000000
   20       15.562969  -0.000000
   21       15.930101  -0.000000
   22       16.231532  -0.000000
   23       17.844370  -0.000000
   24       18.261639  -0.000000
   25       26.098927   0.000000
   26       26.825400   0.000000
   27       27.212183   0.000000
   28       27.236634   0.000000
   29       28.065462   0.000000
   30       29.138011   0.000000
 
  0.0000000E+00  0.0000000E+00  0.9090909E-01  0.1502630E-02
    1        2.739559   1.000000
    2        4.620099   1.000000
    3        6.043833   1.000000
    4        6.098098   1.000000
    5        6.143136   1.000000
    6        6.268421   1.000000
    7        6.306550   1.000000
    8        9.921120   1.000000
    9       10.077800   1.000000
   10       10.258118   1.000000
   11       11.944864   1.000000
   12       12.175265   1.000000
   13       13.001177   1.000000
   14       13.450633   1.000000
   15       13.756315   1.000000
   16       14.208116   1.001320
   17       14.800035   0.135906
   18       14.958074  -0.035031
   19       15.515848  -0.000000
   20       15.963978  -0.000000
   21       16.269517  -0.000000
   22       16.489167  -0.000000
   23       17.666514  -0.000000
   24       18.202213  -0.000000
   25       25.825321   0.000000
   26       26.836224   0.000000
   27       27.271940   0.000000
   28       27.501109   0.000000
   29       28.069046   0.000000
   30       29.103962   0.000000
 
  0.1818182E+00  0.0000000E+00  0.0000000E+00  0.1502630E-02
    1        3.099115   1.000000
    2        4.894982   1.000000
    3        6.193384   1.000000
    4        6.194601   1.000000
    5        6.416381   1.000000
    6        6.566065   1.000000
    7        6.668692   1.000000
    8        9.704527   1.000000
    9       10.213017   1.000000
   10       10.419456   1.000000
   11       11.865359   1.000000
   12       12.061878   1.000000
   13       12.470477   1.000000
   14       12.795915   1.000000
   15       12.971310   1.000000
   16       13.258485   1.000000
   17       14.554591   0.972457
   18       14.626509   0.796264
   19       14.943595  -0.035408
   20       15.056107  -0.015630
   21       15.467715  -0.000000
   22       17.434231  -0.000000
   23       19.089582  -0.000000
   24       19.112988  -0.000000
   25       25.337740   0.000000
   26       26.744077   0.000000
   27       27.456791   0.000000
   28       27.567582   0.000000
   29       28.781426   0.000000
   30       28.967304   0.000000
 
  0.0000000E+00  0.1818182E+00  0.0000000E+00  0.1502630E-02
    1        3.163220   1.000000
    2        4.925268   1.000000
    3        6.140055   1.000000
    4        6.237624   1.000000
    5        6.393806   1.000000
    6        6.567795   1.000000
    7        6.683833   1.000000
    8        9.915925   1.000000
    9       10.242526   1.000000
   10       10.253306   1.000000
   11       11.748638   1.000000
   12       12.257423   1.000000
   13       12.363916   1.000000
   14       12.598565   1.000000
   15       13.400435   1.000000
   16       14.047027   1.000018
   17       14.598037   0.881315
   18       14.710761   0.463813
   19       14.921811  -0.032539
   20       15.036169  -0.019880
   21       15.301667  -0.000095
   22       15.348533  -0.000024
   23       19.278628  -0.000000
   24       19.482523  -0.000000
   25       25.224305   0.000000
   26       27.214607   0.000000
   27       27.377671   0.000000
   28       27.469370   0.000000
   29       28.497447   0.000000
   30       29.146300   0.000000
 
  0.0000000E+00  0.0000000E+00  0.1818182E+00  0.1502630E-02
    1        3.170237   1.000000
    2        4.938383   1.000000
    3        6.349378   1.000000
    4        6.400337   1.000000
    5        6.424811   1.000000
    6        6.434415   1.000000
    7        6.440882   1.000000
    8        9.670462   1.000000
    9       10.225228   1.000000
   10       10.420842   1.000000
   11       11.783785   1.000000
   12       12.187164   1.000000
   13       12.315500   1.000000
   14       12.910900   1.000000
   15       13.103260   1.000000
   16       13.729586   1.000000
   17       14.287365   1.006245
   18       14.650517   0.710801
   19       14.712824   0.455114
   20       15.031002  -0.021045
   21       15.452106  -0.000001
   22       16.473521  -0.000000
   23       19.220786  -0.000000
   24       19.400939  -0.000000
   25       24.832624   0.000000
   26       27.280463   0.000000
   27       27.572450   0.000000
   28       27.651442   0.000000
   29       28.763122   0.000000
   30       28.911964   0.000000
 
  0.2727273E+00  0.0000000E+00  0.0000000E+00  0.1502630E-02
    1        3.668192   1.000000
    2        5.327018   1.000000
    3        6.417791   1.000000
    4        6.436060   1.000000
    5        6.866460   1.000000
    6        6.995143   1.000000
    7        7.153424   1.000000
    8        9.362052   1.000000
    9       10.407112   1.000000
   10       10.678373   1.000000
   11       11.509997   1.000000
   12       11.534446   1.000000
   13       11.544998   1.000000
   14       12.112840   1.000000
   15       12.363242   1.000000
   16       13.244507   1.000000
   17       13.386432   1.000000
   18       13.925286   1.000000
   19       14.169251   1.000538
   20       14.482689   1.032514
   21       15.168872  -0.002360
   22       17.433175  -0.000000
   23       20.582549   0.000000
   24       20.702359   0.000000
   25       24.667655   0.000000
   26       26.582941   0.000000
   27       27.184551   0.000000
   28       27.269717   0.000000
   29       27.992533   0.000000
   30       29.911770   0.000000
 
  0.0000000E+00  0.2727273E+00  0.0000000E+00  0.1502630E-02
    1        3.826042   1.000000
    2        5.383876   1.000000
    3        6.305234   1.000000
    4        6.448852   1.000000
    5        6.868948   1.000000
    6        6.994465   1.000000
    7        7.197354   1.000000
    8        9.609004   1.000000
    9       10.532508   1.000000
   10       10.538278   1.000000
   11       11.486512   1.000000
   12       11.503871   1.000000
   13       11.597772   1.000000
   14       12.315241   1.000000
   15       12.807244   1.000000
   16       13.343158   1.000000
   17       13.746154   1.000000
   18       13.921068   1.000000
   19       14.167618   1.000517
   20       14.383745   1.023423
   21       14.647759   0.721169
   22       15.336542  -0.000035
   23       20.800478   0.000000
   24       20.815835   0.000000
   25       24.562922   0.000000
   26       27.005983   0.000000
   27       27.178031   0.000000
   28       27.311802   0.000000
   29       28.702720   0.000000
   30       28.907370   0.000000
 
  0.0000000E+00  0.0000000E+00  0.2727273E+00  0.1502630E-02
    1        3.845065   1.000000
    2        5.417743   1.000000
    3        6.558362   1.000000
    4        6.697082   1.000000
    5        6.855220   1.000000
    6        6.886860   1.000000
    7        6.889561   1.000000
    8        9.296979   1.000000
    9       10.418914   1.000000
   10       10.684080   1.000000
   11       11.486892   1.000000
   12       11.488059   1.000000
   13       11.626114   1.000000
   14       12.247873   1.000000
   15       12.509801   1.000000
   16       13.387755   1.000000
   17       13.657810   1.000000
   18       13.698890   1.000000
   19       14.086629   1.000060
   20       14.288778   1.006398
   21       14.745222   0.322548
   22       16.455538  -0.000000
   23       20.733868   0.000000
   24       20.848916   0.000000
   25       24.096577   0.000000
   26       27.084951   0.000000
   27       27.334771   0.000000
   28       27.714076   0.000000
   29       28.333453   0.000000
   30       29.259126   0.000000
 
  0.3636364E+00  0.0000000E+00  0.0000000E+00  0.1502630E-02
    1        4.309260   1.000000
    2        5.817358   1.000000
    3        6.654579   1.000000
    4        6.676978   1.000000
    5        7.474730   1.000000
    6        7.565181   1.000000
    7        7.701834   1.000000
    8        8.996225   1.000000
    9       10.160562   1.000000
   10       10.385819   1.000000
   11       11.013315   1.000000
   12       11.097943   1.000000
   13       11.142084   1.000000
   14       11.750705   1.000000
   15       12.092040   1.000000
   16       12.217084   1.000000
   17       13.232747   1.000000
   18       13.287493   1.000000
   19       13.435693   1.000000
   20       13.843922   1.000000
   21       15.036647  -0.019773
   22       17.432478  -0.000000
   23       22.103941   0.000000
   24       22.280391   0.000000
   25       24.211278   0.000000
   26       26.343851   0.000000
   27       26.361402   0.000000
   28       26.546955   0.000000
   29       27.389589   0.000000
   30       30.502390   0.000000
 
  0.0000000E+00  0.3636364E+00  0.0000000E+00  0.1502630E-02
    1        4.634884   1.000000
    2        5.882900   1.000000
    3        6.397923   1.000000
    4        6.684633   1.000000
    5        7.480416   1.000000
    6        7.544686   1.000000
    7        7.806145   1.000000
    8        9.283535   1.000000
    9       10.589195   1.000000
   10       10.601770   1.000000
   11       10.943246   1.000000
   12       10.956178   1.000000
   13       11.178468   1.000000
   14       11.720720   1.000000
   15       12.266783   1.000000
   16       12.935510   1.000000
   17       12.997668   1.000000
   18       13.058277   1.000000
   19       13.258604   1.000000
   20       13.749707   1.000000
   21       14.594272   0.891088
   22       15.328359  -0.000044
   23       22.202622   0.000000
   24       22.352866   0.000000
   25       24.135582   0.000000
   26       26.136469   0.000000
   27       26.456706   0.000000
   28       27.080588   0.000000
   29       28.560624   0.000000
   30       28.982611   0.000000
 
  0.0000000E+00  0.0000000E+00  0.3636364E+00  0.1502630E-02
    1        4.681712   1.000000
    2        5.930672   1.000000
    3        6.643719   1.000000
    4        7.024066   1.000000
    5        7.384571   1.000000
    6        7.516553   1.000000
    7        7.542186   1.000000
    8        8.867991   1.000000
    9       10.173755   1.000000
   10       10.417434   1.000000
   11       11.057402   1.000000
   12       11.115231   1.000000
   13       11.129986   1.000000
   14       11.808548   1.000000
   15       12.130802   1.000000
   16       12.375131   1.000000
   17       13.001456   1.000000
   18       13.218149   1.000000
   19       13.644493   1.000000
   20       13.673689   1.000000
   21       14.406778   1.028659
   22       16.441030  -0.000000
   23       22.129308   0.000000
   24       22.480785   0.000000
   25       23.626723   0.000000
   26       26.152396   0.000000
   27       26.658937   0.000000
   28       27.652441   0.000000
   29       27.905232   0.000000
   30       29.534647   0.000000
 
  0.4545455E+00  0.0000000E+00  0.0000000E+00  0.1502630E-02
    1        4.781055   1.000000
    2        6.195015   1.000000
    3        6.762351   1.000000
    4        6.875708   1.000000
    5        8.105607   1.000000
    6        8.169230   1.000000
    7        8.187463   1.000000
    8        8.739149   1.000000
    9        9.415189   1.000000
   10        9.415276   1.000000
   11       10.877210   1.000000
   12       11.122712   1.000000
   13       11.316979   1.000000
   14       11.318977   1.000000
   15       11.538176   1.000000
   16       12.234200   1.000000
   17       12.813473   1.000000
   18       12.905307   1.000000
   19       13.227229   1.000000
   20       13.370789   1.000000
   21       14.977227  -0.032642
   22       17.432476  -0.000000
   23       23.515030   0.000000
   24       23.692212   0.000000
   25       23.983978   0.000000
   26       25.253778   0.000000
   27       25.534378   0.000000
   28       26.180928   0.000000
   29       27.146482   0.000000
   30       30.730575   0.000000
 
  0.0000000E+00  0.4545455E+00  0.0000000E+00  0.1502630E-02
    1        5.375452   1.000000
    2        6.166666   1.000000
    3        6.363535   1.000000
    4        6.856440   1.000000
    5        8.080801   1.000000
    6        8.081451   1.000000
    7        8.287771   1.000000
    8        9.060980   1.000000
    9        9.829220   1.000000
   10        9.854288   1.000000
   11       10.787949   1.000000
   12       11.156367   1.000000
   13       11.433958   1.000000
   14       11.447667   1.000000
   15       12.028991   1.000000
   16       12.218258   1.000000
   17       12.232609   1.000000
   18       12.592309   1.000000
   19       13.048741   1.000000
   20       13.434649   1.000000
   21       14.566258   0.952590
   22       15.324819  -0.000049
   23       23.563832   0.000000
   24       23.869043   0.000000
   25       23.928045   0.000000
   26       24.998108   0.000000
   27       25.292700   0.000000
   28       26.945927   0.000000
   29       28.453116   0.000000
   30       29.033230   0.000000
 
  0.0000000E+00  0.0000000E+00  0.4545455E+00  0.1502630E-02
    1        5.517673   1.000000
    2        6.062655   1.000000
    3        6.705057   1.000000
    4        7.318287   1.000000
    5        7.769369   1.000000
    6        8.266473   1.000000
    7        8.294000   1.000000
    8        8.516203   1.000000
    9        9.353648   1.000000
   10        9.390715   1.000000
   11       10.812936   1.000000
   12       11.106543   1.000000
   13       11.422765   1.000000
   14       11.427137   1.000000
   15       11.631668   1.000000
   16       12.442392   1.000000
   17       12.463076   1.000000
   18       12.556438   1.000000
   19       13.090306   1.000000
   20       13.661531   1.000000
   21       14.293747   1.006957
   22       16.434361  -0.000000
   23       23.400802   0.000000
   24       23.497979   0.000000
   25       24.052022   0.000000
   26       24.987610   0.000000
   27       25.496176   0.000000
   28       27.606723   0.000000
   29       27.680008   0.000000
   30       29.648463   0.000000
 
  0.9090909E-01  0.9090909E-01  0.0000000E+00  0.3005259E-02
    1        2.866626   1.000000
    2        4.715224   1.000000
    3        6.071880   1.000000
    4        6.132685   1.000000
    5        6.202808   1.000000
    6        6.355064   1.000000
    7        6.492128   1.000000
    8        9.948548   1.000000
    9       10.112374   1.000000
   10       10.232609   1.000000
   11       11.925930   1.000000
   12       12.139471   1.000000
   13       12.947830   1.000000
   14       13.058269   1.000000
   15       13.386956   1.000000
   16       14.155031   1.000379
   17       14.693784   0.535579
   18       14.859800   0.013087
   19       15.019385  -0.023717
   20       15.444249  -0.000001
   21       16.456421  -0.000000
   22       16.842351  -0.000000
   23       17.715284  -0.000000
   24       18.649972  -0.000000
   25       25.966307   0.000000
   26       26.610969   0.000000
   27       27.413839   0.000000
   28       27.639230   0.000000
   29       28.064787   0.000000
   30       29.197177   0.000000
 
  0.0000000E+00  0.9090909E-01  0.9090909E-01  0.3005259E-02
    1        2.880741   1.000000
    2        4.726329   1.000000
    3        6.079397   1.000000
    4        6.182923   1.000000
    5        6.210966   1.000000
    6        6.365255   1.000000
    7        6.420752   1.000000
    8        9.931235   1.000000
    9       10.126139   1.000000
   10       10.230084   1.000000
   11       11.897235   1.000000
   12       12.180746   1.000000
   13       12.757855   1.000000
   14       13.288949   1.000000
   15       13.449244   1.000000
   16       14.356093   1.017237
   17       14.689298   0.554467
   18       14.763104   0.255063
   19       14.989505  -0.030364
   20       15.377655  -0.000010
   21       15.970049  -0.000000
   22       16.764236  -0.000000
   23       18.324103  -0.000000
   24       18.400232  -0.000000
   25       25.982151   0.000000
   26       26.402284   0.000000
   27       27.061857   0.000000
   28       27.812880   0.000000
   29       28.845139   0.000000
   30       29.023610   0.000000
 
  0.9090909E-01  0.0000000E+00  0.9090909E-01  0.3005259E-02
    1        2.867893   1.000000
    2        4.718230   1.000000
    3        6.092966   1.000000
    4        6.141921   1.000000
    5        6.250956   1.000000
    6        6.362533   1.000000
    7        6.413501   1.000000
    8        9.864551   1.000000
    9       10.103204   1.000000
   10       10.305143   1.000000
   11       11.959960   1.000000
   12       12.098284   1.000000
   13       12.874639   1.000000
   14       13.309745   1.000000
   15       13.518538   1.000000
   16       13.820736   1.000000
   17       14.021955   1.000008
   18       14.922632  -0.032739
   19       15.529881  -0.000000
   20       15.574020  -0.000000
   21       16.697264  -0.000000
   22       17.044381  -0.000000
   23       17.322177  -0.000000
   24       18.630130  -0.000000
   25       25.798519   0.000000
   26       26.584959   0.000000
   27       27.592053   0.000000
   28       27.679387   0.000000
   29       28.130511   0.000000
   30       29.209237   0.000000
 
  0.1818182E+00  0.9090909E-01  0.0000000E+00  0.3005259E-02
    1        3.238014   1.000000
    2        4.997811   1.000000
    3        6.274762   1.000000
    4        6.275676   1.000000
    5        6.478402   1.000000
    6        6.576627   1.000000
    7        6.816920   1.000000
    8        9.695502   1.000000
    9       10.240685   1.000000
   10       10.413156   1.000000
   11       11.846689   1.000000
   12       12.008166   1.000000
   13       12.266485   1.000000
   14       12.471630   1.000000
   15       12.979312   1.000000
   16       13.425943   1.000000
   17       13.770982   1.000000
   18       14.533886   0.999932
   19       14.673572   0.619769
   20       15.098370  -0.008501
   21       16.287355  -0.000000
   22       16.804189  -0.000000
   23       18.672129  -0.000000
   24       19.735177  -0.000000
   25       25.261749   0.000000
   26       26.603359   0.000000
   27       27.430525   0.000000
   28       27.756584   0.000000
   29       28.763766   0.000000
   30       29.239965   0.000000
 
  0.0000000E+00  0.1818182E+00  0.9090909E-01  0.3005259E-02
    1        3.292961   1.000000
    2        5.031100   1.000000
    3        6.218341   1.000000
    4        6.312306   1.000000
    5        6.480360   1.000000
    6        6.636659   1.000000
    7        6.770553   1.000000
    8        9.831506   1.000000
    9       10.276164   1.000000
   10       10.295772   1.000000
   11       11.742600   1.000000
   12       12.070549   1.000000
   13       12.325542   1.000000
   14       12.444644   1.000000
   15       13.348733   1.000000
   16       13.654400   1.000000
   17       14.213793   1.001494
   18       14.263594   1.004081
   19       14.640864   0.746498
   20       14.896068  -0.021645
   21       15.410519  -0.000003
   22       16.221252  -0.000000
   23       19.192868  -0.000000
   24       19.673799  -0.000000
   25       25.207771   0.000000
   26       26.473832   0.000000
   27       27.501368   0.000000
   28       27.848320   0.000000
   29       28.776201   0.000000
   30       29.350699   0.000000
 
  0.9090909E-01  0.0000000E+00  0.1818182E+00  0.3005259E-02
    1        3.292165   1.000000
    2        5.033497   1.000000
    3        6.344867   1.000000
    4        6.403796   1.000000
    5        6.516651   1.000000
    6        6.565548   1.000000
    7        6.611345   1.000000
    8        9.623122   1.000000
    9       10.246329   1.000000
   10       10.447331   1.000000
   11       11.795491   1.000000
   12       12.097431   1.000000
   13       12.200686   1.000000
   14       12.691448   1.000000
   15       13.015591   1.000000
   16       13.231729   1.000000
   17       13.572871   1.000000
   18       14.644690   0.732549
   19       14.996331  -0.028938
   20       15.145908  -0.003707
   21       16.051740  -0.000000
   22       16.265758  -0.000000
   23       18.729383  -0.000000
   24       19.804135  -0.000000
   25       24.861122   0.000000
   26       26.922060   0.000000
   27       27.861614   0.000000
   28       28.033365   0.000000
   29       28.330920   0.000000
   30       29.017262   0.000000
 
 -0.9090909E-01  0.1818182E+00  0.0000000E+00  0.3005259E-02
    1        3.286498   1.000000
    2        5.019861   1.000000
    3        6.229960   1.000000
    4        6.305707   1.000000
    5        6.463640   1.000000
    6        6.584047   1.000000
    7        6.826747   1.000000
    8        9.838993   1.000000
    9       10.265389   1.000000
   10       10.303178   1.000000
   11       11.753578   1.000000
   12       12.104218   1.000000
   13       12.261180   1.000000
   14       12.443084   1.000000
   15       13.255282   1.000000
   16       13.543208   1.000000
   17       14.191321   1.000905
   18       14.355921   1.017201
   19       14.869465   0.001234
   20       14.984162  -0.031408
   21       15.555019  -0.000000
   22       16.081756  -0.000000
   23       18.865257  -0.000000
   24       19.856123  -0.000000
   25       25.137238   0.000000
   26       26.856599   0.000000
   27       27.660831   0.000000
   28       28.016777   0.000000
   29       28.306922   0.000000
   30       28.901112   0.000000
 
 -0.1818182E+00  0.0000000E+00  0.9090909E-01  0.3005259E-02
    1        3.238385   1.000000
    2        5.001161   1.000000
    3        6.263939   1.000000
    4        6.278501   1.000000
    5        6.509548   1.000000
    6        6.633998   1.000000
    7        6.747549   1.000000
    8        9.647804   1.000000
    9       10.238861   1.000000
   10       10.446278   1.000000
   11       11.872774   1.000000
   12       11.999970   1.000000
   13       12.283707   1.000000
   14       12.553840   1.000000
   15       12.926935   1.000000
   16       13.284074   1.000000
   17       13.393788   1.000000
   18       14.725431   0.402432
   19       14.900785  -0.024377
   20       15.312412  -0.000070
   21       16.170851  -0.000000
   22       16.854363  -0.000000
   23       18.598301  -0.000000
   24       19.695527  -0.000000
   25       25.242516   0.000000
   26       26.574265   0.000000
   27       27.408136   0.000000
   28       27.882863   0.000000
   29       28.719581   0.000000
   30       29.257478   0.000000
 
  0.0000000E+00  0.9090909E-01  0.1818182E+00  0.3005259E-02
    1        3.298299   1.000000
    2        5.041231   1.000000
    3        6.349887   1.000000
    4        6.418048   1.000000
    5        6.461621   1.000000
    6        6.572600   1.000000
    7        6.637103   1.000000
    8        9.663415   1.000000
    9       10.252554   1.000000
   10       10.413166   1.000000
   11       11.769086   1.000000
   12       12.050089   1.000000
   13       12.241680   1.000000
   14       12.599239   1.000000
   15       13.140092   1.000000
   16       13.767160   1.000000
   17       13.801321   1.000000
   18       14.303452   1.008158
   19       14.506051   1.023012
   20       14.836332   0.050790
   21       16.128142  -0.000000
   22       16.289155  -0.000000
   23       19.127917  -0.000000
   24       19.663678  -0.000000
   25       24.913665   0.000000
   26       26.655455   0.000000
   27       27.562766   0.000000
   28       27.827535   0.000000
   29       28.818722   0.000000
   30       29.614216   0.000000
 
  0.2727273E+00  0.9090909E-01  0.0000000E+00  0.3005259E-02
    1        3.801124   1.000000
    2        5.426014   1.000000
    3        6.499097   1.000000
    4        6.525738   1.000000
    5        6.923056   1.000000
    6        6.978181   1.000000
    7        7.291743   1.000000
    8        9.349964   1.000000
    9       10.370842   1.000000
   10       10.675722   1.000000
   11       11.308514   1.000000
   12       11.443910   1.000000
   13       11.545359   1.000000
   14       12.051639   1.000000
   15       12.403222   1.000000
   16       12.784609   1.000000
   17       13.213455   1.000000
   18       13.938693   1.000000
   19       14.150818   1.000341
   20       14.756005   0.281212
   21       15.437444  -0.000001
   22       16.926243  -0.000000
   23       20.010402  -0.000000
   24       21.162345   0.000000
   25       24.541441   0.000000
   26       26.200690   0.000000
   27       26.886905   0.000000
   28       27.609321   0.000000
   29       29.145786   0.000000
   30       30.131758   0.000000
 
  0.0000000E+00  0.2727273E+00  0.9090909E-01  0.3005259E-02
    1        3.937676   1.000000
    2        5.485863   1.000000
    3        6.389218   1.000000
    4        6.517927   1.000000
    5        6.907616   1.000000
    6        7.058163   1.000000
    7        7.307283   1.000000
    8        9.559720   1.000000
    9       10.504593   1.000000
   10       10.550160   1.000000
   11       11.309715   1.000000
   12       11.500338   1.000000
   13       11.532394   1.000000
   14       12.294936   1.000000
   15       12.397437   1.000000
   16       13.261931   1.000000
   17       13.429685   1.000000
   18       13.657274   1.000000
   19       14.185693   1.000795
   20       14.571532   0.942516
   21       15.207610  -0.001025
   22       15.212285  -0.000922
   23       20.368089   0.000000
   24       21.109221   0.000000
   25       24.456604   0.000000
   26       26.130416   0.000000
   27       27.476176   0.000000
   28       27.804174   0.000000
   29       28.858276   0.000000
   30       29.660784   0.000000
 
  0.9090909E-01  0.0000000E+00  0.2727273E+00  0.3005259E-02
    1        3.957312   1.000000
    2        5.510117   1.000000
    3        6.632943   1.000000
    4        6.724783   1.000000
    5        6.821493   1.000000
    6        6.989369   1.000000
    7        7.086412   1.000000
    8        9.255960   1.000000
    9       10.441330   1.000000
   10       10.656587   1.000000
   11       11.323145   1.000000
   12       11.423007   1.000000
   13       11.550043   1.000000
   14       12.156499   1.000000
   15       12.382693   1.000000
   16       12.620309   1.000000
   17       13.562346   1.000000
   18       14.115396   1.000134
   19       14.170169   1.000550
   20       14.677223   0.604780
   21       14.825965   0.071718
   22       16.157392  -0.000000
   23       20.243067   0.000000
   24       21.093622   0.000000
   25       24.127062   0.000000
   26       26.531524   0.000000
   27       27.405498   0.000000
   28       28.007192   0.000000
   29       28.763258   0.000000
   30       29.450353   0.000000
 
 -0.9090909E-01  0.2727273E+00  0.0000000E+00  0.3005259E-02
    1        3.941740   1.000000
    2        5.474977   1.000000
    3        6.402660   1.000000
    4        6.520822   1.000000
    5        6.927853   1.000000
    6        6.989300   1.000000
    7        7.329489   1.000000