       N       E                     dE             d eps       ncg     rms          rms(c)
DAV:   1     0.234039157936E+03    0.23404E+03   -0.11942E+04 13806   0.998E+02
DAV:   2    -0.976802004323E+01   -0.24381E+03   -0.23023E+03 13676   0.289E+02
DAV:   3    -0.210110493769E+02   -0.11243E+02   -0.10970E+02 15022   0.722E+01
DAV:   4    -0.212816978198E+02   -0.27065E+00   -0.27040E+00 16292   0.108E+01
DAV:   5    -0.212937457247E+02   -0.12048E-01   -0.12047E-01 18330   0.220E+00    0.423E+01
DAV:   6    -0.216293938191E+02   -0.33565E+00   -0.28184E+01 15430   0.141E+02    0.212E+01
DAV:   7    -0.194172563563E+02    0.22121E+01   -0.10333E+01 16240   0.136E+02    0.161E+01
DAV:   8    -0.190422432844E+02    0.37501E+00   -0.19899E+00 16872   0.369E+01    0.208E+00
DAV:   9    -0.190099136296E+02    0.32330E-01   -0.23280E-01 20424   0.936E+00    0.198E+00
DAV:  10    -0.190036641390E+02    0.62495E-02   -0.28067E-02 20062   0.260E+00    0.529E-01
DAV:  11    -0.190021778295E+02    0.14863E-02   -0.98631E-03 16396   0.330E+00    0.175E-01
DAV:  12    -0.190019707944E+02    0.20704E-03   -0.58165E-04 20032   0.365E-01    0.124E-01
DAV:  13    -0.190018106834E+02    0.16011E-03   -0.50297E-04 16876   0.927E-01    0.300E-02
DAV:  14    -0.190017997034E+02    0.10980E-04   -0.11336E-04 18438   0.354E-01    0.214E-02
DAV:  15    -0.190017956678E+02    0.40356E-05   -0.18994E-05 15874   0.158E-01    0.442E-03
DAV:  16    -0.190017953562E+02    0.31165E-06   -0.22964E-06 10916   0.532E-02
   1 F= -.19001795E+02 E0= -.19002628E+02  d E =0.249667E-02
