unknown system                          
   1.00000000000000     
     2.330000    0.000000    0.000000
    -1.165000    2.017839    0.000000
     0.000000    0.000000    4.100000
   Fe
     2
Direct
  0.000000  0.000000  0.000000
  0.333333  0.666667  0.500000
 
   20   20   36
  161.82      153.32      130.43      99.650      68.327      42.110      23.875      13.798      9.8682      8.8012    
  8.4729      8.8014      9.8684      13.798      23.875      42.109      68.327      99.651      130.43      153.32    
  153.32      153.32      137.66      111.01      80.357      52.195      30.698      17.308      11.028      9.0934    
  8.4682      8.4677      9.0928      11.029      17.308      30.697      52.194      80.360      111.02      137.67    
  130.44      137.64      130.43      111.01      84.810      58.122      35.872      20.615      12.441      9.4047    
  8.4904      8.1814      8.4891      9.4043      12.442      20.615      35.869      58.119      84.812      111.01    
  99.647      110.94      110.94      99.651      80.356      58.121      37.803      22.624      13.621      9.7497    
  8.5280      7.9757      7.9752      8.5273      9.7502      13.623      22.624      37.800      58.116      80.350    
  68.315      80.258      84.678      80.266      68.326      52.194      35.872      22.624      14.081      9.9899    
  8.5629      7.8547      7.6110      7.8548      8.5629      9.9907      14.084      22.628      35.873      52.188    
  42.108      52.116      57.982      57.985      52.120      42.108      30.698      20.616      13.622      9.9901    
  8.5772      7.8023      7.4051      7.4056      7.8026      8.5760      9.9895      13.625      20.623      30.704    
  23.884      30.675      35.798      37.703      35.794      30.667      23.875      17.309      12.442      9.7501    
  8.5631      7.8023      7.3399      7.1903      7.3409      7.8017      8.5595      9.7462      12.442      17.314    
  13.798      17.325      20.624      22.613      22.610      20.616      17.320      13.799      11.029      9.4051    
  8.5281      7.8547      7.4050      7.1902      7.1910      7.4064      7.8544      8.5240      9.3977      11.022    
  9.8591      11.055      12.494      13.684      14.145      13.682      12.495      11.062      9.8689      9.0934    
  8.4900      7.9754      7.6108      7.4053      7.3407      7.4063      7.6137      7.9789      8.4899      9.0871    
  8.8010      9.1256      9.4704      9.8439      10.100      10.102      9.8484      9.4773      9.1312      8.8008    
  8.4673      8.1808      7.9750      7.8547      7.8024      7.8015      7.8543      7.9790      8.1887      8.4738    
  8.4814      8.5138      8.5688      8.6363      8.6950      8.7199      8.6984      8.6397      8.5677      8.5070    
  8.4720      8.4670      8.4892      8.5276      8.5631      8.5760      8.5595      8.5242      8.4904      8.4739    
  8.8009      8.5137      8.2697      8.0993      8.0065      7.9718      7.9727      8.0068      8.0953      8.2619    
  8.5074      8.8009      9.0930      9.4050      9.7508      9.9909      9.9895      9.7463      9.3981      9.0874    
  9.8590      9.1253      8.5686      8.0992      7.7724      7.5929      7.5376      7.5921      7.7697      8.0957    
  8.5685      9.1316      9.8689      11.030      12.443      13.623      14.084      13.625      12.442      11.023    
  13.798      11.055      9.4702      8.6360      8.0064      7.5930      7.3981      7.3973      7.5918      8.0068    
  8.6400      9.4773      11.062      13.799      17.309      20.615      22.624      22.627      20.623      17.314    
  23.884      17.326      12.494      9.8436      8.6949      7.9722      7.5381      7.3974      7.5369      7.9726    
  8.6984      9.8477      12.494      17.320      23.875      30.696      35.869      37.799      35.872      30.704    
  42.108      30.675      20.624      13.685      10.100      8.7200      7.9731      7.5923      7.5917      7.9727    
  8.7211      10.101      13.681      20.617      30.669      42.108      52.193      58.119      58.116      52.188    
  68.315      52.115      35.798      22.614      14.145      10.101      8.6983      8.0068      7.7697      8.0069    
  8.6984      10.101      14.142      22.610      35.798      52.121      68.326      80.360      84.814      80.351    
  99.647      80.257      57.982      37.704      22.610      13.682      9.8477      8.6394      8.0955      8.0960    
  8.6400      9.8472      13.681      22.610      37.707      57.988      80.263      99.651      111.02      111.02    
  130.44      110.94      84.677      57.985      35.795      20.616      12.494      9.4767      8.5679      8.2624    
  8.5688      9.4769      12.494      20.616      35.798      57.988      84.674      110.93      130.43      137.67    
  153.32      137.64      110.94      80.266      52.121      30.668      17.320      11.061      9.1310      8.5076    
  8.5082      9.1317      11.061      17.319      30.669      52.123      80.263      110.93      137.63      153.32    
  153.66      145.62      123.95      94.740      64.966      40.043      22.768      13.310      9.6811      8.6710    
  8.3495      8.6711      9.6813      13.310      22.768      40.042      64.966      94.740      123.95      145.62    
  145.63      145.62      130.80      105.52      76.396      49.614      29.207      16.577      10.734      8.9504    
  8.3382      8.3377      8.9498      10.735      16.578      29.206      49.613      76.398      105.53      130.81    
  123.96      130.78      123.95      105.52      80.626      55.242      34.101      19.673      12.027      9.2322    
  8.3555      8.0544      8.3543      9.2317      12.028      19.673      34.098      55.239      80.628      105.52    
  94.736      105.46      105.47      94.741      76.395      55.242      35.929      21.559      13.114      9.5388    
  8.3898      7.8524      7.8519      8.3891      9.5393      13.116      21.559      35.926      55.236      76.389    
  64.955      76.320      80.526      76.328      64.964      49.613      34.101      21.559      13.540      9.7530    
  8.4228      7.7341      7.4986      7.7342      8.4228      9.7537      13.542      21.563      34.102      49.608    
  40.041      49.562      55.147      55.150      49.566      40.041      29.206      19.674      13.115      9.7533    
  8.4364      7.6831      7.2997      7.3002      7.6834      8.4354      9.7526      13.118      19.681      29.212    
  22.776      29.209      34.074      35.885      34.070      29.202      22.768      16.578      12.028      9.5394    
  8.4230      7.6831      7.2369      7.0931      7.2379      7.6825      8.4196      9.5356      12.028      16.583    
  13.310      16.617      19.724      21.604      21.601      19.717      16.612      13.311      10.735      9.2326    
  8.3899      7.7340      7.2995      7.0929      7.0937      7.3009      7.7338      8.3860      9.2257      10.729    
  9.6726      10.780      12.117      13.228      13.658      13.226      12.118      10.786      9.6819      8.9504    
  8.3551      7.8520      7.4983      7.2999      7.2377      7.3008      7.5010      7.8553      8.3550      8.9444    
  8.6707      8.9987      9.3292      9.6764      9.9134      9.9148      9.6807      9.3357      9.0039      8.6705    
  8.3372      8.0538      7.8517      7.7341      7.6832      7.6824      7.7337      7.8555      8.0613      8.3434    
  8.3574      8.3979      8.4616      8.5367      8.6003      8.6268      8.6036      8.5398      8.4605      8.3914    
  8.3483      8.3368      8.3543      8.3895      8.4230      8.4354      8.4196      8.3863      8.3555      8.3435    
  8.6706      8.3977      8.1688      8.0114      7.9275      7.8972      7.8980      7.9278      8.0075      8.1614    
  8.3918      8.6705      8.9501      9.2326      9.5399      9.7540      9.7527      9.5357      9.2261      8.9447    
  9.6725      8.9984      8.4614      8.0112      7.6998      7.5297      7.4776      7.5290      7.6973      8.0079    
  8.4613      9.0043      9.6819      10.736      12.029      13.116      13.542      13.118      12.028      10.729    
  13.310      10.780      9.3289      8.5364      7.9274      7.5299      7.3430      7.3423      7.5287      7.9278    
  8.5401      9.3357      10.786      13.311      16.578      19.673      21.559      21.562      19.680      16.583    
  22.776      16.617      12.117      9.6762      8.6002      7.8976      7.4780      7.3424      7.4768      7.8979    
  8.6036      9.6801      12.117      16.611      22.768      29.205      34.097      35.925      34.101      29.212    
  40.041      29.209      19.725      13.228      9.9135      8.6270      7.8984      7.5292      7.5287      7.8979    
  8.6279      9.9141      13.225      19.718      29.203      40.041      49.612      55.239      55.237      49.608    
  64.955      49.562      34.074      21.605      13.658      9.9145      8.6033      7.9278      7.6974      7.9279    
  8.6035      9.9138      13.656      21.601      34.073      49.567      64.964      76.398      80.629      76.390    
  94.736      76.319      55.147      35.885      21.601      13.225      9.6799      8.5394      8.0077      8.0082    
  8.5401      9.6795      13.224      21.601      35.888      55.152      76.325      94.741      105.53      105.53    
  123.96      105.46      80.524      55.150      34.071      19.717      12.117      9.3350      8.4606      8.1620    
  8.4616      9.3353      12.116      19.717      34.074      55.153      80.522      105.46      123.95      130.81    
  145.63      130.78      105.46      76.328      49.567      29.203      16.611      10.785      9.0037      8.3921    
  8.3926      9.0044      10.785      16.611      29.204      49.569      76.325      105.46      130.77      145.62    
  131.57      124.75      106.31      81.336      55.779      34.420      19.801      12.036      9.1949      8.3137    
  8.0136      8.3139      9.1950      12.036      19.801      34.420      55.779      81.336      106.31      124.75    
  124.75      124.75      112.14      90.549      65.569      42.573      25.177      14.643      9.9740      8.5561    
  7.9823      7.9818      8.5555      9.9743      14.644      25.176      42.572      65.571      90.555      112.15    
  106.32      112.14      106.31      90.550      69.192      47.378      29.296      17.159      10.950      8.7742    
  7.9836      7.7063      7.9824      8.7736      10.950      17.159      29.294      47.375      69.192      90.554    
  81.333      90.537      90.539      81.337      65.569      47.377      30.839      18.706      11.786      8.9871    
  8.0061      7.5128      7.5122      8.0053      8.9873      11.787      18.706      30.838      47.373      65.564    
  55.771      65.559      69.181      65.566      55.778      42.571      29.295      18.706      12.117      9.1356    
  8.0315      7.4004      7.1880      7.4004      8.0315      9.1360      12.119      18.709      29.297      42.567    
  34.419      42.596      47.406      47.408      42.599      34.418      25.176      17.159      11.787      9.1359    
  8.0426      7.3519      7.0077      7.0082      7.3524      8.0418      9.1352      11.789      17.165      25.181    
  19.807      25.250      29.399      30.949      29.396      25.243      19.800      14.644      10.951      8.9879    
  8.0318      7.3519      6.9509      6.8230      6.9519      7.3516      8.0290      8.9845      10.950      14.648    
  12.036      14.743      17.329      18.906      18.903      17.323      14.740      12.038      9.9753      8.7749    
  8.0062      7.4002      7.0073      6.8228      6.8235      7.0086      7.4000      8.0029      8.7688      9.9696    
  9.1879      10.073      11.142      12.040      12.391      12.039      11.143      10.079      9.1958      8.5562    
  7.9831      7.5123      7.1876      7.0077      6.9516      7.0085      7.1898      7.5150      7.9831      8.5512    
  8.3135      8.6514      8.9622      9.2506      9.4414      9.4425      9.2542      8.9676      8.6557      8.3131    
  7.9810      7.7053      7.5119      7.4003      7.3522      7.3515      7.4000      7.5152      7.7119      7.9864    
  8.0200      8.0839      8.1720      8.2679      8.3450      8.3759      8.3477      8.2704      8.1709      8.0782    
  8.0120      7.9807      7.9824      8.0058      8.0318      8.0418      8.0290      8.0033      7.9836      7.9866    
  8.3134      8.0837      7.8989      7.7791      7.7213      7.7037      7.7044      7.7215      7.7758      7.8925    
  8.0785      8.3131      8.5559      8.7748      8.9883      9.1364      9.1352      8.9847      8.7693      8.5515    
  9.1878      8.6510      8.1717      7.7789      7.5130      7.3706      7.3276      7.3701      7.5110      7.7762    
  8.1716      8.6560      9.1959      9.9757      10.952      11.788      12.119      11.789      10.950      9.9697    
  12.036      10.073      8.9618      8.2675      7.7212      7.3708      7.2080      7.2074      7.3697      7.7215    
  8.2707      8.9677      10.078      12.038      14.644      17.159      18.706      18.708      17.165      14.648    
  19.807      14.744      11.142      9.2504      8.3449      7.7040      7.3281      7.2075      7.3269      7.7042    
  8.3477      9.2538      11.143      14.739      19.800      25.175      29.293      30.837      29.296      25.181    
  34.419      25.250      17.329      12.041      9.4414      8.3761      7.7048      7.3704      7.3699      7.7042    
  8.3768      9.4421      12.038      17.323      25.244      34.418      42.570      47.375      47.374      42.568    
  55.771      42.596      29.399      18.907      12.391      9.4422      8.3474      7.7216      7.5113      7.7216    
  8.3475      9.4417      12.389      18.904      29.398      42.600      55.778      65.571      69.194      65.565    
  81.333      65.558      47.405      30.950      18.904      12.039      9.2532      8.2699      7.7762      7.7767    
  8.2706      9.2530      12.038      18.904      30.952      47.410      65.563      81.337      90.558      90.556    
  106.32      90.535      69.179      47.408      29.397      17.323      11.142      8.9666      8.1710      7.8934    
  8.1720      8.9670      11.142      17.323      29.399      47.411      69.178      90.531      106.31      112.15    
  124.75      112.13      90.536      65.565      42.600      25.245      14.739      10.077      8.6553      8.0791    
  8.0797      8.6560      10.077      14.739      25.245      42.601      65.564      90.530      112.13      124.75    
  101.49      96.280      82.142      62.890      43.148      26.789      15.903      10.450      8.5709      7.8141    
  7.5506      7.8143      8.5711      10.450      15.903      26.789      43.148      62.890      82.142      96.280    
  96.283      96.280      86.610      69.976      50.662      32.944      19.791      12.171      9.0355      7.9941    
  7.4873      7.4868      7.9935      9.0358      12.171      19.791      32.943      50.662      69.980      86.614    
  82.146      86.629      82.144      69.977      53.445      36.595      22.819      13.890      9.6113      8.1544    
  7.4599      7.2208      7.4587      8.1538      9.6121      13.890      22.818      36.593      53.444      69.979    
  62.888      70.022      70.023      62.891      50.661      36.594      23.962      14.967      10.121      8.2753    
  7.4587      7.0354      7.0349      7.4578      8.2753      10.122      14.967      23.961      36.591      50.658    
  43.142      50.742      53.557      50.746      43.147      32.942      22.818      14.967      10.327      8.3511    
  7.4681      6.9268      6.7490      6.9269      7.4680      8.3513      10.329      14.969      22.820      32.940    
  26.788      33.072      36.792      36.793      33.073      26.787      19.789      13.890      10.122      8.3516    
  7.4735      6.8792      6.5917      6.5922      6.8798      7.4730      8.3509      10.124      13.894      19.794    
  15.907      19.961      23.102      24.283      23.099      19.956      15.903      12.171      9.6128      8.2764    
  7.4685      6.8792      6.5424      6.4366      6.5433      6.8792      7.4665      8.2736      9.6121      12.174    
  10.450      12.356      14.224      15.382      15.380      14.221      12.354      10.452      9.0372      8.1553    
  7.4589      6.9266      6.5913      6.4363      6.4368      6.5922      6.9265      7.4564      8.1506      9.0325    
  8.5661      9.2108      9.9515      10.576      10.821      10.575      9.9528      9.2156      8.5721      7.9943    
  7.4593      7.0347      6.7483      6.5917      6.5430      6.5921      6.7499      7.0367      7.4593      7.9906    
  7.8140      8.1593      8.4772      8.7247      8.8712      8.8721      8.7274      8.4812      8.1624      7.8134    
  7.4857      7.2196      7.0344      6.9267      6.8796      6.8791      6.9265      7.0369      7.2247      7.4901    
  7.5550      7.6528      7.7736      7.8959      7.9897      8.0259      7.9916      7.8976      7.7724      7.6482    
  7.5487      7.4855      7.4586      7.4585      7.4685      7.4731      7.4665      7.4568      7.4599      7.4902    
  7.8139      7.6526      7.5340      7.4690      7.4483      7.4486      7.4492      7.4485      7.4665      7.5291    
  7.6485      7.8134      7.9940      8.1552      8.2766      8.3517      8.3508      8.2738      8.1511      7.9909    
  8.5660      8.1589      7.7732      7.4688      7.2709      7.1694      7.1397      7.1691      7.2695      7.4668    
  7.7730      8.1626      8.5722      9.0376      9.6134      10.123      10.328      10.123      9.6119      9.0326    
  10.450      9.2107      8.4768      7.8956      7.4482      7.1695      7.0427      7.0423      7.1687      7.4483    
  7.8980      8.4813      9.2152      10.452      12.172      13.890      14.966      14.968      13.893      12.174    
  15.908      12.356      9.9516      8.7245      7.9895      7.4489      7.1402      7.0425      7.1391      7.4488    
  7.9916      8.7273      9.9522      12.354      15.903      19.789      22.817      23.960      22.819      19.794    
  26.789      19.961      14.225      10.576      8.8713      8.0259      7.4495      7.1695      7.1690      7.4488    
  8.0263      8.8720      10.575      14.221      19.957      26.787      32.942      36.592      36.592      32.941    
  43.142      33.071      23.102      15.383      10.822      8.8717      7.9911      7.4485      7.2699      7.4486    
  7.9912      8.8715      10.820      15.380      23.101      33.073      43.147      50.663      53.446      50.659    
  62.888      50.741      36.791      24.284      15.381      10.575      8.7262      7.8970      7.4670      7.4674    
  7.8977      8.7262      10.574      15.380      24.285      36.794      50.744      62.891      69.982      69.981    
  82.146      70.019      53.555      36.793      23.100      14.221      9.9516      8.4800      7.7726      7.5302    
  7.7736      8.4804      9.9508      14.220      23.102      36.795      53.556      70.017      82.144      86.616    
  96.283      86.627      70.020      50.746      33.074      19.958      12.354      9.2140      8.1619      7.6494    
  7.6499      8.1626      9.2138      12.353      19.958      33.075      50.745      70.017      86.622      96.280    
  70.369      66.778      57.007      43.685      30.114      19.137      12.217      9.0565      7.9113      7.2724    
  7.0576      7.2725      7.9114      9.0565      12.217      19.137      30.114      43.685      57.007      66.778    
  66.780      66.779      60.085      48.551      35.200      23.144      14.544      9.9302      8.1766      7.3715    
  6.9561      6.9557      7.3710      8.1769      9.9311      14.544      23.144      35.199      48.552      60.086    
  57.010      60.125      57.009      48.552      37.091      25.552      16.412      10.850      8.4258      7.4642    
  6.8898      6.6989      6.8888      7.4636      8.4266      10.851      16.412      25.551      37.089      48.552    
  43.684      48.654      48.655      43.686      35.199      25.552      17.126      11.446      8.6438      7.5322    
  6.8537      6.5167      6.5162      6.8529      7.5320      8.6445      11.447      17.126      25.550      35.196    
  30.111      35.370      37.327      35.372      30.113      23.142      16.411      11.446      8.7339      7.5673    
  6.8383      6.4060      6.2677      6.4061      6.8382      7.5672      8.7345      11.448      16.412      23.142    
  19.136      23.375      25.918      25.918      23.374      19.134      14.542      10.851      8.6448      7.5678    
  6.8347      6.3554      6.1310      6.1314      6.3560      6.8344      7.5671      8.6453      10.853      14.546    
  12.220      14.811      16.873      17.658      16.871      14.808      12.217      9.9311      8.4274      7.5333    
  6.8388      6.3553      6.0879      6.0052      6.0887      6.3556      6.8375      7.5313      8.4266      9.9325    
  9.0561      10.203      11.352      12.078      12.077      11.350      10.202      9.0579      8.1783      7.4652    
  6.8539      6.4057      6.1305      6.0049      6.0052      6.1312      6.4057      6.8523      7.4621      8.1750    
  7.9085      8.4330      8.9202      9.3064      9.4566      9.3065      8.9217      8.4365      7.9125      7.3717    
  6.8892      6.5159      6.2670      6.1309      6.0884      6.1311      6.2679      6.5172      6.8893      7.3694    
  7.2723      7.6132      7.9337      8.1827      8.3187      8.3193      8.1846      7.9363      7.6150      7.2716    
  6.9545      6.6976      6.5157      6.4059      6.3559      6.3555      6.4058      6.5174      6.7010      6.9575    
  7.0600      7.1928      7.3428      7.4859      7.5912      7.6306      7.5923      7.4868      7.3418      7.1895    
  7.0557      6.9543      6.8887      6.8536      6.8388      6.8346      6.8376      6.8527      6.8898      6.9577    
  7.2722      7.1926      7.1475      7.1393      7.1551      7.1722      7.1725      7.1551      7.1376      7.1441    
  7.1897      7.2717      7.3715      7.4651      7.5332      7.5677      7.5671      7.5314      7.4625      7.3697    
  7.9084      7.6128      7.3424      7.1391      7.0150      6.9562      6.9402      6.9561      7.0142      7.1378    
  7.3422      7.6152      7.9125      8.1787      8.4279      8.6449      8.7341      8.6448      8.4263      8.1750    
  9.0562      8.4329      7.9334      7.4856      7.1549      6.9563      6.8685      6.8682      6.9557      7.1550    
  7.4871      7.9364      8.4362      9.0579      9.9317      10.851      11.446      11.447      10.852      9.9322    
  12.220      10.203      8.9204      8.1826      7.5910      7.1724      6.9406      6.8684      6.9397      7.1721    
  7.5923      8.1846      8.9212      10.202      12.217      14.542      16.410      17.125      16.412      14.546    
  19.137      14.811      11.353      9.3069      8.3187      7.6305      7.1727      6.9565      6.9561      7.1721    
  7.6307      8.3194      9.3064      11.350      14.808      19.134      23.142      25.551      25.551      23.143    
  30.111      23.374      16.873      12.079      9.4570      8.3188      7.5917      7.1552      7.0147      7.1553    
  7.5919      8.3189      9.4564      12.077      16.872      23.374      30.113      35.200      37.092      35.198    
  43.684      35.368      25.917      17.658      12.078      9.3060      8.1833      7.4862      7.1382      7.1386    
  7.4869      8.1834      9.3055      12.077      17.659      25.919      35.371      43.686      48.555      48.554    
  57.010      48.652      37.325      25.918      16.872      11.351      8.9204      7.9349      7.3420      7.1454    
  7.3428      7.9353      8.9197      11.350      16.873      25.920      37.326      48.652      57.009      60.088    
  66.780      60.123      48.652      35.371      23.376      14.810      10.202      8.4349      7.6145      7.1908    
  7.1912      7.6150      8.4346      10.201      14.809      23.376      35.372      48.652      60.122      66.779    
  43.778      41.564      35.556      27.438      19.366      13.164      9.5948      8.0829      7.2704      6.7739    
  6.6125      6.7740      7.2705      8.0829      9.5948      13.164      19.366      27.438      35.556      41.564    
  41.565      41.565      37.430      30.348      22.289      15.287      10.643      8.4030      7.4268      6.7871    
  6.4735      6.4732      6.7868      7.4271      8.4039      10.644      15.286      22.288      30.347      37.429    
  35.557      37.486      35.557      30.348      23.388      16.596      11.530      8.7344      7.5386      6.8030    
  6.3650      6.2240      6.3643      6.8026      7.5392      8.7354      11.530      16.595      23.386      30.347    
  27.437      30.492      30.493      27.438      22.288      16.595      11.877      8.9583      7.6010      6.8141    
  6.2888      6.0396      6.0393      6.2882      6.8138      7.6013      8.9588      11.877      16.594      22.287    
  19.365      22.525      23.714      22.525      19.365      15.285      11.529      8.9584      7.6226      6.8190    
  6.2441      5.9209      5.8200      5.9210      6.2440      6.8187      7.6226      8.9591      11.530      15.286    
  13.164      15.592      17.084      17.084      15.591      13.162      10.642      8.7347      7.6018      6.8195    
  6.2296      5.8636      5.6969      5.6972      5.8640      6.2295      6.8188      7.6017      8.7360      10.644    
  9.5957      10.983      12.123      12.564      12.122      10.982      9.5942      8.4037      7.5399      6.8150    
  6.2445      5.8635      5.6575      5.5942      5.6580      5.8638      6.2439      6.8138      7.5392      8.4042    
  8.0826      8.7446      9.3662      9.7574      9.7571      9.3658      8.7449      8.0841      7.4282      6.8039    
  6.2890      5.9207      5.6965      5.5940      5.5942      5.6968      5.9207      6.2882      6.8022      7.4262    
  7.2692      7.7523      8.1617      8.4350      8.5328      8.4354      8.1630      7.7546      7.2715      6.7874    
  6.3645      6.0389      5.8194      5.6968      5.6578      5.6968      5.8198      6.0396      6.3646      6.7862    
  6.7738      7.0970      7.4020      7.6411      7.7727      7.7730      7.6422      7.4034      7.0978      6.7733    
  6.4722      6.2230      6.0388      5.9208      5.8640      5.8638      5.9208      6.0397      6.2249      6.4740    
  6.6135      6.7756      6.9452      7.0987      7.2074      7.2471      7.2078      7.0989      6.9445      6.7736    
  6.6109      6.4721      6.3641      6.2887      6.2445      6.2297      6.2440      6.2885      6.3650      6.4741    
  6.7737      6.7754      6.7981      6.8384      6.8828      6.9121      6.9123      6.8827      6.8374      6.7962    
  6.7738      6.7733      6.7872      6.8038      6.8149      6.8192      6.8189      6.8139      6.8025      6.7864    
  7.2692      7.0968      6.9450      6.8383      6.7803      6.7578      6.7531      6.7578      6.7799      6.8376    
  6.9448      7.0980      7.2715      7.4285      7.5403      7.6017      7.6224      7.6013      7.5389      7.4262    
  8.0826      7.7523      7.4019      7.0984      6.8826      6.7579      6.7047      6.7045      6.7576      6.8826    
  7.0992      7.4035      7.7543      8.0841      8.4043      8.7351      8.9581      8.9583      8.7354      8.4039    
  9.5958      8.7449      8.1619      7.6411      7.2072      6.9122      6.7534      6.7047      6.7528      6.9118    
  7.2078      7.6424      8.1627      8.7443      9.5942      10.642      11.528      11.876      11.530      10.644    
  13.164      10.983      9.3667      8.4354      7.7727      7.2469      6.9124      6.7583      6.7579      6.9119    
  7.2470      7.7733      8.4355      9.3655      10.981      13.162      15.285      16.595      16.595      15.286    
  19.365      15.592      12.123      9.7582      8.5331      7.7726      7.2073      6.8829      6.7805      6.8829    
  7.2075      7.7728      8.5330      9.7574      12.122      15.591      19.365      22.288      23.388      22.288    
  27.437      22.524      17.083      12.564      9.7579      8.4350      7.6411      7.0984      6.8380      6.8383    
  7.0990      7.6413      8.4347      9.7574      12.564      17.084      22.525      27.438      30.349      30.349    
  35.557      30.490      23.712      17.084      12.123      9.3661      8.1619      7.4023      6.9447      6.7973    
  6.9452      7.4026      8.1614      9.3652      12.123      17.085      23.714      30.492      35.557      37.431    
  41.565      37.484      30.491      22.525      15.593      10.983      8.7446      7.7532      7.0974      6.7747    
  6.7750      7.0977      7.7529      8.7437      10.982      15.593      22.526      30.492      37.484      41.565    
  24.774      23.599      20.443      16.295      12.382      9.6298      8.1795      7.3451      6.7308      6.3768    
  6.2647      6.3768      6.7308      7.3451      8.1795      9.6299      12.382      16.295      20.443      23.598    
  23.599      23.599      21.405      17.719      13.691      10.433      8.4807      7.4888      6.7769      6.3101    
  6.0907      6.0905      6.3099      6.7771      7.4895      8.4813      10.433      13.690      17.718      21.403    
  20.443      21.467      20.444      17.719      14.194      10.952      8.7433      7.5743      6.8059      6.2538    