unknown system                          
   1.00000000000000     
     2.330000    0.000000    0.000000
    -1.165000    2.017839    0.000000
     0.000000    0.000000    4.100000
   Fe
     2
Direct
  0.000000  0.000000  0.000000
  0.333333  0.666667  0.500000
 
   20   20   36
 0.16181856828E+03 0.15331798366E+03 0.13043251280E+03 0.99650431569E+02 0.68326908851E+02
 0.42109527053E+02 0.23875225898E+02 0.13798249086E+02 0.98682424633E+01 0.88012332608E+01
 0.84729497696E+01 0.88014122115E+01 0.98683864584E+01 0.13798196225E+02 0.23875056766E+02
 0.42109446543E+02 0.68326990650E+02 0.99650556694E+02 0.13043255293E+03 0.15331795748E+03
 0.15332366007E+03 0.15331846380E+03 0.13766185724E+03 0.11100680915E+03 0.80356939715E+02
 0.52195243896E+02 0.30698300203E+02 0.17307837015E+02 0.11028245947E+02 0.90934114032E+01
 0.84681900995E+01 0.84676693664E+01 0.90927815455E+01 0.11028591897E+02 0.17308171711E+02
 0.30697003945E+02 0.52193707042E+02 0.80359623316E+02 0.11101601610E+03 0.13767321587E+03
 0.13044100236E+03 0.13763967637E+03 0.13043376753E+03 0.11100711916E+03 0.84810496352E+02
 0.58122017144E+02 0.35872491600E+02 0.20615438260E+02 0.12441271581E+02 0.94047413355E+01
 0.84904031049E+01 0.81813944568E+01 0.84891363692E+01 0.94043023137E+01 0.12442167218E+02
 0.20615188837E+02 0.35869388079E+02 0.58118925694E+02 0.84812465289E+02 0.11101476417E+03
 0.99646793084E+02 0.11093935895E+03 0.11094085119E+03 0.99651081700E+02 0.80356222249E+02
 0.58121368895E+02 0.37802701833E+02 0.22623971830E+02 0.13621114896E+02 0.97497297291E+01
 0.85280228202E+01 0.79756801724E+01 0.79751535901E+01 0.85273266835E+01 0.97502338259E+01
 0.13622517528E+02 0.22624124536E+02 0.37799760201E+02 0.58115734783E+02 0.80350157124E+02
 0.68315079631E+02 0.80257600679E+02 0.84677784896E+02 0.80266347628E+02 0.68325834183E+02
 0.52193709098E+02 0.35871998005E+02 0.22624141091E+02 0.14081259748E+02 0.99898814879E+01
 0.85629161816E+01 0.78546883013E+01 0.76110374546E+01 0.78547579519E+01 0.85629449481E+01
 0.99906558821E+01 0.14083963530E+02 0.22627888144E+02 0.35872849666E+02 0.52188004459E+02
 0.42108250499E+02 0.52115638032E+02 0.57982383554E+02 0.57985002401E+02 0.52119959165E+02
 0.42108011668E+02 0.30697663100E+02 0.20615914737E+02 0.13621627600E+02 0.99900647826E+01
 0.85771843097E+01 0.78023120185E+01 0.74051127860E+01 0.74056103128E+01 0.78026078850E+01
 0.85760465216E+01 0.99894598379E+01 0.13625085093E+02 0.20623339401E+02 0.30703902572E+02
 0.23883506198E+02 0.30674750204E+02 0.35798112736E+02 0.37703096299E+02 0.35794189407E+02
 0.30667323536E+02 0.23874932726E+02 0.17308538308E+02 0.12442129858E+02 0.97501405898E+01
 0.85630888631E+01 0.78023313435E+01 0.73398894123E+01 0.71902828501E+01 0.73408966927E+01
 0.78017032159E+01 0.85594833610E+01 0.97461788418E+01 0.12442167218E+02 0.17314165669E+02
 0.13797801431E+02 0.17325258215E+02 0.20623640188E+02 0.22613458278E+02 0.22609824395E+02
 0.20615876540E+02 0.17319904212E+02 0.13799060010E+02 0.11029142809E+02 0.94050656708E+01
 0.85280539427E+01 0.78546582161E+01 0.74049507941E+01 0.71901516562E+01 0.71909690197E+01
 0.74064115626E+01 0.78543631575E+01 0.85239578691E+01 0.93977425886E+01 0.11022494520E+02
 0.98591246484E+01 0.11055086963E+02 0.12494474851E+02 0.13684450558E+02 0.14144549539E+02
 0.13682428214E+02 0.12495277225E+02 0.11061904324E+02 0.98688543201E+01 0.90933874033E+01
 0.84899815603E+01 0.79754226931E+01 0.76108247199E+01 0.74053455885E+01 0.73407017908E+01
 0.74063088302E+01 0.76136866632E+01 0.79789171991E+01 0.84899487477E+01 0.90870789629E+01
 0.88010112493E+01 0.91255780312E+01 0.94704318062E+01 0.98438783720E+01 0.10100110426E+02
 0.10101506711E+02 0.98483785583E+01 0.94773204554E+01 0.91311758458E+01 0.88008269813E+01
 0.84673183452E+01 0.81808309040E+01 0.79750217310E+01 0.78546520484E+01 0.78024409304E+01
 0.78015169364E+01 0.78542873392E+01 0.79790428193E+01 0.81887499386E+01 0.84737729110E+01
 0.84813992010E+01 0.85138109786E+01 0.85688403686E+01 0.86363453590E+01 0.86949732774E+01
 0.87198727837E+01 0.86984448681E+01 0.86396558169E+01 0.85677317199E+01 0.85070204803E+01
 0.84719507702E+01 0.84669527620E+01 0.84891691819E+01 0.85276237694E+01 0.85630888631E+01
 0.85760236444E+01 0.85594545945E+01 0.85242238323E+01 0.84904031048E+01 0.84739280609E+01
 0.88008774827E+01 0.85136564066E+01 0.82697059361E+01 0.80993293147E+01 0.80065344726E+01
 0.79718465421E+01 0.79727195966E+01 0.80068082639E+01 0.80952985448E+01 0.82619160055E+01
 0.85074116374E+01 0.88008721653E+01 0.90930316252E+01 0.94050266546E+01 0.97507877430E+01
 0.99909050486E+01 0.99895257097E+01 0.97463218982E+01 0.93981425940E+01 0.90873530425E+01
 0.98590254531E+01 0.91253110614E+01 0.85686218660E+01 0.80991798906E+01 0.77723521290E+01
 0.75928759069E+01 0.75376440166E+01 0.75921336922E+01 0.77696798721E+01 0.80956543229E+01
 0.85684992988E+01 0.91315768079E+01 0.98688991198E+01 0.11029537603E+02 0.12442897437E+02
 0.13622823644E+02 0.14083953756E+02 0.13624878505E+02 0.12442039160E+02 0.11022543365E+02
 0.13797866707E+02 0.11055058941E+02 0.94702006081E+01 0.86360131617E+01 0.80064072926E+01
 0.75930398802E+01 0.73980570099E+01 0.73973268231E+01 0.75917513134E+01 0.80067816633E+01
 0.86400028167E+01 0.94773018721E+01 0.11061521945E+02 0.13799072426E+02 0.17308629312E+02
 0.20615101072E+02 0.22623758712E+02 0.22627353060E+02 0.20622775159E+02 0.17313921977E+02
 0.23883675329E+02 0.17325531622E+02 0.12494479844E+02 0.98436496582E+01 0.86948531494E+01
 0.79721812904E+01 0.75380571423E+01 0.73973952443E+01 0.75368764377E+01 0.79726432053E+01
 0.86984448681E+01 0.98476982093E+01 0.12494464846E+02 0.17319788805E+02 0.23874932726E+02
 0.30696187669E+02 0.35868536418E+02 0.37799217611E+02 0.35872491600E+02 0.30703723399E+02
 0.42108357553E+02 0.30674953182E+02 0.20623914303E+02 0.13684594347E+02 0.10100133033E+02
 0.87200404262E+01 0.79730714032E+01 0.75922527593E+01 0.75917064073E+01 0.79726602635E+01
 0.87210776623E+01 0.10100738174E+02 0.13681258714E+02 0.20616651245E+02 0.30668784411E+02
 0.42108038212E+02 0.52192539599E+02 0.58118774786E+02 0.58116232124E+02 0.52188371814E+02
 0.68315051532E+02 0.52115280442E+02 0.35798315615E+02 0.22613984871E+02 0.14144766956E+02
 0.10101302533E+02 0.86982610365E+01 0.80067896713E+01 0.77697118207E+01 0.80068902507E+01
 0.86983811645E+01 0.10100511388E+02 0.14141954030E+02 0.22610219190E+02 0.35797597294E+02
 0.52121155209E+02 0.68325887883E+02 0.80359985858E+02 0.84813904239E+02 0.80351237133E+02
 0.99646708372E+02 0.80256523999E+02 0.57981975919E+02 0.37703667262E+02 0.22610261674E+02
 0.13682040649E+02 0.98476522426E+01 0.86393539805E+01 0.80954566930E+01 0.80959618953E+01
 0.86400331776E+01 0.98472006074E+01 0.13680727361E+02 0.22610129875E+02 0.37706528122E+02
 0.57987529554E+02 0.80262624431E+02 0.99651122112E+02 0.11101779688E+03 0.11101623493E+03
 0.13044096224E+03 0.11093789712E+03 0.84676509559E+02 0.57985159874E+02 0.35794907728E+02
 0.20615837651E+02 0.12494479844E+02 0.94767253818E+01 0.85678542871E+01 0.82624430054E+01
 0.85688403686E+01 0.94769379967E+01 0.12493662473E+02 0.20616338241E+02 0.35798112736E+02
 0.57988094662E+02 0.84674323309E+02 0.11093018043E+03 0.13043376753E+03 0.13767446697E+03
 0.15332366734E+03 0.13763843954E+03 0.11093912059E+03 0.80265930878E+02 0.52120964124E+02
 0.30668100002E+02 0.17319568554E+02 0.11061125001E+02 0.91309947425E+01 0.85076169473E+01
 0.85081626764E+01 0.91316626746E+01 0.11060770645E+02 0.17319179739E+02 0.30669357898E+02
 0.52122517757E+02 0.80263284360E+02 0.11092991166E+03 0.13762703816E+03 0.15331844490E+03
 0.15366297083E+03 0.14562194641E+03 0.12394825820E+03 0.94739804562E+02 0.64965544528E+02
 0.40042547068E+02 0.22768414514E+02 0.13310418596E+02 0.96811404018E+01 0.86709543146E+01
 0.83494891410E+01 0.86711377742E+01 0.96812904436E+01 0.13310366192E+02 0.22768232515E+02
 0.40042440583E+02 0.64965599147E+02 0.94739916009E+02 0.12394830138E+03 0.14562192848E+03
 0.14562724750E+03 0.14562248320E+03 0.13079685568E+03 0.10551725093E+03 0.76395660230E+02
 0.49614332970E+02 0.29206917095E+02 0.16577262387E+02 0.10734293209E+02 0.89503945538E+01
 0.83381778039E+01 0.83376592577E+01 0.89497556145E+01 0.10734627879E+02 0.16577660329E+02
 0.29205778202E+02 0.49612847427E+02 0.76397965383E+02 0.10552557255E+03 0.13080723268E+03
 0.12395618604E+03 0.13077997202E+03 0.12394963661E+03 0.10551759050E+03 0.80626042588E+02
 0.55242388253E+02 0.34101135776E+02 0.19673358383E+02 0.12027487259E+02 0.92322104959E+01
 0.83555288871E+01 0.80544395218E+01 0.83542522373E+01 0.92317270471E+01 0.12028368704E+02
 0.19673256268E+02 0.34098312476E+02 0.55239400311E+02 0.80627610617E+02 0.10552441396E+03
 0.94736420898E+02 0.10546450180E+03 0.10546593900E+03 0.94740524601E+02 0.76394895367E+02
 0.55241679920E+02 0.35928642365E+02 0.21558914445E+02 0.13114325469E+02 0.95388446242E+01
 0.83898339242E+01 0.78523831030E+01 0.78518512714E+01 0.83891014576E+01 0.95392694415E+01
 0.13115673672E+02 0.21559154061E+02 0.35925974744E+02 0.55236417808E+02 0.76389151246E+02
 0.64954520394E+02 0.76319981970E+02 0.80525585688E+02 0.76328052464E+02 0.64964385588E+02
 0.49612647073E+02 0.34100544135E+02 0.21559074439E+02 0.13539565783E+02 0.97530361334E+01
 0.84227752013E+01 0.77341125948E+01 0.74985945742E+01 0.77341809578E+01 0.84227879087E+01
 0.97537274076E+01 0.13542084991E+02 0.21562649172E+02 0.34101506576E+02 0.49607528401E+02
 0.40041356591E+02 0.49562129081E+02 0.55147333021E+02 0.55149691441E+02 0.49565936521E+02
 0.40040859186E+02 0.29206152365E+02 0.19673826898E+02 0.13114912744E+02 0.97532717340E+01
 0.84364091196E+01 0.76830513394E+01 0.72997430103E+01 0.73002474894E+01 0.76833981519E+01
 0.84353596334E+01 0.97526434152E+01 0.13118084790E+02 0.19680817874E+02 0.29212181221E+02
 0.22776117168E+02 0.29208963924E+02 0.34073960069E+02 0.35884710325E+02 0.34070203820E+02
 0.29201907068E+02 0.22768049051E+02 0.16577997757E+02 0.12028469321E+02 0.95393775763E+01
 0.84229935682E+01 0.76830624750E+01 0.72368804955E+01 0.70930834239E+01 0.72378932205E+01
 0.76825368572E+01 0.84195938082E+01 0.95355516331E+01 0.12028368704E+02 0.16583202054E+02
 0.13309965292E+02 0.16616521131E+02 0.19724258428E+02 0.21604189121E+02 0.21600803508E+02
 0.19717052299E+02 0.16611636263E+02 0.13311327418E+02 0.10735324044E+02 0.92326469913E+01
 0.83899010372E+01 0.77340479366E+01 0.72995301079E+01 0.70929254137E+01 0.70937070214E+01
 0.73009305819E+01 0.77337800580E+01 0.83860072467E+01 0.92256503329E+01 0.10728907953E+02
 0.96726121505E+01 0.10779819909E+02 0.12117125849E+02 0.13227550429E+02 0.13657893971E+02
 0.13225734692E+02 0.12118020781E+02 0.10786373697E+02 0.96818591665E+01 0.89504035475E+01
 0.83550693643E+01 0.78520478218E+01 0.74983065055E+01 0.72999310077E+01 0.72376741357E+01
 0.73008270026E+01 0.75009950344E+01 0.78553463821E+01 0.83550458776E+01 0.89444365879E+01
 0.86707498842E+01 0.89986615483E+01 0.93292052594E+01 0.96764080950E+01 0.99134446390E+01
 0.99147762338E+01 0.96806802418E+01 0.93357075082E+01 0.90038973779E+01 0.86704874856E+01
 0.83371770170E+01 0.80537581970E+01 0.78516599319E+01 0.77340609465E+01 0.76832276673E+01
 0.76823552370E+01 0.77337247049E+01 0.78554903237E+01 0.80613050258E+01 0.83433661742E+01
 0.83573737938E+01 0.83979010598E+01 0.84616338295E+01 0.85367081114E+01 0.86003064183E+01
 0.86268313810E+01 0.86035689116E+01 0.85397923687E+01 0.84605082887E+01 0.83913745753E+01
 0.83483201293E+01 0.83368222467E+01 0.83542757241E+01 0.83894670178E+01 0.84229935682E+01
 0.84353582469E+01 0.84195811009E+01 0.83863056938E+01 0.83555288870E+01 0.83435299501E+01
 0.86706088036E+01 0.83977299793E+01 0.81687847227E+01 0.80113581652E+01 0.79275331961E+01
 0.78972153113E+01 0.78980465769E+01 0.79278007455E+01 0.80075383483E+01 0.81613767659E+01
 0.83917532060E+01 0.86705298645E+01 0.89500580365E+01 0.92325916026E+01 0.95399457850E+01
 0.97540102152E+01 0.97526906223E+01 0.95356950245E+01 0.92260783929E+01 0.89447300162E+01
 0.96725044743E+01 0.89983587680E+01 0.84613835442E+01 0.80112000805E+01 0.76997985432E+01
 0.75297180660E+01 0.74775723736E+01 0.75290499491E+01 0.76973122279E+01 0.80078838594E+01
 0.84612595633E+01 0.90042852678E+01 0.96819015321E+01 0.10735724943E+02 0.12029220596E+02
 0.13115996736E+02 0.13542008609E+02 0.13117820580E+02 0.12028238534E+02 0.10728974183E+02
 0.13310029929E+02 0.10779765182E+02 0.93289435069E+01 0.85363630376E+01 0.79274074586E+01
 0.75298861617E+01 0.73430150018E+01 0.73423218391E+01 0.75286612824E+01 0.79277575899E+01
 0.85401479159E+01 0.93357082850E+01 0.10785985030E+02 0.13311339651E+02 0.16578163726E+02
 0.19673131572E+02 0.21558685772E+02 0.21562020889E+02 0.19680224664E+02 0.16582970081E+02
 0.22776299167E+02 0.16616792075E+02 0.12117131976E+02 0.96761879332E+01 0.86001916183E+01
 0.78975530320E+01 0.74780033454E+01 0.73424135465E+01 0.74768210990E+01 0.78979138543E+01
 0.86035689117E+01 0.96800795633E+01 0.12117227141E+02 0.16611448152E+02 0.22768049051E+02
 0.29204855584E+02 0.34097350035E+02 0.35925360043E+02 0.34101135776E+02 0.29212023333E+02
 0.40041486750E+02 0.29209171108E+02 0.19724556841E+02 0.13227734619E+02 0.99134837940E+01
 0.86269851909E+01 0.78984005612E+01 0.75292145106E+01 0.75286577482E+01 0.78979301180E+01
 0.86279248184E+01 0.99141038059E+01 0.13224674374E+02 0.19717711717E+02 0.29203190084E+02
 0.40040882860E+02 0.49611586755E+02 0.55239245127E+02 0.55236970957E+02 0.49607953626E+02
 0.64954514237E+02 0.49561740803E+02 0.34074161865E+02 0.21604768137E+02 0.13658150343E+02
 0.99145441118E+01 0.86033372560E+01 0.79277961254E+01 0.76974041802E+01 0.79278787072E+01
 0.86034520559E+01 0.99138325289E+01 0.13655541974E+02 0.21601204408E+02 0.34073349458E+02
 0.49567020513E+02 0.64964434051E+02 0.76398390478E+02 0.80629188225E+02 0.76390341203E+02
 0.94736346085E+02 0.76318808850E+02 0.55146848726E+02 0.35885308201E+02 0.21601309659E+02
 0.13225336459E+02 0.96798591994E+01 0.85394328485E+01 0.80077416029E+01 0.80082451986E+01
 0.85401334694E+01 0.96794786828E+01 0.13224091952E+02 0.21601131543E+02 0.35887946105E+02
 0.55152065926E+02 0.76324593987E+02 0.94740561235E+02 0.10552752660E+03 0.10552602844E+03
 0.12395614285E+03 0.10546289186E+03 0.80524152655E+02 0.55149824834E+02 0.34071016228E+02
 0.19717061938E+02 0.12117131976E+02 0.93349894255E+01 0.84606322695E+01 0.81620046262E+01
 0.84616338296E+01 0.93352519549E+01 0.12116332208E+02 0.19717422942E+02 0.34073960069E+02
 0.55152683614E+02 0.80522391588E+02 0.10545600931E+03 0.12394963661E+03 0.13080860930E+03
 0.14562724825E+03 0.13077859692E+03 0.10546402461E+03 0.76327569167E+02 0.49567042642E+02
 0.29202808951E+02 0.16611277447E+02 0.10785455688E+02 0.90036606072E+01 0.83920826288E+01
 0.83926323401E+01 0.90043512777E+01 0.10785121749E+02 0.16610818392E+02 0.29203884782E+02
 0.49568514913E+02 0.76325283810E+02 0.10545570485E+03 0.13076819256E+03 0.14562246601E+03
 0.13156667396E+03 0.12474745221E+03 0.10630870363E+03 0.81335803238E+02 0.55779413947E+02
 0.34420044644E+02 0.19800981645E+02 0.12036419867E+02 0.91948714191E+01 0.83137081455E+01
 0.80136025234E+01 0.83138970449E+01 0.91950314417E+01 0.12036371116E+02 0.19800778731E+02
 0.34419887702E+02 0.55779411049E+02 0.81335883381E+02 0.10630875184E+03 0.12474745165E+03
 0.12475174379E+03 0.12474812120E+03 0.11213826196E+03 0.90549188113E+02 0.65569484571E+02
 0.42572905583E+02 0.25176737069E+02 0.14643195068E+02 0.99739920639E+01 0.85561488837E+01
 0.79822936127E+01 0.79817900370E+01 0.85555028368E+01 0.99743037681E+01 0.14643755791E+02
 0.25176015314E+02 0.42571574971E+02 0.65570818794E+02 0.90555190936E+02 0.11214605083E+03
 0.10631512352E+03 0.11213623898E+03 0.10631036972E+03 0.90549596396E+02 0.69191675261E+02
 0.47378181040E+02 0.29296186738E+02 0.17158989050E+02 0.10949547184E+02 0.87741951959E+01
 0.79836333729E+01 0.77063005665E+01 0.79823582024E+01 0.87736198280E+01 0.10950389871E+02
 0.17159256525E+02 0.29294095176E+02 0.47375485461E+02 0.69192219636E+02 0.90554280090E+02
 0.81333103501E+02 0.90537349133E+02 0.90538627128E+02 0.81336686160E+02 0.65568613067E+02
 0.47377334959E+02 0.30839471125E+02 0.18705797059E+02 0.11786294852E+02 0.89871164427E+01
 0.80060593300E+01 0.75127780190E+01 0.75122442494E+01 0.80052543134E+01 0.89873419761E+01
 0.11787483355E+02 0.18706235697E+02 0.30837507065E+02 0.47373062355E+02 0.65563746772E+02
 0.55770553336E+02 0.65559243068E+02 0.69180538250E+02 0.65565512030E+02 0.55778061670E+02
 0.42570871606E+02 0.29295364576E+02 0.18705933035E+02 0.12117124222E+02 0.91355608004E+01
 0.80315059807E+01 0.74003612958E+01 0.71880352569E+01 0.74004262757E+01 0.80314768447E+01
 0.91360281362E+01 0.12119136126E+02 0.18709015577E+02 0.29296581209E+02 0.42567282829E+02
 0.34419096422E+02 0.42596254502E+02 0.47406129843E+02 0.47407805113E+02 0.42598724775E+02
 0.34417955316E+02 0.25175672052E+02 0.17159433801E+02 0.11787055978E+02 0.91359197383E+01
 0.80425885702E+01 0.73518925579E+01 0.70076634561E+01 0.70081759755E+01 0.73523555905E+01
 0.80417666397E+01 0.91352368561E+01 0.11789471956E+02 0.17165250791E+02 0.25181098736E+02
 0.19807150412E+02 0.25249503951E+02 0.29399280099E+02 0.30949153079E+02 0.29395993123E+02
 0.25243464530E+02 0.19800445210E+02 0.14644006121E+02 0.10950818575E+02 0.89879380709E+01
 0.80318307622E+01 0.73518829088E+01 0.69508981085E+01 0.68230335969E+01 0.69519050876E+01
 0.73516143163E+01 0.80289908119E+01 0.89845120899E+01 0.10950389871E+02 0.14648097938E+02
 0.12035961193E+02 0.14743404981E+02 0.17328608955E+02 0.18905964334E+02 0.18903247584E+02
 0.17322898635E+02 0.14739759988E+02 0.12037557143E+02 0.99753375174E+01 0.87748990975E+01
 0.80062115197E+01 0.74002116448E+01 0.70073295116E+01 0.68228136827E+01 0.68234935258E+01
 0.70085573326E+01 0.74000163527E+01 0.80028843562E+01 0.87688267644E+01 0.99696017039E+01
 0.91879241249E+01 0.10072690301E+02 0.11142327869E+02 0.12040342182E+02 0.12390671406E+02
 0.12039074551E+02 0.11143452574E+02 0.10078505238E+02 0.91958425833E+01 0.85562406447E+01
 0.79830885468E+01 0.75122562097E+01 0.71875660064E+01 0.70077394346E+01 0.69516337443E+01
 0.70084547361E+01 0.71897856538E+01 0.75150241298E+01 0.79830938383E+01 0.85512106956E+01
 0.83135469663E+01 0.86513911923E+01 0.89621621586E+01 0.92505676845E+01 0.94413510605E+01
 0.94425054492E+01 0.92542193199E+01 0.89676215330E+01 0.86556634263E+01 0.83131028501E+01
 0.79809962689E+01 0.77053415301E+01 0.75119061312E+01 0.74002714892E+01 0.73521829815E+01
 0.73514513565E+01 0.74000112172E+01 0.75152078208E+01 0.77118536317E+01 0.79864322567E+01
 0.80199742043E+01 0.80839474197E+01 0.81720202474E+01 0.82678939509E+01 0.83450192287E+01
 0.83759478792E+01 0.83477120682E+01 0.82703691438E+01 0.81708707425E+01 0.80781777476E+01
 0.80120405840E+01 0.79806738375E+01 0.79823529110E+01 0.80057739495E+01 0.80318307622E+01
 0.80418249374E+01 0.80290199480E+01 0.80032518025E+01 0.79836333728E+01 0.79866134011E+01
 0.83133936858E+01 0.80837430931E+01 0.78988875144E+01 0.77791033872E+01 0.77213118980E+01
 0.77037161432E+01 0.77044262314E+01 0.77215471918E+01 0.77758497797E+01 0.78925289130E+01
 0.80785198546E+01 0.83131384689E+01 0.85559261849E+01 0.87748036343E+01 0.89883025365E+01
 0.91363965585E+01 0.91352463406E+01 0.89846510221E+01 0.87693066690E+01 0.85515422827E+01
 0.91878007548E+01 0.86510168379E+01 0.81717033575E+01 0.77789262459E+01 0.75130111872E+01
 0.73706286331E+01 0.73275985483E+01 0.73701449518E+01 0.75110081081E+01 0.77761642395E+01
 0.81715697259E+01 0.86560135049E+01 0.91958792357E+01 0.99757474404E+01 0.10951517559E+02
 0.11787847258E+02 0.12118911271E+02 0.11789074732E+02 0.10950246168E+02 0.99696999227E+01
 0.12036021996E+02 0.10072583843E+02 0.89618418803E+01 0.82675226562E+01 0.77211835734E+01
 0.73707992944E+01 0.72079579009E+01 0.72073655891E+01 0.73697470808E+01 0.77214637805E+01
 0.82707393677E+01 0.89676693255E+01 0.10078107367E+02 0.12037569195E+02 0.14644353986E+02
 0.17159040392E+02 0.18705535164E+02 0.18708179068E+02 0.17164589908E+02 0.14647885081E+02
 0.19807353326E+02 0.14743673699E+02 0.11142350037E+02 0.92503740527E+01 0.83449078622E+01
 0.77040433587E+01 0.73280621815E+01 0.72075143351E+01 0.73268995648E+01 0.77041574664E+01
 0.83477120682E+01 0.92538235466E+01 0.11142716938E+02 0.14739395759E+02 0.19800445210E+02
 0.25174835077E+02 0.29292878544E+02 0.30836736939E+02 0.29296186738E+02 0.25180983515E+02
 0.34419269584E+02 0.25249717799E+02 0.17328972986E+02 0.12040628264E+02 0.94414215611E+01
 0.83760505507E+01 0.77047727237E+01 0.73704221055E+01 0.73698535732E+01 0.77041767433E+01
 0.83767505863E+01 0.94420804678E+01 0.12038299492E+02 0.17323263772E+02 0.25244289595E+02
 0.34417971537E+02 0.42570096546E+02 0.47375330139E+02 0.47373753113E+02 0.42567838381E+02
 0.55770591237E+02 0.42595789101E+02 0.29399481450E+02 0.18906671465E+02 0.12391017103E+02
 0.94421966210E+01 0.83473588912E+01 0.77215814445E+01 0.75112591416E+01 0.77216263578E+01
 0.83474702578E+01 0.94417011391E+01 0.12388956013E+02 0.18903657507E+02 0.29398444152E+02
 0.42599516055E+02 0.55778096674E+02 0.65571392947E+02 0.69194126290E+02 0.65565192430E+02
 0.81333050327E+02 0.65557840781E+02 0.47405464061E+02 0.30949816090E+02 0.18903918553E+02
 0.12038650412E+02 0.92531726591E+01 0.82698776967E+01 0.77761733343E+01 0.77766649353E+01
 0.82706192153E+01 0.92529705176E+01 0.12037589270E+02 0.18903621346E+02 0.30951855985E+02
 0.47409766745E+02 0.65562759119E+02 0.81336713129E+02 0.90557552295E+02 0.90556233166E+02
 0.10631507531E+03 0.90535391787E+02 0.69178734452E+02 0.47407882178E+02 0.29397030421E+02
 0.17323026898E+02 0.11142350037E+02 0.89666150376E+01 0.81710043741E+01 0.78934020262E+01
 0.81720202474E+01 0.89669831085E+01 0.11141592233E+02 0.17323028004E+02 0.29399280099E+02
 0.47410509591E+02 0.69178052217E+02 0.90530676219E+02 0.10631036972E+03 0.11214772513E+03
 0.12475173154E+03 0.11213454083E+03 0.90536283492E+02 0.65564873015E+02 0.42600068424E+02
 0.25244663417E+02 0.14739348681E+02 0.10077261037E+02 0.86552961608E+01 0.80791493104E+01
 0.80796957441E+01 0.86560205939E+01 0.10076969624E+02 0.14738715735E+02 0.25245274634E+02
 0.42601325105E+02 0.65563522391E+02 0.90530289930E+02 0.11212675667E+03 0.12474810838E+03
 0.10148766009E+03 0.96279615496E+02 0.82141739768E+02 0.62889551662E+02 0.43148055054E+02
 0.26788973372E+02 0.15903315210E+02 0.10450175938E+02 0.85709324593E+01 0.78141141387E+01
 0.75505970539E+01 0.78142918884E+01 0.85710880768E+01 0.10450137365E+02 0.15903119661E+02
 0.26788799696E+02 0.43148016180E+02 0.62889604456E+02 0.82141786338E+02 0.96279625643E+02
 0.96282562423E+02 0.96280402158E+02 0.86609960353E+02 0.69976478422E+02 0.50662163247E+02
 0.32944456479E+02 0.19790723309E+02 0.12170599001E+02 0.90355244025E+01 0.79941200768E+01
 0.74872814696E+01 0.74868226597E+01 0.79935108154E+01 0.90358219624E+01 0.12171350883E+02
 0.19790536420E+02 0.32943379755E+02 0.50662339968E+02 0.69979573952E+02 0.86614453465E+02
 0.82146158476E+02 0.86628942369E+02 0.82143657542E+02 0.69976946464E+02 0.53444775856E+02
 0.36594853887E+02 0.22819420053E+02 0.13889529295E+02 0.96112994261E+01 0.81543783401E+01
 0.74598741331E+01 0.72208447054E+01 0.74586783866E+01 0.81537548035E+01 0.96120849733E+01
 0.13890211861E+02 0.22818242685E+02 0.36592592344E+02 0.53444118129E+02 0.69978983886E+02
 0.62887758314E+02 0.70021764138E+02 0.70022797804E+02 0.62890577926E+02 0.50661209876E+02
 0.36593893240E+02 0.23962051249E+02 0.14966510125E+02 0.10121499880E+02 0.82753480639E+01
 0.74586617518E+01 0.70353597253E+01 0.70348572293E+01 0.74578299501E+01 0.82753466855E+01
 0.10122438642E+02 0.14967118166E+02 0.23960933738E+02 0.36590911640E+02 0.50657557046E+02
 0.43142069629E+02 0.50742394549E+02 0.53557375906E+02 0.50746317297E+02 0.43146542279E+02
 0.32942127626E+02 0.22818386270E+02 0.14966616513E+02 0.10327248558E+02 0.83511097688E+01
 0.74681173187E+01 0.69268116783E+01 0.67489538683E+01 0.69268727415E+01 0.74680376614E+01
 0.83512805293E+01 0.10328557300E+02 0.14968964308E+02 0.22819817098E+02 0.32940442976E+02
 0.26788374041E+02 0.33071696154E+02 0.36792155013E+02 0.36792972203E+02 0.33072518681E+02
 0.26786530928E+02 0.19789382088E+02 0.13889935029E+02 0.10122415798E+02 0.83515835373E+01
 0.74735207672E+01 0.68792324579E+01 0.65917153241E+01 0.65922089699E+01 0.68797933246E+01
 0.74729770098E+01 0.83508548738E+01 0.10123859129E+02 0.13894164363E+02 0.19793898855E+02
 0.15907491799E+02 0.19960972935E+02 0.23101795812E+02 0.24283089454E+02 0.23099194096E+02
 0.19956359474E+02 0.15902618796E+02 0.12171463993E+02 0.96128303289E+01 0.82764406902E+01
 0.74685373556E+01 0.68791989969E+01 0.65423796349E+01 0.64365773085E+01 0.65433221706E+01
 0.68792215993E+01 0.74664632483E+01 0.82736466131E+01 0.96120849733E+01 0.12174141593E+02
 0.10449736473E+02 0.12356134234E+02 0.14224353437E+02 0.15381737996E+02 0.15379914587E+02
 0.14220623264E+02 0.12354076812E+02 0.10451516313E+02 0.90371562058E+01 0.81553395990E+01
 0.74588942953E+01 0.69265726277E+01 0.65912658456E+01 0.64363037288E+01 0.64368321309E+01
 0.65922337333E+01 0.69264718494E+01 0.74563847002E+01 0.81506288499E+01 0.90324842906E+01
 0.85660794386E+01 0.92108371638E+01 0.99514815973E+01 0.10575869539E+02 0.10821286409E+02
 0.10575304445E+02 0.99528487532E+01 0.92155746763E+01 0.85721375999E+01 0.79943033171E+01
 0.74592636571E+01 0.70346558035E+01 0.67483058181E+01 0.65916667377E+01 0.65430161351E+01
 0.65921409796E+01 0.67498917812E+01 0.70367033714E+01 0.74593148869E+01 0.79905740357E+01
 0.78140000251E+01 0.81593414878E+01 0.84771793559E+01 0.87246529080E+01 0.88711719348E+01
 0.88720779995E+01 0.87274497174E+01 0.84812303988E+01 0.81623524159E+01 0.78133929832E+01
 0.74857323532E+01 0.72196284953E+01 0.70343639402E+01 0.69266816565E+01 0.68796369299E+01
 0.68790986657E+01 0.69265198150E+01 0.70369140040E+01 0.72246634144E+01 0.74900513027E+01
 0.75549691918E+01 0.76528203396E+01 0.77735508363E+01 0.78959345461E+01 0.79896718486E+01
 0.80258553610E+01 0.79915846118E+01 0.78975956975E+01 0.77724300206E+01 0.76481919530E+01
 0.75486941864E+01 0.74854619754E+01 0.74586271568E+01 0.74584719177E+01 0.74685373556E+01
 0.74731165973E+01 0.74665429056E+01 0.74567941241E+01 0.74598741331E+01 0.74902397348E+01
 0.78138503046E+01 0.76526013091E+01 0.75340146357E+01 0.74689837481E+01 0.74483060617E+01
 0.74486393377E+01 0.74491658659E+01 0.74484615822E+01 0.74664893806E+01 0.75291226136E+01
 0.76484772726E+01 0.78134210125E+01 0.79940394830E+01 0.81552025410E+01 0.82765584546E+01
 0.83517453587E+01 0.83508459347E+01 0.82737657559E+01 0.81511153284E+01 0.79909194630E+01
 0.85659541583E+01 0.81589368417E+01 0.77731953036E+01 0.74687933241E+01 0.72708904025E+01
 0.71693732087E+01 0.71397151458E+01 0.71690997055E+01 0.72694931950E+01 0.74667532147E+01
 0.77730361838E+01 0.81626442793E+01 0.85721679370E+01 0.90375570980E+01 0.96134364920E+01
 0.10122841454E+02 0.10328216807E+02 0.10123346022E+02 0.96119055892E+01 0.90325876227E+01
 0.10449787062E+02 0.92107131972E+01 0.84768423097E+01 0.78955519057E+01 0.74481598121E+01
 0.71695256825E+01 0.70427315952E+01 0.70422787246E+01 0.71687108293E+01 0.74483365401E+01
 0.78979630881E+01 0.84813274117E+01 0.92151858002E+01 0.10451528329E+02 0.12171998939E+02
 0.13889898250E+02 0.14966227636E+02 0.14967967391E+02 0.13893445017E+02 0.12173924657E+02
 0.15907687348E+02 0.12356409215E+02 0.99515554354E+01 0.87245028943E+01 0.79895394747E+01
 0.74489066524E+01 0.71401810201E+01 0.70424864350E+01 0.71391089826E+01 0.74487583159E+01
 0.79915846118E+01 0.87273015700E+01 0.99522122529E+01 0.12353532204E+02 0.15902618796E+02
 0.19789100148E+02 0.22816811857E+02 0.23960061391E+02 0.22819420053E+02 0.19793803805E+02
 0.26788555220E+02 0.19961183153E+02 0.14224800491E+02 0.10576268439E+02 0.88712504918E+01
 0.80258581777E+01 0.74494685204E+01 0.71694964065E+01 0.71689550566E+01 0.74487936558E+01
 0.80262949987E+01 0.88719517108E+01 0.10574886293E+02 0.14220640524E+02 0.19956631557E+02
 0.26786538431E+02 0.32941709473E+02 0.36592465250E+02 0.36591745194E+02 0.32941101547E+02
 0.43142127855E+02 0.33071147640E+02 0.23102001560E+02 0.15382574387E+02 0.10821707341E+02
 0.88716686439E+01 0.79910945362E+01 0.74485486883E+01 0.72699415042E+01 0.74485698957E+01
 0.79912269100E+01 0.88714637982E+01 0.10820367848E+02 0.15380315479E+02 0.23100749157E+02
 0.33072944337E+02 0.43146561631E+02 0.50663056018E+02 0.53446330918E+02 0.50659226468E+02
 0.62887721277E+02 0.50740778694E+02 0.36791319356E+02 0.24283814605E+02 0.15380744002E+02
 0.10574856206E+02 0.87261895630E+01 0.78969934142E+01 0.74669629394E+01 0.74674171975E+01
 0.78977434452E+01 0.87261914294E+01 0.10574039155E+02 0.15380308503E+02 0.24285065908E+02
 0.36794376932E+02 0.50744486912E+02 0.62890593684E+02 0.69982303694E+02 0.69981245586E+02
 0.82146111906E+02 0.70019494071E+02 0.53555234510E+02 0.36792996686E+02 0.23100446498E+02
 0.14220874625E+02 0.99515554354E+01 0.84799611474E+01 0.77725891405E+01 0.75302430878E+01
 0.77735508363E+01 0.84803952064E+01 0.99508450971E+01 0.14220444831E+02 0.23101795812E+02
 0.36795237071E+02 0.53555801493E+02 0.70017443948E+02 0.82143657542E+02 0.86616404847E+02
 0.96282544517E+02 0.86626956096E+02 0.70020072764E+02 0.50745538099E+02 0.33074076661E+02
 0.19957835981E+02 0.12353623911E+02 0.92140310937E+01 0.81618658620E+01 0.76494084547E+01
 0.76499128049E+01 0.81625623715E+01 0.92137661841E+01 0.12352804321E+02 0.19957897845E+02
 0.33075050830E+02 0.50745323569E+02 0.70016988976E+02 0.86622486504E+02 0.96280394398E+02
 0.70368539979E+02 0.66777936465E+02 0.57007172830E+02 0.43684765789E+02 0.30114029778E+02
 0.19136718614E+02 0.12217395127E+02 0.90565154239E+01 0.79112579145E+01 0.72723620099E+01
 0.70575963969E+01 0.72725001812E+01 0.79113804495E+01 0.90564911057E+01 0.12217254341E+02
 0.19136598245E+02 0.30114011910E+02 0.43684811714E+02 0.57007206597E+02 0.66777940268E+02
 0.66779561097E+02 0.66778738469E+02 0.60084852384E+02 0.48551476003E+02 0.35199534839E+02
 0.23144250744E+02 0.14543667732E+02 0.99302308420E+01 0.81766357541E+01 0.73715006076E+01