   2   2   0   0
  0.9638209E+01  0.2330000E-09  0.2330000E-09  0.4100000E-09  0.5000000E-15
  1.000000000000000E-004
  CAR 
 unknown system                          
     74.43845724     -5.29874827  301      7.64364650      1.00000000
     -5.299  0.0000E+00  0.0000E+00
     -5.033  0.0000E+00  0.0000E+00
     -4.767  0.0000E+00  0.0000E+00
     -4.501  0.0000E+00  0.0000E+00
     -4.236  0.0000E+00  0.0000E+00
     -3.970  0.0000E+00  0.0000E+00
     -3.704  0.0000E+00  0.0000E+00
     -3.438 -0.4258E-35 -0.1132E-35
     -3.172 -0.9370E-26 -0.2490E-26
     -2.907 -0.5841E-18 -0.1553E-18
     -2.641 -0.9750E-12 -0.2592E-12
     -2.375 -0.4478E-07 -0.1190E-07
     -2.109 -0.5078E-04 -0.1351E-04
     -1.843 -0.5584E-03 -0.1619E-03
     -1.578  0.1678E-01  0.4298E-02
     -1.312  0.1436E-01  0.8116E-02
     -1.046  0.1348E+00  0.4395E-01
     -0.780  0.9692E-01  0.6971E-01
     -0.515  0.1140E+00  0.1000E+00
     -0.249  0.3806E-01  0.1101E+00
      0.017  0.2574E+00  0.1785E+00
      0.283  0.2144E+00  0.2355E+00
      0.549  0.2208E+00  0.2942E+00
      0.814  0.2746E+00  0.3672E+00
      1.080  0.9434E-01  0.3923E+00
      1.346  0.2087E+00  0.4478E+00
      1.612  0.5808E+00  0.6021E+00
      1.878  0.4413E+00  0.7194E+00
      2.143  0.7407E+00  0.9163E+00
      2.409  0.9533E+00  0.1170E+01
      2.675  0.2123E+01  0.1734E+01
      2.941  0.1986E+01  0.2262E+01
      3.207  0.2947E+01  0.3045E+01
      3.472  0.2378E+01  0.3677E+01
      3.738  0.2159E+01  0.4251E+01
      4.004  0.2815E+01  0.4999E+01
      4.270  0.3026E+01  0.5803E+01
      4.536  0.2705E+01  0.6522E+01
      4.801  0.2925E+01  0.7300E+01
      5.067  0.2070E+01  0.7850E+01
      5.333  0.2875E+01  0.8614E+01
      5.599  0.3326E+01  0.9499E+01
      5.864  0.4250E+01  0.1063E+02
      6.130  0.3069E+01  0.1144E+02
      6.396  0.3214E+01  0.1230E+02
      6.662  0.4117E+01  0.1339E+02
      6.928  0.3197E+01  0.1424E+02
      7.193  0.3030E+01  0.1505E+02
      7.459  0.2267E+01  0.1565E+02
      7.725  0.2294E+01  0.1626E+02
      7.991  0.4222E+01  0.1738E+02
      8.257  0.4065E+01  0.1846E+02
      8.522  0.4618E+01  0.1969E+02
      8.788  0.4325E+01  0.2084E+02
      9.054  0.1071E+01  0.2112E+02
      9.320  0.2956E+00  0.2120E+02
      9.586  0.6490E+00  0.2138E+02
      9.851  0.1161E+01  0.2168E+02
     10.117  0.6705E+00  0.2186E+02
     10.383  0.3984E+00  0.2197E+02
     10.649  0.4812E+00  0.2210E+02
     10.914  0.3135E+00  0.2218E+02
     11.180  0.4356E+00  0.2230E+02
     11.446  0.3285E+00  0.2238E+02
     11.712  0.4040E+00  0.2249E+02
     11.978  0.7090E+00  0.2268E+02
     12.243  0.6642E+00  0.2285E+02
     12.509  0.3599E+00  0.2295E+02
     12.775  0.3049E+00  0.2303E+02
     13.041  0.2970E+00  0.2311E+02
     13.307  0.5490E+00  0.2326E+02
     13.572  0.5920E+00  0.2341E+02
     13.838  0.1798E+00  0.2346E+02
     14.104  0.1632E+00  0.2350E+02
     14.370  0.2678E+00  0.2358E+02
     14.636  0.1562E+00  0.2362E+02
     14.901  0.2896E+00  0.2369E+02
     15.167  0.2918E+00  0.2377E+02
     15.433  0.2701E+00  0.2384E+02
     15.699  0.7557E+00  0.2404E+02
     15.965  0.3115E+00  0.2413E+02
     16.230  0.1450E+00  0.2417E+02
     16.496  0.1727E+00  0.2421E+02
     16.762  0.1532E+00  0.2425E+02
     17.028  0.1739E+00  0.2430E+02
     17.293  0.2867E+00  0.2438E+02
     17.559  0.1635E+00  0.2442E+02
     17.825  0.8512E+00  0.2464E+02
     18.091  0.9657E+00  0.2490E+02
     18.357  0.6449E+00  0.2507E+02
     18.622  0.7906E+00  0.2528E+02
     18.888  0.4867E+00  0.2541E+02
     19.154  0.7574E+00  0.2561E+02
     19.420  0.4231E+00  0.2573E+02
     19.686  0.1123E+01  0.2602E+02
     19.951  0.7330E+00  0.2622E+02
     20.217  0.4037E+00  0.2633E+02
     20.483  0.6922E+00  0.2651E+02
     20.749  0.7495E+00  0.2671E+02
     21.015  0.8573E+00  0.2694E+02
     21.280  0.6968E+00  0.2712E+02
     21.546  0.4619E+00  0.2725E+02
     21.812  0.5431E+00  0.2739E+02
     22.078  0.5518E+00  0.2754E+02
     22.343  0.1569E+00  0.2758E+02
     22.609  0.8174E+00  0.2780E+02
     22.875  0.7184E+00  0.2799E+02
     23.141  0.4244E+00  0.2810E+02
     23.407  0.7130E+00  0.2829E+02
     23.672  0.1090E+01  0.2858E+02
     23.938  0.4971E+00  0.2871E+02
     24.204  0.6654E+00  0.2889E+02
     24.470  0.6418E+00  0.2906E+02
     24.736  0.5948E+00  0.2922E+02
     25.001  0.1038E+01  0.2949E+02
     25.267  0.7794E+00  0.2970E+02
     25.533  0.1042E+01  0.2998E+02
     25.799  0.8376E+00  0.3020E+02
     26.065  0.6672E+00  0.3038E+02
     26.330  0.9993E+00  0.3064E+02
     26.596  0.1052E+01  0.3092E+02
     26.862  0.9094E+00  0.3116E+02
     27.128  0.9968E+00  0.3143E+02
     27.394  0.4359E+00  0.3154E+02
     27.659  0.1012E+01  0.3181E+02
     27.925  0.1138E+01  0.3212E+02
     28.191  0.4060E+00  0.3222E+02
     28.457  0.1822E+01  0.3271E+02
     28.722  0.9417E+00  0.3296E+02
     28.988  0.5699E+00  0.3311E+02
     29.254  0.5264E+00  0.3325E+02
     29.520  0.4814E+00  0.3338E+02
     29.786  0.1079E+01  0.3366E+02
     30.051  0.8477E+00  0.3389E+02
     30.317  0.9466E+00  0.3414E+02
     30.583  0.8733E+00  0.3437E+02
     30.849  0.4140E+00  0.3448E+02
     31.115  0.4207E+00  0.3459E+02
     31.380  0.5356E+00  0.3474E+02
     31.646  0.1144E+01  0.3504E+02
     31.912  0.1021E+01  0.3531E+02
     32.178  0.9788E+00  0.3557E+02
     32.444  0.6532E+00  0.3575E+02
     32.709  0.6327E+00  0.3591E+02
     32.975  0.2719E+00  0.3599E+02
     33.241  0.6914E+00  0.3617E+02
     33.507  0.2116E+00  0.3623E+02
     33.772  0.1078E+01  0.3651E+02
     34.038  0.9899E+00  0.3678E+02
     34.304  0.8414E+00  0.3700E+02
     34.570  0.4661E+00  0.3712E+02
     34.836  0.7179E+00  0.3731E+02
     35.101  0.9301E+00  0.3756E+02
     35.367  0.1615E+01  0.3799E+02
     35.633  0.7436E+00  0.3819E+02
     35.899  0.3756E+00  0.3829E+02
     36.165  0.8277E+00  0.3851E+02
     36.430  0.7749E+00  0.3871E+02
     36.696  0.8271E+00  0.3893E+02
     36.962  0.1024E+01  0.3921E+02
     37.228  0.1086E+01  0.3950E+02
     37.494  0.7724E+00  0.3970E+02
     37.759  0.9303E+00  0.3995E+02
     38.025  0.1672E+01  0.4039E+02
     38.291  0.1154E+01  0.4070E+02
     38.557  0.6762E+00  0.4088E+02
     38.823  0.7670E+00  0.4108E+02
     39.088  0.8610E+00  0.4131E+02
     39.354  0.6453E+00  0.4148E+02
     39.620  0.8463E+00  0.4171E+02
     39.886  0.4029E+00  0.4181E+02
     40.151  0.6366E+00  0.4198E+02
     40.417  0.7694E+00  0.4219E+02
     40.683  0.5837E+00  0.4234E+02
     40.949  0.8830E+00  0.4258E+02
     41.215  0.1184E+01  0.4289E+02
     41.480  0.7749E+00  0.4310E+02
     41.746  0.2537E+00  0.4317E+02
     42.012  0.1145E+01  0.4347E+02
     42.278  0.1007E+01  0.4374E+02
     42.544  0.8102E+00  0.4395E+02
     42.809  0.7671E+00  0.4416E+02
     43.075  0.8485E+00  0.4438E+02
     43.341  0.9568E+00  0.4464E+02
     43.607  0.1262E+01  0.4497E+02
     43.873  0.7996E+00  0.4519E+02
     44.138  0.8545E+00  0.4541E+02
     44.404  0.1606E+01  0.4584E+02
     44.670  0.1067E+01  0.4612E+02
     44.936  0.8445E+00  0.4635E+02
     45.201  0.1600E+01  0.4677E+02
     45.467  0.5651E+00  0.4692E+02
     45.733  0.9374E+00  0.4717E+02
     45.999  0.1374E+01  0.4754E+02
     46.265  0.8357E+00  0.4776E+02
     46.530  0.6912E+00  0.4794E+02
     46.796  0.1096E+01  0.4823E+02
     47.062  0.7044E+00  0.4842E+02
     47.328  0.4674E+00  0.4855E+02
     47.594  0.1429E+01  0.4893E+02
     47.859  0.1074E+01  0.4921E+02
     48.125  0.7074E+00  0.4940E+02
     48.391  0.1275E+01  0.4974E+02
     48.657  0.5689E+00  0.4989E+02
     48.923  0.1127E+01  0.5019E+02
     49.188  0.8242E+00  0.5041E+02
     49.454  0.6235E+00  0.5057E+02
     49.720  0.1172E+01  0.5088E+02
     49.986  0.1326E+01  0.5124E+02
     50.252  0.9838E+00  0.5150E+02
     50.517  0.9020E+00  0.5174E+02
     50.783  0.5799E+00  0.5189E+02
     51.049  0.6098E+00  0.5205E+02
     51.315  0.1221E+01  0.5238E+02
     51.580  0.1396E+01  0.5275E+02
     51.846  0.1171E+01  0.5306E+02
     52.112  0.8988E+00  0.5330E+02
     52.378  0.9654E+00  0.5356E+02
     52.644  0.7565E+00  0.5376E+02
     52.909  0.1265E+01  0.5409E+02
     53.175  0.1335E+01  0.5445E+02
     53.441  0.1442E+01  0.5483E+02
     53.707  0.1521E+01  0.5524E+02
     53.973  0.1260E+01  0.5557E+02
     54.238  0.1315E+01  0.5592E+02
     54.504  0.1033E+01  0.5620E+02
     54.770  0.8050E+00  0.5641E+02
     55.036  0.9187E+00  0.5665E+02
     55.302  0.8377E+00  0.5688E+02
     55.567  0.8763E+00  0.5711E+02
     55.833  0.1919E+01  0.5762E+02
     56.099  0.1397E+01  0.5799E+02
     56.365  0.6593E+00  0.5817E+02
     56.630  0.9650E+00  0.5842E+02
     56.896  0.1401E+01  0.5879E+02
     57.162  0.1094E+01  0.5909E+02
     57.428  0.1268E+01  0.5942E+02
     57.694  0.7264E+00  0.5962E+02
     57.959  0.1628E+01  0.6005E+02
     58.225  0.2203E+01  0.6063E+02
     58.491  0.1697E+01  0.6108E+02
     58.757  0.1480E+01  0.6148E+02
     59.023  0.1392E+01  0.6185E+02
     59.288  0.1924E+01  0.6236E+02
     59.554  0.1543E+01  0.6277E+02
     59.820  0.1951E+01  0.6329E+02
     60.086  0.1473E+01  0.6368E+02
     60.352  0.1617E+01  0.6411E+02
     60.617  0.1508E+01  0.6451E+02
     60.883  0.2587E+01  0.6520E+02
     61.149  0.2368E+01  0.6583E+02
     61.415  0.1988E+01  0.6636E+02
     61.681  0.1762E+01  0.6682E+02
     61.946  0.1874E+01  0.6732E+02
     62.212  0.1158E+01  0.6763E+02
     62.478  0.1148E+01  0.6794E+02
     62.744  0.1912E+01  0.6844E+02
     63.009  0.1631E+01  0.6888E+02
     63.275  0.1421E+01  0.6925E+02
     63.541  0.1790E+01  0.6973E+02
     63.807  0.1945E+01  0.7025E+02
     64.073  0.1564E+01  0.7066E+02
     64.338  0.1747E+01  0.7113E+02
     64.604  0.1955E+01  0.7165E+02
     64.870  0.1321E+01  0.7200E+02
     65.136  0.1130E+01  0.7230E+02
     65.402  0.1248E+01  0.7263E+02
     65.667  0.1201E+01  0.7295E+02
     65.933  0.1709E+01  0.7340E+02
     66.199  0.1779E+01  0.7388E+02
     66.465  0.1286E+01  0.7422E+02
     66.731  0.1965E+01  0.7474E+02
     66.996  0.1972E+01  0.7527E+02
     67.262  0.2495E+01  0.7593E+02
     67.528  0.1705E+01  0.7638E+02
     67.794  0.1274E+01  0.7672E+02
     68.059  0.1750E+01  0.7718E+02
     68.325  0.1326E+01  0.7754E+02
     68.591  0.1433E+01  0.7792E+02
     68.857  0.1385E+01  0.7829E+02
     69.123  0.1407E+01  0.7866E+02
     69.388  0.1476E+01  0.7905E+02
     69.654  0.1135E+01  0.7935E+02
     69.920  0.1195E+01  0.7967E+02
     70.186  0.9494E+00  0.7992E+02
     70.452  0.1919E+00  0.7998E+02
     70.717  0.4310E-01  0.7999E+02
     70.983  0.5041E-01  0.8000E+02
     71.249  0.1593E-03  0.8000E+02
     71.515 -0.2703E-03  0.8000E+02
     71.781 -0.2632E-06  0.8000E+02
     72.046 -0.5828E-11  0.8000E+02
     72.312  0.0000E+00  0.8000E+02
     72.578  0.0000E+00  0.8000E+02
     72.844  0.0000E+00  0.8000E+02
     73.110  0.0000E+00  0.8000E+02
     73.375  0.0000E+00  0.8000E+02
     73.641  0.0000E+00  0.8000E+02
     73.907  0.0000E+00  0.8000E+02
     74.173  0.0000E+00  0.8000E+02
     74.438  0.0000E+00  0.8000E+02
