    2    2    1    1
  0.9638209E+01  0.2330000E-09  0.2330000E-09  0.4100000E-09  0.5000000E-15
  1.000000000000000E-004
  CAR 
 unknown system                          
     16     60     40
 
  0.0000000E+00  0.0000000E+00  0.0000000E+00  0.1371742E-02
    1       -1.674330   1.000000
    2        2.225211   1.000000
    3        5.179352   1.000000
    4        5.830785   1.000000
    5        5.830861   1.000000
    6        6.166015   1.000000
    7        6.166107   1.000000
    8        6.811425   1.000000
    9        7.209540   1.004435
   10        7.209554   1.004436
   11        8.365803  -0.000002
   12        8.365817  -0.000002
   13       15.373005   0.000000
   14       31.430473   0.000000
   15       31.644081   0.000000
   16       34.553079   0.000000
   17       37.241722   0.000000
   18       37.241780   0.000000
   19       38.013974   0.000000
   20       38.014144   0.000000
   21       38.824171   0.000000
   22       40.704464   0.000000
   23       40.704492   0.000000
   24       41.752947   0.000000
   25       44.576062   0.000000
   26       44.576083   0.000000
   27       45.517429   0.000000
   28       48.631182   0.000000
   29       48.631578   0.000000
   30       50.565473   0.000000
   31       50.565626   0.000000
   32       53.188005   0.000000
   33       60.968923   0.000000
   34       62.967953   0.000000
   35       62.968820   0.000000
   36       63.042694   0.000000
   37       64.160826   0.000000
   38       65.596727   0.000000
   39       65.597790   0.000000
   40       67.181042   0.000000
 
  0.1111111E+00 -0.4844519E-17  0.0000000E+00  0.8230453E-02
    1       -1.162415   1.000000
    2        2.603483   1.000000
    3        5.160186   1.000000
    4        5.647222   1.000000
    5        5.758995   1.000000
    6        6.009823   1.000000
    7        6.136487   1.000000
    8        6.451813   1.000000
    9        6.979308   1.000014
   10        7.034448   1.000072
   11        8.415193  -0.000000
   12        9.928771  -0.000000
   13       15.404937   0.000000
   14       29.586841   0.000000
   15       32.157741   0.000000
   16       32.604057   0.000000
   17       33.678808   0.000000
   18       35.586424   0.000000
   19       36.808186   0.000000
   20       38.569318   0.000000
   21       39.942288   0.000000
   22       40.552846   0.000000
   23       41.696149   0.000000
   24       42.577559   0.000000
   25       45.452451   0.000000
   26       45.766136   0.000000
   27       46.254823   0.000000
   28       47.130904   0.000000
   29       51.015006   0.000000
   30       52.201948   0.000000
   31       53.635215   0.000000
   32       55.784555   0.000000
   33       59.561538   0.000000
   34       61.468998   0.000000
   35       61.528148   0.000000
   36       62.482637   0.000000
   37       62.870151   0.000000
   38       66.603000   0.000000
   39       67.112704   0.000000
   40       68.407138   0.000000
 
  0.2222222E+00 -0.5525702E-17  0.0000000E+00  0.8230453E-02
    1        0.226470   1.000000
    2        3.308628   1.000000
    3        4.349812   1.000000
    4        4.901927   1.000000
    5        5.441378   1.000000
    6        6.455451   1.000000
    7        6.488983   1.000000
    8        6.654736   1.000000
    9        6.962089   1.000008
   10        7.208760   1.004372
   11        8.478636  -0.000000
   12       12.372877  -0.000000
   13       15.565800   0.000000
   14       24.718952   0.000000
   15       30.259858   0.000000
   16       30.426785   0.000000
   17       31.120250   0.000000
   18       33.102863   0.000000
   19       36.510592   0.000000
   20       38.351552   0.000000
   21       38.566060   0.000000
   22       38.940503   0.000000
   23       41.089288   0.000000
   24       43.087364   0.000000
   25       47.385380   0.000000
   26       48.828540   0.000000
   27       49.923461   0.000000
   28       52.780181   0.000000
   29       52.998085   0.000000
   30       56.011636   0.000000
   31       56.711205   0.000000
   32       58.250953   0.000000
   33       59.720439   0.000000
   34       59.743514   0.000000
   35       59.852981   0.000000
   36       61.100583   0.000000
   37       64.076056   0.000000
   38       66.970103   0.000000
   39       67.702226   0.000000
   40       68.214454   0.000000
 
  0.3333333E+00 -0.2424801E-16  0.0000000E+00  0.8230453E-02
    1        1.874960   1.000000
    2        3.189239   1.000000
    3        3.466379   1.000000
    4        5.014333   1.000000
    5        5.668442   1.000000
    6        5.887944   1.000000
    7        6.285207   1.000000
    8        7.817261  -0.005471
    9        8.008517  -0.013513
   10        8.156933  -0.000856
   11        8.500161  -0.000000
   12       15.108307   0.000000
   13       15.752861   0.000000
   14       20.296986   0.000000
   15       26.119548   0.000000
   16       27.569737   0.000000
   17       28.299354   0.000000
   18       32.383977   0.000000
   19       34.608150   0.000000
   20       38.206678   0.000000
   21       38.311591   0.000000
   22       39.715873   0.000000
   23       39.790002   0.000000
   24       43.655327   0.000000
   25       51.965518   0.000000
   26       52.120820   0.000000
   27       52.262945   0.000000
   28       54.755919   0.000000
   29       55.122624   0.000000
   30       56.837484   0.000000
   31       58.502125   0.000000
   32       59.423992   0.000000
   33       59.939107   0.000000
   34       60.765832   0.000000
   35       62.441697   0.000000
   36       64.301742   0.000000
   37       66.711497   0.000000
   38       67.230037   0.000000
   39       67.532606   0.000000
   40       68.265471   0.000000
 
  0.4444444E+00 -0.1105140E-16  0.0000000E+00  0.8230453E-02
    1        2.602722   1.000000
    2        2.862102   1.000000
    3        3.027039   1.000000
    4        5.529120   1.000000
    5        5.650560   1.000000
    6        6.065974   1.000000
    7        6.085668   1.000000
    8        8.497528  -0.000000
    9        8.748613  -0.000000
   10        8.867526  -0.000000
   11        9.884640  -0.000000
   12       13.900188   0.000000
   13       17.838182   0.000000
   14       19.469813   0.000000
   15       22.625198   0.000000
   16       24.782085   0.000000
   17       26.001891   0.000000
   18       31.481368   0.000000
   19       34.038488   0.000000
   20       36.493327   0.000000
   21       38.033200   0.000000
   22       40.848368   0.000000
   23       42.998327   0.000000
   24       43.151651   0.000000
   25       48.050589   0.000000
   26       52.926706   0.000000
   27       54.256332   0.000000
   28       58.222315   0.000000
   29       58.387048   0.000000
   30       59.158584   0.000000
   31       60.152949   0.000000
   32       61.492413   0.000000
   33       61.566016   0.000000
   34       63.501913   0.000000
   35       63.637772   0.000000
   36       65.622245   0.000000
   37       66.375882   0.000000
   38       67.100453   0.000000
   39       68.348323   0.000000
   40       68.486149   0.000000
 
  0.1111111E+00  0.1111111E+00  0.0000000E+00  0.8230453E-02
    1       -0.201391   1.000000
    2        3.218080   1.000000
    3        4.689457   1.000000
    4        4.844159   1.000000
    5        5.690446   1.000000
    6        5.978553   1.000000
    7        6.408589   1.000000
    8        6.764119   1.000000
    9        6.971149   1.000011
   10        7.081254   1.000257
   11        8.408454  -0.000000
   12       11.701446  -0.000000
   13       15.519865   0.000000
   14       27.008945   0.000000
   15       28.209279   0.000000
   16       32.317828   0.000000
   17       32.580784   0.000000
   18       35.137788   0.000000
   19       35.347691   0.000000
   20       36.377381   0.000000
   21       38.085864   0.000000
   22       42.907893   0.000000
   23       43.282600   0.000000
   24       43.389779   0.000000
   25       45.009693   0.000000
   26       45.597090   0.000000
   27       46.797433   0.000000
   28       53.532436   0.000000
   29       54.096634   0.000000
   30       54.953663   0.000000
   31       55.281385   0.000000
   32       58.621746   0.000000
   33       58.726567   0.000000
   34       59.129163   0.000000
   35       60.632264   0.000000
   36       61.036451   0.000000
   37       63.137105   0.000000
   38       67.049061   0.000000
   39       68.247633   0.000000
   40       68.980361   0.000000
 
  0.2222222E+00  0.1111111E+00  0.0000000E+00  0.1646091E-01
    1        1.419825   1.000000
    2        3.640285   1.000000
    3        3.805933   1.000000
    4        4.584022   1.000000
    5        5.488502   1.000000
    6        5.866201   1.000000
    7        6.575180   1.000000
    8        6.672019   1.000000
    9        7.772926   0.060250
   10        8.214172  -0.000208
   11        8.377799  -0.000001
   12       14.182225   0.000000
   13       15.904666   0.000000
   14       22.433604   0.000000
   15       25.504300   0.000000
   16       28.316569   0.000000
   17       31.316535   0.000000
   18       31.398758   0.000000
   19       35.087764   0.000000
   20       37.110942   0.000000
   21       37.634780   0.000000
   22       41.986888   0.000000
   23       42.789574   0.000000
   24       44.404698   0.000000
   25       47.501432   0.000000
   26       48.872144   0.000000
   27       51.393834   0.000000
   28       54.274907   0.000000
   29       54.650526   0.000000
   30       57.202134   0.000000
   31       57.861702   0.000000
   32       59.424609   0.000000
   33       60.135373   0.000000
   34       60.468206   0.000000
   35       62.283808   0.000000
   36       63.687994   0.000000
   37       63.690839   0.000000
   38       67.002598   0.000000
   39       67.493213   0.000000
   40       69.489995   0.000000
 
  0.3333333E+00  0.1111111E+00  0.0000000E+00  0.1646091E-01
    1        2.734057   1.000000
    2        3.239072   1.000000
    3        3.259255   1.000000
    4        5.003874   1.000000
    5        5.545507   1.000000
    6        5.905551   1.000000
    7        6.087218   1.000000
    8        7.782608   0.041952
    9        8.344971  -0.000004
   10        8.559488  -0.000000
   11        9.707196  -0.000000
   12       15.679011   0.000000
   13       16.968477   0.000000
   14       19.376241   0.000000
   15       23.713998   0.000000
   16       24.472133   0.000000
   17       27.118764   0.000000
   18       29.972792   0.000000
   19       33.882078   0.000000
   20       37.007312   0.000000
   21       39.240200   0.000000
   22       42.105219   0.000000
   23       42.919730   0.000000
   24       44.994685   0.000000
   25       50.165313   0.000000
   26       50.533891   0.000000
   27       52.855932   0.000000
   28       53.637976   0.000000
   29       56.343599   0.000000
   30       57.848993   0.000000
   31       59.195918   0.000000
   32       60.935635   0.000000
   33       61.755603   0.000000
   34       63.583238   0.000000
   35       64.787958   0.000000
   36       65.309329   0.000000
   37       65.802312   0.000000
   38       67.322553   0.000000
   39       68.545884   0.000000
   40       69.465184   0.000000
 
  0.4444444E+00  0.1111111E+00  0.0000000E+00  0.8230453E-02
    1        2.916323   1.000000
    2        3.079042   1.000000
    3        3.121118   1.000000
    4        5.473766   1.000000
    5        5.533154   1.000000
    6        5.845742   1.000000
    7        6.114435   1.000000
    8        8.328603  -0.000007
    9        8.566503  -0.000000
   10        8.663938  -0.000000
   11       11.314448  -0.000000
   12       13.520022   0.000000
   13       19.064024   0.000000
   14       20.107693   0.000000
   15       22.027706   0.000000
   16       22.693267   0.000000
   17       24.837455   0.000000
   18       29.493857   0.000000
   19       33.324503   0.000000
   20       36.767512   0.000000
   21       39.878384   0.000000
   22       42.922679   0.000000
   23       43.738048   0.000000
   24       44.572280   0.000000
   25       47.770333   0.000000
   26       52.409613   0.000000
   27       53.300666   0.000000
   28       55.012339   0.000000
   29       58.128309   0.000000
   30       58.216923   0.000000
   31       61.492436   0.000000
   32       61.523684   0.000000
   33       61.846482   0.000000
   34       61.889144   0.000000
   35       65.111637   0.000000
   36       67.320196   0.000000
   37       67.480511   0.000000
   38       67.759849   0.000000
   39       68.085826   0.000000
   40       70.185257   0.000000
 
  0.2222222E+00  0.2222222E+00  0.0000000E+00  0.8230453E-02
    1        2.976962   1.000000
    2        3.458030   1.000000
    3        3.979845   1.000000
    4        4.093305   1.000000
    5        5.406236   1.000000
    6        5.819880   1.000000
    7        6.179973   1.000000
    8        6.991508   1.000020
    9        8.179089  -0.000506
   10        8.522520  -0.000000
   11        9.837772  -0.000000
   12       16.701770   0.000000
   13       16.841360   0.000000
   14       20.184739   0.000000
   15       21.273724   0.000000
   16       26.588258   0.000000
   17       27.682894   0.000000
   18       29.789570   0.000000
   19       30.511890   0.000000
   20       39.337909   0.000000
   21       40.209065   0.000000
   22       44.446455   0.000000
   23       44.484143   0.000000
   24       47.033921   0.000000
   25       47.539564   0.000000
   26       48.864969   0.000000
   27       49.829251   0.000000
   28       53.412253   0.000000
   29       55.057745   0.000000
   30       56.978369   0.000000
   31       58.140363   0.000000
   32       61.326074   0.000000
   33       62.077858   0.000000
   34       62.918413   0.000000
   35       64.977213   0.000000
   36       65.869059   0.000000
   37       67.109866   0.000000
   38       67.567258   0.000000
   39       68.181648   0.000000
   40       70.814039   0.000000
 
  0.3333333E+00  0.2222222E+00  0.0000000E+00  0.1646091E-01
    1        3.335632   1.000000
    2        3.646348   1.000000
    3        3.721494   1.000000
    4        4.669277   1.000000
    5        5.318559   1.000000
    6        5.642390   1.000000
    7        6.202876   1.000000
    8        7.714741   0.219210
    9        8.051758  -0.006997
   10        8.517542  -0.000000
   11       11.968903  -0.000000
   12       15.542906   0.000000
   13       18.860811   0.000000
   14       19.558506   0.000000
   15       20.762949   0.000000
   16       23.534289   0.000000
   17       26.014493   0.000000
   18       26.373788   0.000000
   19       29.302080   0.000000
   20       40.820795   0.000000
   21       42.307139   0.000000
   22       44.377856   0.000000
   23       45.796893   0.000000
   24       46.818469   0.000000
   25       48.992000   0.000000
   26       50.032998   0.000000
   27       51.405177   0.000000
   28       51.776780   0.000000
   29       56.009347   0.000000
   30       56.494653   0.000000
   31       57.923896   0.000000
   32       60.903421   0.000000
   33       61.320352   0.000000
   34       62.207681   0.000000
   35       66.525059   0.000000
   36       67.048250   0.000000
   37       68.148149   0.000000
   38       68.783462   0.000000
   39       69.375092   0.000000
   40       70.098772   0.000000
 
  0.3333333E+00  0.3333333E+00  0.0000000E+00  0.2743484E-02
    1        3.462738   1.000000
    2        4.139544   1.000000
    3        4.139605   1.000000
    4        4.265517   1.000000
    5        5.302060   1.000000
    6        5.302082   1.000000
    7        6.398203   1.000000
    8        7.911596  -0.033724
    9        7.991937  -0.016779
   10        7.992056  -0.016754
   11       14.348757   0.000000
   12       15.614053   0.000000
   13       15.614162   0.000000
   14       22.033188   0.000000
   15       22.481088   0.000000
   16       22.481100   0.000000
   17       23.829152   0.000000
   18       26.187339   0.000000
   19       26.187433   0.000000
   20       41.911885   0.000000
   21       46.213391   0.000000
   22       46.213427   0.000000
   23       46.382050   0.000000
   24       46.940318   0.000000
   25       46.940409   0.000000
   26       49.944327   0.000000
   27       51.905522   0.000000
   28       51.905614   0.000000
   29       53.940225   0.000000
   30       56.217706   0.000000
   31       56.217738   0.000000
   32       58.813891   0.000000
   33       61.523094   0.000000
   34       61.523384   0.000000
   35       66.371544   0.000000
   36       68.461728   0.000000
   37       68.461936   0.000000
   38       69.149927   0.000000
   39       69.149953   0.000000
   40       69.296084   0.000000
 
  0.0000000E+00  0.0000000E+00  0.1111111E+00  0.2743484E-02
    1       -1.549872   1.000000
    2        2.181973   1.000000
    3        5.144878   1.000000
    4        5.817910   1.000000
    5        5.817985   1.000000
    6        6.139013   1.000000
    7        6.139104   1.000000
    8        6.484417   1.000000
    9        7.269426   1.011852
   10        7.269441   1.011854
   11        8.350847  -0.000003
   12        8.350862  -0.000003
   13       15.937697   0.000000
   14       30.491780   0.000000
   15       31.778325   0.000000
   16       34.297408   0.000000
   17       37.311753   0.000000
   18       37.311800   0.000000
   19       38.026962   0.000000
   20       38.027124   0.000000
   21       39.496890   0.000000
   22       40.604515   0.000000
   23       40.604534   0.000000
   24       42.144981   0.000000
   25       44.097623   0.000000
   26       44.097636   0.000000
   27       45.877711   0.000000
   28       49.008193   0.000000
   29       49.008561   0.000000
   30       51.159243   0.000000
   31       51.159381   0.000000
   32       52.953694   0.000000
   33       59.820591   0.000000
   34       62.653568   0.000000
   35       62.654380   0.000000
   36       63.273685   0.000000
   37       63.778445   0.000000
   38       63.778949   0.000000
   39       65.459540   0.000000
   40       65.747667   0.000000
 
  0.1111111E+00 -0.4844519E-17  0.1111111E+00  0.1646091E-01
    1       -1.042659   1.000000
    2        2.570126   1.000000
    3        5.155465   1.000000
    4        5.438743   1.000000
    5        5.695603   1.000000
    6        6.046220   1.000000
    7        6.115526   1.000000
    8        6.420222   1.000000
    9        7.062713   1.000158
   10        7.110928   1.000541
   11        8.391983  -0.000001
   12        9.648684  -0.000000
   13       16.044364   0.000000
   14       29.590688   0.000000
   15       31.242803   0.000000
   16       32.619133   0.000000
   17       33.798979   0.000000
   18       35.102668   0.000000
   19       37.159701   0.000000
   20       38.876114   0.000000
   21       39.499270   0.000000
   22       41.009524   0.000000
   23       41.766315   0.000000
   24       42.839544   0.000000
   25       45.571971   0.000000
   26       45.663559   0.000000
   27       46.659665   0.000000
   28       47.511915   0.000000
   29       50.728557   0.000000
   30       52.597165   0.000000
   31       54.098619   0.000000
   32       55.642351   0.000000
   33       57.872712   0.000000
   34       60.838915   0.000000
   35       62.091365   0.000000
   36       62.659000   0.000000
   37       63.506599   0.000000
   38       65.246710   0.000000
   39       65.975065   0.000000
   40       66.822932   0.000000
 
  0.2222222E+00 -0.5525702E-17  0.1111111E+00  0.1646091E-01
    1        0.324281   1.000000
    2        3.304547   1.000000
    3        4.261358   1.000000
    4        4.938716   1.000000
    5        5.378927   1.000000
    6        6.213209   1.000000
    7        6.635039   1.000000
    8        6.789163   1.000000
    9        7.016427   1.000043
   10        7.202895   1.003920
   11        8.445578  -0.000000
   12       11.697516  -0.000000
   13       16.485393   0.000000
   14       24.813629   0.000000
   15       29.687483   0.000000
   16       30.411930   0.000000
   17       31.548759   0.000000
   18       32.522625   0.000000
   19       36.063728   0.000000
   20       38.040059   0.000000
   21       38.044650   0.000000
   22       39.698909   0.000000
   23       41.945860   0.000000
   24       44.043805   0.000000
   25       47.636276   0.000000
   26       48.733998   0.000000
   27       49.548897   0.000000
   28       51.673328   0.000000
   29       53.336434   0.000000
   30       55.984204   0.000000
   31       57.200235   0.000000
   32       58.224756   0.000000
   33       58.808762   0.000000
   34       59.069640   0.000000
   35       60.360661   0.000000
   36       61.908864   0.000000
   37       64.097714   0.000000
   38       66.486942   0.000000
   39       66.669188   0.000000
   40       68.593040   0.000000
 
  0.3333333E+00 -0.2424801E-16  0.1111111E+00  0.1646091E-01
    1        1.893850   1.000000
    2        3.162470   1.000000
    3        3.532362   1.000000
    4        4.847318   1.000000
    5        5.676836   1.000000
    6        6.116817   1.000000
    7        6.335205   1.000000
    8        7.789221   0.030771
    9        8.011817  -0.012911
   10        8.106679  -0.002540
   11        8.480371  -0.000000
   12       13.632055   0.000000
   13       17.348798   0.000000
   14       20.409970   0.000000
   15       25.543948   0.000000
   16       27.750224   0.000000
   17       28.823573   0.000000
   18       32.280921   0.000000
   19       34.533289   0.000000
   20       36.447628   0.000000
   21       37.775233   0.000000
   22       40.119756   0.000000
   23       41.239746   0.000000
   24       44.765535   0.000000
   25       49.764914   0.000000
   26       51.924387   0.000000
   27       53.505387   0.000000
   28       53.854771   0.000000
   29       55.693619   0.000000
   30       57.555280   0.000000
   31       58.615328   0.000000
   32       58.935223   0.000000
   33       60.268736   0.000000
   34       60.633586   0.000000
   35       62.667166   0.000000
   36       64.152540   0.000000
   37       65.838094   0.000000
   38       66.841622   0.000000
   39       67.589293   0.000000
   40       68.595140   0.000000
 
  0.4444444E+00 -0.1105140E-16  0.1111111E+00  0.1646091E-01
    1        2.496052   1.000000
    2        2.739399   1.000000
    3        3.344255   1.000000
    4        4.853609   1.000000
    5        6.045153   1.000000
    6        6.126095   1.000000
    7        6.506384   1.000000
    8        8.398334  -0.000001
    9        8.754385  -0.000000
   10        8.871807  -0.000000
   11        9.754353  -0.000000
   12       13.546374   0.000000
   13       17.725926   0.000000
   14       19.642763   0.000000
   15       22.639623   0.000000
   16       25.363439   0.000000
   17       26.200677   0.000000
   18       31.488319   0.000000
   19       34.005236   0.000000
   20       35.232040   0.000000
   21       39.336694   0.000000
   22       39.627455   0.000000
   23       41.606260   0.000000
   24       45.360089   0.000000
   25       47.862623   0.000000
   26       53.470049   0.000000
   27       54.062107   0.000000
   28       56.879986   0.000000
   29       57.971052   0.000000
   30       59.607530   0.000000
   31       61.008237   0.000000
   32       61.460414   0.000000
   33       61.462345   0.000000
   34       63.479578   0.000000
   35       64.294050   0.000000
   36       65.852454   0.000000
   37       65.993255   0.000000
   38       67.849078   0.000000
   39       68.213247   0.000000
   40       68.470936   0.000000
 
  0.1111111E+00  0.1111111E+00  0.1111111E+00  0.1646091E-01
    1       -0.094087   1.000000
    2        3.206973   1.000000
    3        4.562687   1.000000
    4        4.870953   1.000000
    5        5.720803   1.000000
    6        5.771435   1.000000
    7        6.602410   1.000000
    8        6.660777   1.000000
    9        7.077835   1.000235
   10        7.098670   1.000400
   11        8.381699  -0.000001
   12       11.157805  -0.000000
   13       16.334176   0.000000
   14       27.082135   0.000000
   15       28.303718   0.000000
   16       31.733658   0.000000
   17       31.832257   0.000000
   18       35.215685   0.000000
   19       35.709977   0.000000
   20       35.855749   0.000000
   21       38.819101   0.000000
   22       42.692930   0.000000
   23       43.521752   0.000000
   24       44.107100   0.000000
   25       44.258649   0.000000
   26       46.627428   0.000000
   27       46.990490   0.000000
   28       53.077596   0.000000
   29       53.567965   0.000000
   30       55.186289   0.000000
   31       55.758580   0.000000
   32       56.813334   0.000000
   33       57.850344   0.000000
   34       60.530195   0.000000
   35       60.739265   0.000000
   36       61.746095   0.000000
   37       63.180358   0.000000
   38       66.099251   0.000000
   39       67.120332   0.000000
   40       68.161644   0.000000
 
  0.2222222E+00  0.1111111E+00  0.1111111E+00  0.3292181E-01
    1        1.484533   1.000000
    2        3.642648   1.000000
    3        3.769185   1.000000
    4        4.621707   1.000000
    5        5.402341   1.000000
    6        5.897528   1.000000
    7        6.538379   1.000000
    8        6.777199   1.000000
    9        7.823926  -0.011638
   10        8.085510  -0.003839
   11        8.435552  -0.000000
   12       13.107585   0.000000
   13       17.164608   0.000000
   14       22.537221   0.000000
   15       25.610751   0.000000
   16       27.834993   0.000000
   17       30.763454   0.000000
   18       31.986178   0.000000
   19       35.132635   0.000000
   20       36.037522   0.000000
   21       38.144179   0.000000
   22       41.916046   0.000000
   23       43.394703   0.000000
   24       45.131682   0.000000
   25       47.528465   0.000000
   26       48.221289   0.000000
   27       51.450407   0.000000
   28       53.226821   0.000000
   29       55.479329   0.000000
   30       56.255507   0.000000
   31       59.239842   0.000000
   32       59.477425   0.000000
   33       59.597699   0.000000
   34       60.503352   0.000000
   35       62.619158   0.000000
   36       62.875797   0.000000
   37       64.559204   0.000000
   38       66.655132   0.000000
   39       67.359620   0.000000
   40       67.836711   0.000000
 
  0.3333333E+00  0.1111111E+00  0.1111111E+00  0.3292181E-01
    1        2.649649   1.000000
    2        3.170412   1.000000
    3        3.483373   1.000000
    4        4.730151   1.000000
    5        5.741118   1.000000
    6        5.965982   1.000000
    7        6.205116   1.000000
    8        7.773687   0.058728
    9        8.237812  -0.000110
   10        8.592830  -0.000000
   11        9.704764  -0.000000
   12       14.636373   0.000000
   13       17.767043   0.000000
   14       19.762532   0.000000
   15       23.586096   0.000000
   16       24.314623   0.000000
   17       27.729647   0.000000
   18       29.610088   0.000000
   19       34.341788   0.000000
   20       36.699645   0.000000
   21       38.218611   0.000000
   22       41.270342   0.000000
   23       44.294509   0.000000
   24       45.703790   0.000000
   25       48.915142   0.000000
   26       50.352579   0.000000
   27       52.730116   0.000000
   28       54.960267   0.000000
   29       56.548483   0.000000
   30       58.095559   0.000000
   31       58.987615   0.000000
   32       60.883327   0.000000
   33       61.674277   0.000000
   34       63.444983   0.000000
   35       64.742723   0.000000
   36       65.644687   0.000000
   37       66.093385   0.000000
   38       66.699495   0.000000
   39       68.024473   0.000000
   40       69.718499   0.000000
 
  0.4444444E+00  0.1111111E+00  0.1111111E+00  0.1646091E-01
    1        2.765661   1.000000
    2        2.941431   1.000000
    3        3.519679   1.000000
    4        4.822058   1.000000
    5        5.739481   1.000000
    6        6.217787   1.000000
    7        6.286097   1.000000
    8        8.223140  -0.000164
    9        8.559480  -0.000000
   10        8.673346  -0.000000
   11       11.244608  -0.000000
   12       13.405212   0.000000
   13       18.808092   0.000000
   14       19.507137   0.000000
   15       22.859050   0.000000
   16       22.971723   0.000000
   17       25.239596   0.000000
   18       29.122434   0.000000
   19       33.777608   0.000000
   20       36.690492   0.000000
   21       39.215447   0.000000
   22       40.752474   0.000000
   23       44.130907   0.000000
   24       47.013012   0.000000
   25       47.379150   0.000000
   26       51.012665   0.000000
   27       54.163951   0.000000
   28       55.992310   0.000000
   29       58.339673   0.000000
   30       58.353559   0.000000
   31       60.735413   0.000000
   32       61.207461   0.000000
   33       61.924351   0.000000
   34       62.586032   0.000000
   35       64.281544   0.000000
   36       67.145381   0.000000
   37       67.209322   0.000000
   38       68.349682   0.000000
   39       68.814925   0.000000
   40       69.761218   0.000000
 
  0.2222222E+00  0.2222222E+00  0.1111111E+00  0.1646091E-01
    1        2.974169   1.000000
    2        3.410549   1.000000
    3        4.003089   1.000000
    4        4.178692   1.000000
    5        5.445017   1.000000
    6        5.760937   1.000000
    7        6.171364   1.000000
    8        7.064574   1.000166
    9        8.068012  -0.005288
   10        8.572836  -0.000000
   11        9.870461  -0.000000
   12       15.030391   0.000000
   13       18.628544   0.000000
   14       20.298167   0.000000
   15       21.404759   0.000000
   16       26.084146   0.000000
   17       27.060574   0.000000
   18       30.487035   0.000000
   19       31.140019   0.000000
   20       37.451564   0.000000
   21       41.259660   0.000000