<?xml version="1.0" encoding="ISO-8859-1"?>
<modeling>
 <generator>
  <i name="program" type="string">vasp </i>
  <i name="version" type="string">6.2.0  </i>
  <i name="subversion" type="string">18Jan21 (build Mar 17 2021 09:06:54) complex                          serial </i>
  <i name="platform" type="string">LinuxIFC </i>
  <i name="date" type="string">2021 09 09 </i>
  <i name="time" type="string">13:51:22 </i>
 </generator>
 <incar>
  <i type="string" name="PREC">normal</i>
  <i type="int" name="ICHARG">     1</i>
  <i type="int" name="IBRION">    -1</i>
  <i name="EDIFF">      0.00000100</i>
  <i type="int" name="NSW">     0</i>
  <i name="ENCUT">    280.00000000</i>
  <i type="int" name="NBANDS">    40</i>
  <i type="int" name="ISMEAR">     1</i>
  <i name="SIGMA">      0.20000000</i>
  <i type="logical" name="LCHARG"> T  </i>
  <i type="int" name="KPAR">     1</i>
  <i type="int" name="NCORE">     1</i>
  <i type="string" name="GGA">PE</i>
 </incar>
 <primitive_cell>
  <structure name="primitive_cell" >
   <crystal>
    <varray name="basis" >
     <v>       2.33000000       0.00000000       0.00000000 </v>
     <v>      -1.16500000       2.01783919       0.00000000 </v>
     <v>       0.00000000       0.00000000       4.10000000 </v>
    </varray>
    <i name="volume">     19.27641779 </i>
    <varray name="rec_basis" >
     <v>       0.42918455       0.24778982       0.00000000 </v>
     <v>       0.00000000       0.49557963       0.00000000 </v>
     <v>       0.00000000       0.00000000       0.24390244 </v>
    </varray>
   </crystal>
   <varray name="positions" >
    <v>       0.00000000       0.00000000       0.00000000 </v>
    <v>       0.33333333       0.66666667       0.50000000 </v>
   </varray>
  </structure>
  <varray name="primitive_index" >
   <v type="int" >        1 </v>
   <v type="int" >        2 </v>
  </varray>
 </primitive_cell>
 <kpoints>
  <generation param="Monkhorst-Pack">
   <v type="int" name="divisions">       9        9        9 </v>
   <v name="usershift">      0.00000000       0.00000000       0.00000000 </v>
   <v name="genvec1">      0.11111111      -0.00000000       0.00000000 </v>
   <v name="genvec2">      0.00000000       0.11111111       0.00000000 </v>
   <v name="genvec3">      0.00000000       0.00000000       0.11111111 </v>
   <v name="shift">      0.00000000       0.00000000       0.00000000 </v>
  </generation>
  <varray name="kpointlist" >
   <v>       0.00000000       0.00000000       0.00000000 </v>
   <v>       0.11111111      -0.00000000       0.00000000 </v>
   <v>       0.22222222      -0.00000000       0.00000000 </v>
   <v>       0.33333333      -0.00000000       0.00000000 </v>
   <v>       0.44444444      -0.00000000       0.00000000 </v>
   <v>       0.11111111       0.11111111       0.00000000 </v>
   <v>       0.22222222       0.11111111       0.00000000 </v>
   <v>       0.33333333       0.11111111       0.00000000 </v>
   <v>       0.44444444       0.11111111       0.00000000 </v>
   <v>       0.22222222       0.22222222       0.00000000 </v>
   <v>       0.33333333       0.22222222       0.00000000 </v>
   <v>       0.33333333       0.33333333       0.00000000 </v>
   <v>       0.00000000       0.00000000       0.11111111 </v>
   <v>       0.11111111      -0.00000000       0.11111111 </v>
   <v>       0.22222222      -0.00000000       0.11111111 </v>
   <v>       0.33333333      -0.00000000       0.11111111 </v>
   <v>       0.44444444      -0.00000000       0.11111111 </v>
   <v>       0.11111111       0.11111111       0.11111111 </v>
   <v>       0.22222222       0.11111111       0.11111111 </v>
   <v>       0.33333333       0.11111111       0.11111111 </v>
   <v>       0.44444444       0.11111111       0.11111111 </v>
   <v>       0.22222222       0.22222222       0.11111111 </v>
   <v>       0.33333333       0.22222222       0.11111111 </v>
   <v>       0.33333333       0.33333333       0.11111111 </v>
   <v>       0.00000000       0.00000000       0.22222222 </v>
   <v>       0.11111111      -0.00000000       0.22222222 </v>
   <v>       0.22222222      -0.00000000       0.22222222 </v>
   <v>       0.33333333      -0.00000000       0.22222222 </v>
   <v>       0.44444444      -0.00000000       0.22222222 </v>
   <v>       0.11111111       0.11111111       0.22222222 </v>
   <v>       0.22222222       0.11111111       0.22222222 </v>
   <v>       0.33333333       0.11111111       0.22222222 </v>
   <v>       0.44444444       0.11111111       0.22222222 </v>
   <v>       0.22222222       0.22222222       0.22222222 </v>
   <v>       0.33333333       0.22222222       0.22222222 </v>
   <v>       0.33333333       0.33333333       0.22222222 </v>
   <v>       0.00000000       0.00000000       0.33333333 </v>
   <v>       0.11111111      -0.00000000       0.33333333 </v>
   <v>       0.22222222      -0.00000000       0.33333333 </v>
   <v>       0.33333333      -0.00000000       0.33333333 </v>
   <v>       0.44444444      -0.00000000       0.33333333 </v>
   <v>       0.11111111       0.11111111       0.33333333 </v>
   <v>       0.22222222       0.11111111       0.33333333 </v>
   <v>       0.33333333       0.11111111       0.33333333 </v>
   <v>       0.44444444       0.11111111       0.33333333 </v>
   <v>       0.22222222       0.22222222       0.33333333 </v>
   <v>       0.33333333       0.22222222       0.33333333 </v>
   <v>       0.33333333       0.33333333       0.33333333 </v>
   <v>       0.00000000       0.00000000       0.44444444 </v>
   <v>       0.11111111      -0.00000000       0.44444444 </v>
   <v>       0.22222222      -0.00000000       0.44444444 </v>
   <v>       0.33333333      -0.00000000       0.44444444 </v>
   <v>       0.44444444      -0.00000000       0.44444444 </v>
   <v>       0.11111111       0.11111111       0.44444444 </v>
   <v>       0.22222222       0.11111111       0.44444444 </v>
   <v>       0.33333333       0.11111111       0.44444444 </v>
   <v>       0.44444444       0.11111111       0.44444444 </v>
   <v>       0.22222222       0.22222222       0.44444444 </v>
   <v>       0.33333333       0.22222222       0.44444444 </v>
   <v>       0.33333333       0.33333333       0.44444444 </v>
  </varray>
  <varray name="weights" >
   <v>       0.00137174 </v>
   <v>       0.00823045 </v>
   <v>       0.00823045 </v>
   <v>       0.00823045 </v>
   <v>       0.00823045 </v>
   <v>       0.00823045 </v>
   <v>       0.01646091 </v>
   <v>       0.01646091 </v>
   <v>       0.00823045 </v>
   <v>       0.00823045 </v>
   <v>       0.01646091 </v>
   <v>       0.00274348 </v>
   <v>       0.00274348 </v>
   <v>       0.01646091 </v>
   <v>       0.01646091 </v>
   <v>       0.01646091 </v>
   <v>       0.01646091 </v>
   <v>       0.01646091 </v>
   <v>       0.03292181 </v>
   <v>       0.03292181 </v>
   <v>       0.01646091 </v>
   <v>       0.01646091 </v>
   <v>       0.03292181 </v>
   <v>       0.00548697 </v>
   <v>       0.00274348 </v>
   <v>       0.01646091 </v>
   <v>       0.01646091 </v>
   <v>       0.01646091 </v>
   <v>       0.01646091 </v>
   <v>       0.01646091 </v>
   <v>       0.03292181 </v>
   <v>       0.03292181 </v>
   <v>       0.01646091 </v>
   <v>       0.01646091 </v>
   <v>       0.03292181 </v>
   <v>       0.00548697 </v>
   <v>       0.00274348 </v>
   <v>       0.01646091 </v>
   <v>       0.01646091 </v>
   <v>       0.01646091 </v>
   <v>       0.01646091 </v>
   <v>       0.01646091 </v>
   <v>       0.03292181 </v>
   <v>       0.03292181 </v>
   <v>       0.01646091 </v>
   <v>       0.01646091 </v>
   <v>       0.03292181 </v>
   <v>       0.00548697 </v>
   <v>       0.00274348 </v>
   <v>       0.01646091 </v>
   <v>       0.01646091 </v>
   <v>       0.01646091 </v>
   <v>       0.01646091 </v>
   <v>       0.01646091 </v>
   <v>       0.03292181 </v>
   <v>       0.03292181 </v>
   <v>       0.01646091 </v>
   <v>       0.01646091 </v>
   <v>       0.03292181 </v>
   <v>       0.00548697 </v>
  </varray>
 </kpoints>
 <parameters>
  <separator name="general" >
   <i type="string" name="SYSTEM">unknown system</i>
   <i type="logical" name="LCOMPAT"> F  </i>
  </separator>
  <separator name="electronic" >
   <i type="string" name="PREC">normal</i>
   <i name="ENMAX">    280.00000000</i>
   <i name="ENAUG">    511.36800000</i>
   <i name="EDIFF">      0.00000100</i>
   <i type="int" name="IALGO">    38</i>
   <i type="int" name="IWAVPR">     0</i>
   <i type="int" name="NBANDS">    40</i>
   <i type="int" name="NBANDSLOW">    -1</i>
   <i type="int" name="NBANDSHIGH">    -1</i>
   <i name="NELECT">     16.00000000</i>
   <i type="int" name="TURBO">     0</i>
   <i type="int" name="IRESTART">     0</i>
   <i type="int" name="NREBOOT">     0</i>
   <i type="int" name="NMIN">     0</i>
   <i name="EREF">      0.00000000</i>
   <separator name="electronic smearing" >
    <i type="int" name="ISMEAR">     1</i>
    <i name="SIGMA">      0.20000000</i>
    <i name="KSPACING">      0.50000000</i>
    <i type="logical" name="KGAMMA"> T  </i>
    <i type="logical" name="KBLOWUP"> T  </i>
   </separator>
   <separator name="electronic projectors" >
    <i type="logical" name="LREAL"> F  </i>
    <v name="ROPT">      0.00000000</v>
    <i type="int" name="LMAXPAW">  -100</i>
    <i type="int" name="LMAXMIX">     2</i>
    <i type="logical" name="NLSPLINE"> F  </i>
   </separator>
   <separator name="electronic startup" >
    <i type="int" name="ISTART">     1</i>
    <i type="int" name="ICHARG">     1</i>
    <i type="int" name="INIWAV">     1</i>
   </separator>
   <separator name="electronic spin" >
    <i type="int" name="ISPIN">     1</i>
    <i type="logical" name="LNONCOLLINEAR"> F  </i>
    <v name="MAGMOM">      1.00000000      1.00000000</v>
    <i name="NUPDOWN">     -1.00000000</i>
    <i type="logical" name="LSORBIT"> F  </i>
    <v name="SAXIS">      0.00000000      0.00000000      1.00000000</v>
    <i type="logical" name="LSPIRAL"> F  </i>
    <v name="QSPIRAL">      0.00000000      0.00000000      0.00000000</v>
    <i type="logical" name="LZEROZ"> F  </i>
   </separator>
   <separator name="electronic exchange-correlation" >
    <i type="logical" name="LASPH"> F  </i>
    <i type="logical" name="LMETAGGA"> F  </i>
   </separator>
   <separator name="electronic convergence" >
    <i type="int" name="NELM">    60</i>
    <i type="int" name="NELMDL">     0</i>
    <i type="int" name="NELMIN">     2</i>
    <i name="ENINI">    280.00000000</i>
    <separator name="electronic convergence detail" >
     <i type="logical" name="LDIAG"> T  </i>
     <i type="logical" name="LSUBROT"> F  </i>
     <i name="WEIMIN">      0.00000000</i>
     <i name="EBREAK">      0.00000001</i>
     <i name="DEPER">      0.30000000</i>
     <i type="int" name="NRMM">     4</i>
     <i name="TIME">      0.40000000</i>
    </separator>
   </separator>
   <separator name="electronic mixer" >
    <i name="AMIX">      0.40000000</i>
    <i name="BMIX">      1.00000000</i>
    <i name="AMIN">      0.10000000</i>
    <i name="AMIX_MAG">      1.60000000</i>
    <i name="BMIX_MAG">      1.00000000</i>
    <separator name="electronic mixer details" >
     <i type="int" name="IMIX">     4</i>
     <i type="logical" name="MIXFIRST"> F  </i>
     <i type="int" name="MAXMIX">   -45</i>
     <i name="WC">    100.00000000</i>
     <i type="int" name="INIMIX">     1</i>
     <i type="int" name="MIXPRE">     1</i>
     <i type="int" name="MREMOVE">     5</i>
    </separator>
   </separator>
   <separator name="electronic dipolcorrection" >
    <i type="logical" name="LDIPOL"> F  </i>
    <i type="logical" name="LMONO"> F  </i>
    <i type="int" name="IDIPOL">     0</i>
    <i name="EPSILON">      1.00000000</i>
    <v name="DIPOL">   -100.00000000   -100.00000000   -100.00000000</v>
    <i name="EFIELD">      0.00000000</i>
   </separator>
  </separator>
  <separator name="grids" >
   <i type="int" name="NGX">    10</i>
   <i type="int" name="NGY">    10</i>
   <i type="int" name="NGZ">    18</i>
   <i type="int" name="NGXF">    20</i>
   <i type="int" name="NGYF">    20</i>
   <i type="int" name="NGZF">    36</i>
   <i type="logical" name="ADDGRID"> F  </i>
  </separator>
  <separator name="ionic" >
   <i type="int" name="NSW">     0</i>
   <i type="int" name="IBRION">    -1</i>
   <i type="int" name="MDALGO">     0</i>
   <i type="int" name="ISIF">     2</i>
   <i name="PSTRESS">      0.00000000</i>
   <i name="EDIFFG">      0.00001000</i>
   <i type="int" name="NFREE">     0</i>
   <i name="POTIM">      0.50000000</i>
   <i name="SMASS">     -3.00000000</i>
   <i name="SCALEE">      1.00000000</i>
  </separator>
  <separator name="ionic md" >
   <i name="TEBEG">      0.00010000</i>
   <i name="TEEND">      0.00010000</i>
   <i type="int" name="NBLOCK">     1</i>
   <i type="int" name="KBLOCK">     1</i>
   <i type="int" name="NPACO">   256</i>
   <i name="APACO">     16.00000000</i>
  </separator>
  <separator name="symmetry" >
   <i type="int" name="ISYM">     2</i>
   <i name="SYMPREC">      0.00001000</i>
  </separator>
  <separator name="dos" >
   <i type="int" name="LORBIT">     0</i>
   <v name="RWIGS">     -1.00000000</v>
   <i type="int" name="NEDOS">   301</i>
   <i name="EMIN">     10.00000000</i>
   <i name="EMAX">    -10.00000000</i>
   <i name="EFERMI">      0.00000000</i>
  </separator>
  <separator name="writing" >
   <i type="int" name="NWRITE">     2</i>
   <i type="logical" name="LWAVE"> T  </i>
   <i type="logical" name="LDOWNSAMPLE"> F  </i>
   <i type="logical" name="LCHARG"> T  </i>
   <i type="logical" name="LPARD"> F  </i>
   <i type="logical" name="LVTOT"> F  </i>
   <i type="logical" name="LVHAR"> F  </i>
   <i type="logical" name="LELF"> F  </i>
   <i type="logical" name="LOPTICS"> F  </i>
   <v name="STM">      0.00000000      0.00000000      0.00000000      0.00000000      0.00000000      0.00000000      0.00000000</v>
  </separator>
  <separator name="performance" >
   <i type="int" name="NPAR">     1</i>
   <i type="int" name="NSIM">     4</i>
   <i type="int" name="NBLK">    -1</i>
   <i type="logical" name="LPLANE"> T  </i>
   <i type="logical" name="LSCALAPACK"> F  </i>
   <i type="logical" name="LSCAAWARE"> F  </i>
   <i type="logical" name="LSCALU"> F  </i>
   <i type="logical" name="LASYNC"> F  </i>
   <i type="logical" name="LORBITALREAL"> F  </i>
  </separator>
  <separator name="miscellaneous" >
   <i type="int" name="IDIOT">     3</i>
   <i type="int" name="PHON_NSTRUCT">    -1</i>
   <i type="logical" name="LMUSIC"> F  </i>
   <v name="POMASS">     55.84700000</v>
   <v name="DARWINR">      0.00000000</v>
   <v name="DARWINV">      1.00000000</v>
   <i type="logical" name="LCORR"> T  </i>
  </separator>
  <i type="logical" name="GGA_COMPAT"> T  </i>
  <i type="logical" name="LBERRY"> F  </i>
  <i type="int" name="ICORELEVEL">     0</i>
  <i type="logical" name="LDAU"> F  </i>
  <i type="int" name="I_CONSTRAINED_M">     0</i>
  <separator name="electronic exchange-correlation" >
   <i type="string" name="GGA">PE</i>
   <i type="int" name="VOSKOWN">     0</i>
   <i type="logical" name="LHFCALC"> F  </i>
   <i type="string" name="PRECFOCK"></i>
   <i type="logical" name="LSYMGRAD"> F  </i>
   <i type="logical" name="LHFONE"> F  </i>
   <i type="logical" name="LRHFCALC"> F  </i>
   <i type="logical" name="LTHOMAS"> F  </i>
   <i type="logical" name="LMODELHF"> F  </i>
   <i type="logical" name="LFOCKACE"> F  </i>
   <i name="ENCUT4O">     -1.00000000</i>
   <i type="int" name="EXXOEP">     0</i>
   <i type="int" name="FOURORBIT">     0</i>
   <i name="AEXX">      0.00000000</i>
   <i name="HFALPHA">      0.00000000</i>
   <i name="MCALPHA">      0.00000000</i>
   <i name="ALDAX">      1.00000000</i>
   <i name="AGGAX">      1.00000000</i>
   <i name="ALDAC">      1.00000000</i>
   <i name="AGGAC">      1.00000000</i>
   <i type="int" name="NKREDX">     1</i>
   <i type="int" name="NKREDY">     1</i>
   <i type="int" name="NKREDZ">     1</i>
   <i type="logical" name="SHIFTRED"> F  </i>
   <i type="logical" name="ODDONLY"> F  </i>
   <i type="logical" name="EVENONLY"> F  </i>
   <i type="int" name="LMAXFOCK">     0</i>
   <i type="int" name="NMAXFOCKAE">     0</i>
   <i type="logical" name="LFOCKAEDFT"> F  </i>
   <i name="HFSCREEN">      0.00000000</i>
   <i name="HFSCREENC">      0.00000000</i>
   <i type="int" name="NBANDSGWLOW">     0</i>
  </separator>
  <separator name="vdW DFT" >
   <i type="logical" name="LUSE_VDW"> F  </i>
   <i name="Zab_VDW">     -0.84910000</i>
   <i name="PARAM1">      0.12340000</i>
   <i name="PARAM2">      1.00000000</i>
   <i name="PARAM3">      0.00000000</i>
  </separator>
  <separator name="model GW" >
   <i type="int" name="MODEL_GW">     0</i>
   <i name="MODEL_EPS0">      5.78292534</i>
   <i name="MODEL_ALPHA">      1.00000000</i>
  </separator>
  <separator name="linear response parameters" >
   <i type="logical" name="LEPSILON"> F  </i>
   <i type="logical" name="LRPA"> F  </i>
   <i type="logical" name="LNABLA"> F  </i>
   <i type="logical" name="LVEL"> F  </i>
   <i type="int" name="KINTER">     0</i>
   <i name="CSHIFT">      0.10000000</i>
   <i name="OMEGAMAX">     -1.00000000</i>
   <i name="DEG_THRESHOLD">      0.00200000</i>
   <i name="RTIME">     -0.10000000</i>
   <i name="WPLASMAI">      0.00000000</i>
   <v name="DFIELD">      0.00000000      0.00000000      0.00000000</v>
   <v name="WPLASMA">      0.00000000      0.00000000      0.00000000      0.00000000      0.00000000      0.00000000      0.00000000      0.00000000      0.00000000</v>
  </separator>
  <separator name="orbital magnetization" >
   <i type="logical" name="NUCIND"> F  </i>
   <v name="MAGPOS">      0.00000000      0.00000000      0.00000000</v>
   <i type="logical" name="LNICSALL"> T  </i>
   <i type="logical" name="ORBITALMAG"> F  </i>
   <i type="logical" name="LMAGBLOCH"> F  </i>
   <i type="logical" name="LCHIMAG"> F  </i>
   <i type="logical" name="LGAUGE"> T  </i>
   <i type="int" name="MAGATOM">     0</i>
   <v name="MAGDIPOL">      0.00000000      0.00000000      0.00000000</v>
   <v name="AVECCONST">      0.00000000      0.00000000      0.00000000</v>
  </separator>
  <separator name="response functions" >
   <i type="logical" name="LFINITE_TEMPERATURE"> F  </i>
   <i type="logical" name="LADDER"> F  </i>
   <i type="logical" name="LRPAFORCE"> F  </i>
   <i type="logical" name="LFXC"> F  </i>
   <i type="logical" name="LHARTREE"> T  </i>
   <i type="int" name="IBSE">     0</i>
   <v type="int" name="KPOINT">    -1     0     0     0</v>
   <i type="logical" name="LTCTC"> F  </i>
   <i type="logical" name="LTCTE"> F  </i>
   <i type="logical" name="LTETE"> F  </i>
   <i type="logical" name="LTRIPLET"> F  </i>
   <i type="logical" name="LFXCEPS"> F  </i>
   <i type="logical" name="LFXHEG"> F  </i>
   <i type="int" name="NATURALO">     2</i>
   <i type="logical" name="LHOLEGF"> F  </i>
   <i type="logical" name="L2ORDER"> F  </i>
   <i type="logical" name="LDMP1"> F  </i>
   <i type="logical" name="LMP2LT"> F  </i>
   <i type="logical" name="LSMP2LT"> F  </i>
   <i type="logical" name="LGWLF"> F  </i>
   <i name="ENCUTGW">     -2.00000000</i>
   <i name="ENCUTGWSOFT">     -2.00000000</i>
   <i name="ENCUTLF">     -1.00000000</i>
   <i type="logical" name="LESF_SPLINES"> F  </i>
   <i type="int" name="LMAXMP2">    -1</i>
   <i name="SCISSOR">      0.00000000</i>
   <i type="int" name="NOMEGA">     0</i>
   <i type="int" name="NOMEGAR">     0</i>
   <i type="int" name="NBANDSGW">    -1</i>
   <i type="int" name="NBANDSO">    -1</i>
   <i type="int" name="NBANDSV">    -1</i>
   <i type="int" name="NELM">     1</i>
   <i type="int" name="NELMHF">     1</i>
   <i type="int" name="DIM">     3</i>
   <i type="int" name="IESPILON">     4</i>
   <i type="int" name="ANTIRES">     0</i>
   <i name="OMEGAMAX">    -30.00000000</i>
   <i name="OMEGAMIN">    -30.00000000</i>
   <i name="OMEGATL">   -200.00000000</i>
   <i type="int" name="OMEGAGRID">     0</i>
   <i name="CSHIFT">     -0.10000000</i>
   <i type="logical" name="LSELFENERGY"> F  </i>
   <i type="logical" name="LSPECTRAL"> F  </i>
   <i type="logical" name="LSPECTRALGW"> F  </i>
   <i type="logical" name="LSINGLES"> F  </i>
   <i type="logical" name="LFERMIGW"> F  </i>
   <i type="logical" name="ODDONLYGW"> F  </i>
   <i type="logical" name="EVENONLYGW"> F  </i>
   <i type="int" name="NKREDLFX">     1</i>
   <i type="int" name="NKREDLFY">     1</i>
   <i type="int" name="NKREDLFZ">     1</i>
   <i type="int" name="MAXMEM">  2800</i>
   <i type="int" name="TELESCOPE">     0</i>
   <i type="int" name="NTAUPAR">    -1</i>
   <i type="int" name="NOMEGAPAR">    -1</i>
   <i name="DAMP_NEWTON">      0.80000001</i>
   <i name="LAMBDA">      1.00000000</i>
  </separator>
  <separator name="External order field" >
   <i name="OFIELD_KAPPA">      0.00000000</i>
   <v name="OFIELD_K">      0.00000000      0.00000000      0.00000000</v>
   <i name="OFIELD_Q6_NEAR">      0.00000000</i>
   <i name="OFIELD_Q6_FAR">      0.00000000</i>
   <i name="OFIELD_A">      0.00000000</i>
  </separator>
 </parameters>
 <atominfo>
  <atoms>       2 </atoms>
  <types>       1 </types>
  <array name="atoms" >
   <dimension dim="1">ion</dimension>
   <field type="string">element</field>
   <field type="int">atomtype</field>
   <set>
    <rc><c>Fe</c><c>   1</c></rc>
    <rc><c>Fe</c><c>   1</c></rc>
   </set>
  </array>
  <array name="atomtypes" >
   <dimension dim="1">type</dimension>
   <field type="int">atomspertype</field>
   <field type="string">element</field>
   <field>mass</field>
   <field>valence</field>
   <field type="string">pseudopotential</field>
   <set>
    <rc><c>   2</c><c>Fe</c><c>     55.84700000</c><c>      8.00000000</c><c>  PAW_PBE Fe 06Sep2000                  </c></rc>
   </set>
  </array>
 </atominfo>
 <structure name="initialpos" >
  <crystal>
   <varray name="basis" >
    <v>       2.33000000       0.00000000       0.00000000 </v>
    <v>      -1.16500000       2.01783919       0.00000000 </v>
    <v>       0.00000000       0.00000000       4.10000000 </v>
   </varray>
   <i name="volume">     19.27641779 </i>
   <varray name="rec_basis" >
    <v>       0.42918455       0.24778982       0.00000000 </v>
    <v>       0.00000000       0.49557963       0.00000000 </v>
    <v>       0.00000000       0.00000000       0.24390244 </v>
   </varray>
  </crystal>
  <varray name="positions" >
   <v>       0.00000000       0.00000000       0.00000000 </v>
   <v>       0.33333333       0.66666667       0.50000000 </v>
  </varray>
 </structure>
 <calculation>
  <scstep>
   <time name="dav">    0.52    0.52</time>
   <time name="total">    0.54    0.54</time>
   <energy>
    <i name="alphaZ">    143.41622339 </i>
    <i name="ewald">  -1249.69361233 </i>
    <i name="hartreedc">   -165.46094473 </i>
    <i name="XCdc">      7.26912873 </i>
    <i name="pawpsdc">   1544.21628291 </i>
    <i name="pawaedc">  -1562.25288717 </i>
    <i name="eentropy">      0.00340336 </i>
    <i name="bandstr">     77.89732549 </i>
    <i name="atom">   1188.57490811 </i>
    <i name="e_fr_energy">    -16.03017222 </i>
    <i name="e_wo_entrp">    -16.03357558 </i>
    <i name="e_0_energy">    -16.03130667 </i>
   </energy>
  </scstep>
  <scstep>
   <time name="dav">    0.47    0.47</time>
   <time name="total">    0.49    0.49</time>
   <energy>
    <i name="e_fr_energy">    -16.02953569 </i>
    <i name="e_wo_entrp">    -16.03230366 </i>
    <i name="e_0_energy">    -16.03045835 </i>
   </energy>
  </scstep>
  <scstep>
   <time name="dav">    0.27    0.27</time>
   <time name="total">    0.29    0.29</time>
   <energy>
    <i name="e_fr_energy">    -16.02952506 </i>
    <i name="e_wo_entrp">    -16.03235906 </i>
    <i name="e_0_energy">    -16.03046973 </i>
   </energy>
  </scstep>
  <scstep>
   <time name="dav">    0.27    0.27</time>
   <time name="total">    0.28    0.28</time>
   <energy>
    <i name="alphaZ">    143.41622339 </i>
    <i name="ewald">  -1249.69361233 </i>
    <i name="hartreedc">   -165.46086408 </i>
    <i name="XCdc">      7.26911990 </i>
    <i name="pawpsdc">   1544.21737226 </i>
    <i name="pawaedc">  -1562.25475689 </i>
    <i name="eentropy">      0.00282458 </i>
    <i name="bandstr">     77.89925985 </i>
    <i name="atom">   1188.57490811 </i>
    <i name="e_fr_energy">    -16.02952520 </i>
    <i name="e_wo_entrp">    -16.03234978 </i>
    <i name="e_0_energy">    -16.03046673 </i>
   </energy>
  </scstep>
  <structure>
   <crystal>
    <varray name="basis" >
     <v>       2.33000000       0.00000000       0.00000000 </v>
     <v>      -1.16500000       2.01783919       0.00000000 </v>
     <v>       0.00000000       0.00000000       4.10000000 </v>
    </varray>
    <i name="volume">     19.27641779 </i>
    <varray name="rec_basis" >
     <v>       0.42918455       0.24778982       0.00000000 </v>
     <v>       0.00000000       0.49557963       0.00000000 </v>
     <v>       0.00000000       0.00000000       0.24390244 </v>
    </varray>
   </crystal>
   <varray name="positions" >
    <v>       0.00000000       0.00000000       0.00000000 </v>
    <v>       0.33333333       0.66666667       0.50000000 </v>
   </varray>
  </structure>
  <varray name="forces" >
   <v>       0.00000000      -0.00000000      -0.00000000 </v>
   <v>      -0.00000000       0.00000000       0.00000000 </v>
  </varray>
  <varray name="stress" >
   <v>     376.19130788       0.00000000       0.00000000 </v>
   <v>       0.00000000     376.19130788      -0.00000000 </v>
   <v>       0.00000000       0.00000000    -192.42228131 </v>
  </varray>
  <energy>
   <i name="e_fr_energy">    -16.02952520 </i>
   <i name="e_wo_entrp">    -16.03234978 </i>
   <i name="e_0_energy">    -16.03046673 </i>
  </energy>
  <time name="totalsc">    1.79    1.79</time>
  <eigenvalues>
   <array>
    <dimension dim="1">band</dimension>
    <dimension dim="2">kpoint</dimension>
    <dimension dim="3">spin</dimension>
    <field>eigene</field>
    <field>occ</field>
    <set>
     <set comment="spin 1">
      <set comment="kpoint 1">
       <r>   -1.6743    1.0000 </r>
       <r>    2.2252    1.0000 </r>
       <r>    5.1794    1.0000 </r>
       <r>    5.8308    1.0000 </r>
       <r>    5.8309    1.0000 </r>
       <r>    6.1660    1.0000 </r>
       <r>    6.1661    1.0000 </r>
       <r>    6.8114    1.0000 </r>
       <r>    7.2095    1.0044 </r>
       <r>    7.2096    1.0044 </r>
       <r>    8.3658   -0.0000 </r>
       <r>    8.3658   -0.0000 </r>
       <r>   15.3730    0.0000 </r>
       <r>   31.4305    0.0000 </r>
       <r>   31.6441    0.0000 </r>
       <r>   34.5531    0.0000 </r>
       <r>   37.2417    0.0000 </r>
       <r>   37.2418    0.0000 </r>
       <r>   38.0140    0.0000 </r>
       <r>   38.0141    0.0000 </r>
       <r>   38.8242    0.0000 </r>
       <r>   40.7045    0.0000 </r>
       <r>   40.7045    0.0000 </r>
       <r>   41.7529    0.0000 </r>
       <r>   44.5761    0.0000 </r>
       <r>   44.5761    0.0000 </r>
       <r>   45.5174    0.0000 </r>
       <r>   48.6312    0.0000 </r>
       <r>   48.6316    0.0000 </r>
       <r>   50.5655    0.0000 </r>
       <r>   50.5656    0.0000 </r>
       <r>   53.1880    0.0000 </r>
       <r>   60.9689    0.0000 </r>
       <r>   62.9680    0.0000 </r>
       <r>   62.9688    0.0000 </r>
       <r>   63.0427    0.0000 </r>
       <r>   64.1608    0.0000 </r>
       <r>   65.5967    0.0000 </r>
       <r>   65.5978    0.0000 </r>
       <r>   67.1810    0.0000 </r>
      </set>
      <set comment="kpoint 2">
       <r>   -1.1624    1.0000 </r>
       <r>    2.6035    1.0000 </r>
       <r>    5.1602    1.0000 </r>
       <r>    5.6472    1.0000 </r>
       <r>    5.7590    1.0000 </r>
       <r>    6.0098    1.0000 </r>
       <r>    6.1365    1.0000 </r>
       <r>    6.4518    1.0000 </r>
       <r>    6.9793    1.0000 </r>
       <r>    7.0344    1.0001 </r>
       <r>    8.4152   -0.0000 </r>
       <r>    9.9288   -0.0000 </r>
       <r>   15.4049    0.0000 </r>
       <r>   29.5868    0.0000 </r>
       <r>   32.1577    0.0000 </r>
       <r>   32.6041    0.0000 </r>
       <r>   33.6788    0.0000 </r>
       <r>   35.5864    0.0000 </r>
       <r>   36.8082    0.0000 </r>
       <r>   38.5693    0.0000 </r>
       <r>   39.9423    0.0000 </r>
       <r>   40.5528    0.0000 </r>
       <r>   41.6961    0.0000 </r>
       <r>   42.5776    0.0000 </r>
       <r>   45.4525    0.0000 </r>
       <r>   45.7661    0.0000 </r>
       <r>   46.2548    0.0000 </r>
       <r>   47.1309    0.0000 </r>
       <r>   51.0150    0.0000 </r>
       <r>   52.2019    0.0000 </r>
       <r>   53.6352    0.0000 </r>
       <r>   55.7846    0.0000 </r>
       <r>   59.5615    0.0000 </r>
       <r>   61.4690    0.0000 </r>
       <r>   61.5281    0.0000 </r>
       <r>   62.4826    0.0000 </r>
       <r>   62.8702    0.0000 </r>
       <r>   66.6030    0.0000 </r>
       <r>   67.1127    0.0000 </r>
       <r>   68.4071    0.0000 </r>
      </set>
      <set comment="kpoint 3">
       <r>    0.2265    1.0000 </r>
       <r>    3.3086    1.0000 </r>
       <r>    4.3498    1.0000 </r>
       <r>    4.9019    1.0000 </r>
       <r>    5.4414    1.0000 </r>
       <r>    6.4555    1.0000 </r>
       <r>    6.4890    1.0000 </r>
       <r>    6.6547    1.0000 </r>
       <r>    6.9621    1.0000 </r>
       <r>    7.2088    1.0044 </r>
       <r>    8.4786   -0.0000 </r>
       <r>   12.3729   -0.0000 </r>
       <r>   15.5658    0.0000 </r>
       <r>   24.7190    0.0000 </r>
       <r>   30.2599    0.0000 </r>
       <r>   30.4268    0.0000 </r>
       <r>   31.1203    0.0000 </r>
       <r>   33.1029    0.0000 </r>
       <r>   36.5106    0.0000 </r>
       <r>   38.3516    0.0000 </r>
       <r>   38.5661    0.0000 </r>
       <r>   38.9405    0.0000 </r>
       <r>   41.0893    0.0000 </r>
       <r>   43.0874    0.0000 </r>
       <r>   47.3854    0.0000 </r>
       <r>   48.8285    0.0000 </r>
       <r>   49.9235    0.0000 </r>
       <r>   52.7802    0.0000 </r>
       <r>   52.9981    0.0000 </r>
       <r>   56.0116    0.0000 </r>
       <r>   56.7112    0.0000 </r>
       <r>   58.2510    0.0000 </r>
       <r>   59.7204    0.0000 </r>
       <r>   59.7435    0.0000 </r>
       <r>   59.8530    0.0000 </r>
       <r>   61.1006    0.0000 </r>
       <r>   64.0761    0.0000 </r>
       <r>   66.9701    0.0000 </r>
       <r>   67.7022    0.0000 </r>
       <r>   68.2145    0.0000 </r>
      </set>
      <set comment="kpoint 4">
       <r>    1.8750    1.0000 </r>
       <r>    3.1892    1.0000 </r>
       <r>    3.4664    1.0000 </r>
       <r>    5.0143    1.0000 </r>
       <r>    5.6684    1.0000 </r>
       <r>    5.8879    1.0000 </r>
       <r>    6.2852    1.0000 </r>
       <r>    7.8173   -0.0055 </r>
       <r>    8.0085   -0.0135 </r>
       <r>    8.1569   -0.0009 </r>
       <r>    8.5002   -0.0000 </r>
       <r>   15.1083    0.0000 </r>
       <r>   15.7529    0.0000 </r>
       <r>   20.2970    0.0000 </r>
       <r>   26.1195    0.0000 </r>
       <r>   27.5697    0.0000 </r>
       <r>   28.2994    0.0000 </r>
       <r>   32.3840    0.0000 </r>
       <r>   34.6082    0.0000 </r>
       <r>   38.2067    0.0000 </r>
       <r>   38.3116    0.0000 </r>
       <r>   39.7159    0.0000 </r>
       <r>   39.7900    0.0000 </r>
       <r>   43.6553    0.0000 </r>
       <r>   51.9655    0.0000 </r>
       <r>   52.1208    0.0000 </r>
       <r>   52.2629    0.0000 </r>
       <r>   54.7559    0.0000 </r>
       <r>   55.1226    0.0000 </r>
       <r>   56.8375    0.0000 </r>
       <r>   58.5021    0.0000 </r>
       <r>   59.4240    0.0000 </r>
       <r>   59.9391    0.0000 </r>
       <r>   60.7658    0.0000 </r>
       <r>   62.4417    0.0000 </r>
       <r>   64.3017    0.0000 </r>
       <r>   66.7115    0.0000 </r>
       <r>   67.2300    0.0000 </r>
       <r>   67.5326    0.0000 </r>
       <r>   68.2655    0.0000 </r>
      </set>
      <set comment="kpoint 5">
       <r>    2.6027    1.0000 </r>
       <r>    2.8621    1.0000 </r>
       <r>    3.0270    1.0000 </r>
       <r>    5.5291    1.0000 </r>
       <r>    5.6506    1.0000 </r>
       <r>    6.0660    1.0000 </r>
       <r>    6.0857    1.0000 </r>
       <r>    8.4975   -0.0000 </r>
       <r>    8.7486   -0.0000 </r>
       <r>    8.8675   -0.0000 </r>
       <r>    9.8846   -0.0000 </r>
       <r>   13.9002    0.0000 </r>
       <r>   17.8382    0.0000 </r>
       <r>   19.4698    0.0000 </r>
       <r>   22.6252    0.0000 </r>
       <r>   24.7821    0.0000 </r>
       <r>   26.0019    0.0000 </r>
       <r>   31.4814    0.0000 </r>
       <r>   34.0385    0.0000 </r>
       <r>   36.4933    0.0000 </r>
       <r>   38.0332    0.0000 </r>
       <r>   40.8484    0.0000 </r>
       <r>   42.9983    0.0000 </r>
       <r>   43.1517    0.0000 </r>
       <r>   48.0506    0.0000 </r>
       <r>   52.9267    0.0000 </r>
       <r>   54.2563    0.0000 </r>
       <r>   58.2223    0.0000 </r>
       <r>   58.3870    0.0000 </r>
       <r>   59.1586    0.0000 </r>
       <r>   60.1529    0.0000 </r>
       <r>   61.4924    0.0000 </r>
       <r>   61.5660    0.0000 </r>
       <r>   63.5019    0.0000 </r>
       <r>   63.6378    0.0000 </r>
       <r>   65.6222    0.0000 </r>
       <r>   66.3759    0.0000 </r>
       <r>   67.1005    0.0000 </r>
       <r>   68.3483    0.0000 </r>
       <r>   68.4861    0.0000 </r>
      </set>
      <set comment="kpoint 6">
       <r>   -0.2014    1.0000 </r>
       <r>    3.2181    1.0000 </r>
       <r>    4.6895    1.0000 </r>
       <r>    4.8442    1.0000 </r>
       <r>    5.6904    1.0000 </r>
       <r>    5.9786    1.0000 </r>
       <r>    6.4086    1.0000 </r>
       <r>    6.7641    1.0000 </r>
       <r>    6.9711    1.0000 </r>
       <r>    7.0813    1.0003 </r>
       <r>    8.4085   -0.0000 </r>
       <r>   11.7014   -0.0000 </r>
       <r>   15.5199    0.0000 </r>
       <r>   27.0089    0.0000 </r>
       <r>   28.2093    0.0000 </r>
       <r>   32.3178    0.0000 </r>
       <r>   32.5808    0.0000 </r>
       <r>   35.1378    0.0000 </r>
       <r>   35.3477    0.0000 </r>
       <r>   36.3774    0.0000 </r>
       <r>   38.0859    0.0000 </r>
       <r>   42.9079    0.0000 </r>
       <r>   43.2826    0.0000 </r>
       <r>   43.3898    0.0000 </r>
       <r>   45.0097    0.0000 </r>
       <r>   45.5971    0.0000 </r>
       <r>   46.7974    0.0000 </r>
       <r>   53.5324    0.0000 </r>
       <r>   54.0966    0.0000 </r>
       <r>   54.9537    0.0000 </r>
       <r>   55.2814    0.0000 </r>
       <r>   58.6217    0.0000 </r>
       <r>   58.7266    0.0000 </r>
       <r>   59.1292    0.0000 </r>
       <r>   60.6323    0.0000 </r>
       <r>   61.0365    0.0000 </r>
       <r>   63.1371    0.0000 </r>
       <r>   67.0491    0.0000 </r>
       <r>   68.2476    0.0000 </r>
       <r>   68.9804    0.0000 </r>
      </set>
      <set comment="kpoint 7">
       <r>    1.4198    1.0000 </r>
       <r>    3.6403    1.0000 </r>
       <r>    3.8059    1.0000 </r>
       <r>    4.5840    1.0000 </r>
       <r>    5.4885    1.0000 </r>
       <r>    5.8662    1.0000 </r>
       <r>    6.5752    1.0000 </r>
       <r>    6.6720    1.0000 </r>
       <r>    7.7729    0.0603 </r>
       <r>    8.2142   -0.0002 </r>
       <r>    8.3778   -0.0000 </r>
       <r>   14.1822    0.0000 </r>
       <r>   15.9047    0.0000 </r>
       <r>   22.4336    0.0000 </r>
       <r>   25.5043    0.0000 </r>
       <r>   28.3166    0.0000 </r>
       <r>   31.3165    0.0000 </r>
       <r>   31.3988    0.0000 </r>
       <r>   35.0878    0.0000 </r>
       <r>   37.1109    0.0000 </r>
       <r>   37.6348    0.0000 </r>
       <r>   41.9869    0.0000 </r>
       <r>   42.7896    0.0000 </r>
       <r>   44.4047    0.0000 </r>
       <r>   47.5014    0.0000 </r>
       <r>   48.8721    0.0000 </r>
       <r>   51.3938    0.0000 </r>
       <r>   54.2749    0.0000 </r>
       <r>   54.6505    0.0000 </r>
       <r>   57.2021    0.0000 </r>
       <r>   57.8617    0.0000 </r>
       <r>   59.4246    0.0000 </r>
       <r>   60.1354    0.0000 </r>
       <r>   60.4682    0.0000 </r>
       <r>   62.2838    0.0000 </r>
       <r>   63.6880    0.0000 </r>
       <r>   63.6908    0.0000 </r>
       <r>   67.0026    0.0000 </r>
       <r>   67.4932    0.0000 </r>
       <r>   69.4900    0.0000 </r>
      </set>
      <set comment="kpoint 8">
       <r>    2.7341    1.0000 </r>
       <r>    3.2391    1.0000 </r>
       <r>    3.2593    1.0000 </r>
       <r>    5.0039    1.0000 </r>
       <r>    5.5455    1.0000 </r>
       <r>    5.9056    1.0000 </r>
       <r>    6.0872    1.0000 </r>
       <r>    7.7826    0.0420 </r>
       <r>    8.3450   -0.0000 </r>
       <r>    8.5595   -0.0000 </r>
       <r>    9.7072   -0.0000 </r>
       <r>   15.6790    0.0000 </r>
       <r>   16.9685    0.0000 </r>
       <r>   19.3762    0.0000 </r>
       <r>   23.7140    0.0000 </r>
       <r>   24.4721    0.0000 </r>
       <r>   27.1188    0.0000 </r>
       <r>   29.9728    0.0000 </r>
       <r>   33.8821    0.0000 </r>
       <r>   37.0073    0.0000 </r>
       <r>   39.2402    0.0000 </r>
       <r>   42.1052    0.0000 </r>
       <r>   42.9197    0.0000 </r>
       <r>   44.9947    0.0000 </r>
       <r>   50.1653    0.0000 </r>
       <r>   50.5339    0.0000 </r>
       <r>   52.8559    0.0000 </r>
       <r>   53.6380    0.0000 </r>
       <r>   56.3436    0.0000 </r>
       <r>   57.8490    0.0000 </r>
       <r>   59.1959    0.0000 </r>
       <r>   60.9356    0.0000 </r>
       <r>   61.7556    0.0000 </r>
       <r>   63.5832    0.0000 </r>
       <r>   64.7880    0.0000 </r>
       <r>   65.3093    0.0000 </r>
       <r>   65.8023    0.0000 </r>
       <r>   67.3226    0.0000 </r>
       <r>   68.5459    0.0000 </r>
       <r>   69.4652    0.0000 </r>
      </set>
      <set comment="kpoint 9">
       <r>    2.9163    1.0000 </r>
       <r>    3.0790    1.0000 </r>
       <r>    3.1211    1.0000 </r>
       <r>    5.4738    1.0000 </r>
       <r>    5.5332    1.0000 </r>
       <r>    5.8457    1.0000 </r>
       <r>    6.1144    1.0000 </r>
       <r>    8.3286   -0.0000 </r>
       <r>    8.5665   -0.0000 </r>
       <r>    8.6639   -0.0000 </r>
       <r>   11.3144   -0.0000 </r>
       <r>   13.5200    0.0000 </r>
       <r>   19.0640    0.0000 </r>
       <r>   20.1077    0.0000 </r>
       <r>   22.0277    0.0000 </r>
       <r>   22.6933    0.0000 </r>
       <r>   24.8375    0.0000 </r>
       <r>   29.4939    0.0000 </r>
       <r>   33.3245    0.0000 </r>
       <r>   36.7675    0.0000 </r>
       <r>   39.8784    0.0000 </r>
       <r>   42.9227    0.0000 </r>
       <r>   43.7380    0.0000 </r>
       <r>   44.5723    0.0000 </r>
       <r>   47.7703    0.0000 </r>
       <r>   52.4096    0.0000 </r>
       <r>   53.3007    0.0000 </r>
       <r>   55.0123    0.0000 </r>
       <r>   58.1283    0.0000 </r>
       <r>   58.2169    0.0000 </r>
       <r>   61.4924    0.0000 </r>
       <r>   61.5237    0.0000 </r>
       <r>   61.8465    0.0000 </r>
       <r>   61.8891    0.0000 </r>
       <r>   65.1116    0.0000 </r>
       <r>   67.3202    0.0000 </r>
       <r>   67.4805    0.0000 </r>
       <r>   67.7598    0.0000 </r>
       <r>   68.0858    0.0000 </r>
       <r>   70.1853    0.0000 </r>
      </set>
      <set comment="kpoint 10">
       <r>    2.9770    1.0000 </r>
       <r>    3.4580    1.0000 </r>
       <r>    3.9798    1.0000 </r>
       <r>    4.0933    1.0000 </r>
       <r>    5.4062    1.0000 </r>
       <r>    5.8199    1.0000 </r>
       <r>    6.1800    1.0000 </r>
       <r>    6.9915    1.0000 </r>
       <r>    8.1791   -0.0005 </r>
       <r>    8.5225   -0.0000 </r>
       <r>    9.8378   -0.0000 </r>
       <r>   16.7018    0.0000 </r>
       <r>   16.8414    0.0000 </r>
       <r>   20.1847    0.0000 </r>
       <r>   21.2737    0.0000 </r>
       <r>   26.5883    0.0000 </r>
       <r>   27.6829    0.0000 </r>
       <r>   29.7896    0.0000 </r>
       <r>   30.5119    0.0000 </r>
       <r>   39.3379    0.0000 </r>
       <r>   40.2091    0.0000 </r>
       <r>   44.4465    0.0000 </r>
       <r>   44.4841    0.0000 </r>
       <r>   47.0339    0.0000 </r>
       <r>   47.5396    0.0000 </r>
       <r>   48.8650    0.0000 </r>
       <r>   49.8293    0.0000 </r>
       <r>   53.4123    0.0000 </r>
       <r>   55.0577    0.0000 </r>
       <r>   56.9784    0.0000 </r>
       <r>   58.1404    0.0000 </r>
       <r>   61.3261    0.0000 </r>
       <r>   62.0779    0.0000 </r>
       <r>   62.9184    0.0000 </r>
       <r>   64.9772    0.0000 </r>
       <r>   65.8691    0.0000 </r>
       <r>   67.1099    0.0000 </r>
       <r>   67.5673    0.0000 </r>
       <r>   68.1816    0.0000 </r>
       <r>   70.8140    0.0000 </r>
      </set>
      <set comment="kpoint 11">
       <r>    3.3356    1.0000 </r>
       <r>    3.6463    1.0000 </r>
       <r>    3.7215    1.0000 </r>
       <r>    4.6693    1.0000 </r>
       <r>    5.3186    1.0000 </r>
       <r>    5.6424    1.0000 </r>
       <r>    6.2029    1.0000 </r>
       <r>    7.7147    0.2192 </r>
       <r>    8.0518   -0.0070 </r>
       <r>    8.5175   -0.0000 </r>
       <r>   11.9689   -0.0000 </r>
       <r>   15.5429    0.0000 </r>
       <r>   18.8608    0.0000 </r>
       <r>   19.5585    0.0000 </r>
       <r>   20.7629    0.0000 </r>
       <r>   23.5343    0.0000 </r>
       <r>   26.0145    0.0000 </r>
       <r>   26.3738    0.0000 </r>
       <r>   29.3021    0.0000 </r>
       <r>   40.8208    0.0000 </r>
       <r>   42.3071    0.0000 </r>
       <r>   44.3779    0.0000 </r>
       <r>   45.7969    0.0000 </r>
       <r>   46.8185    0.0000 </r>
       <r>   48.9920    0.0000 </r>
       <r>   50.0330    0.0000 </r>
       <r>   51.4052    0.0000 </r>
       <r>   51.7768    0.0000 </r>
       <r>   56.0093    0.0000 </r>
       <r>   56.4947    0.0000 </r>
       <r>   57.9239    0.0000 </r>
       <r>   60.9034    0.0000 </r>
       <r>   61.3204    0.0000 </r>
       <r>   62.2077    0.0000 </r>
       <r>   66.5251    0.0000 </r>
       <r>   67.0483    0.0000 </r>
       <r>   68.1481    0.0000 </r>
       <r>   68.7835    0.0000 </r>
       <r>   69.3751    0.0000 </r>
       <r>   70.0988    0.0000 </r>
      </set>
      <set comment="kpoint 12">
       <r>    3.4627    1.0000 </r>
       <r>    4.1395    1.0000 </r>
       <r>    4.1396    1.0000 </r>
       <r>    4.2655    1.0000 </r>
       <r>    5.3021    1.0000 </r>
       <r>    5.3021    1.0000 </r>
       <r>    6.3982    1.0000 </r>
       <r>    7.9116   -0.0337 </r>
       <r>    7.9919   -0.0168 </r>
       <r>    7.9921   -0.0168 </r>
       <r>   14.3488    0.0000 </r>
       <r>   15.6141    0.0000 </r>
       <r>   15.6142    0.0000 </r>
       <r>   22.0332    0.0000 </r>
       <r>   22.4811    0.0000 </r>
       <r>   22.4811    0.0000 </r>
       <r>   23.8292    0.0000 </r>
       <r>   26.1873    0.0000 </r>
       <r>   26.1874    0.0000 </r>
       <r>   41.9119    0.0000 </r>
       <r>   46.2134    0.0000 </r>
       <r>   46.2134    0.0000 </r>
       <r>   46.3820    0.0000 </r>
       <r>   46.9403    0.0000 </r>
       <r>   46.9404    0.0000 </r>
       <r>   49.9443    0.0000 </r>
       <r>   51.9055    0.0000 </r>
       <r>   51.9056    0.0000 </r>
       <r>   53.9402    0.0000 </r>
       <r>   56.2177    0.0000 </r>
       <r>   56.2177    0.0000 </r>
       <r>   58.8139    0.0000 </r>
       <r>   61.5231    0.0000 </r>
       <r>   61.5234    0.0000 </r>
       <r>   66.3715    0.0000 </r>
       <r>   68.4617    0.0000 </r>
       <r>   68.4619    0.0000 </r>
       <r>   69.1499    0.0000 </r>
       <r>   69.1500    0.0000 </r>
       <r>   69.2961    0.0000 </r>
      </set>
      <set comment="kpoint 13">
       <r>   -1.5499    1.0000 </r>
       <r>    2.1820    1.0000 </r>
       <r>    5.1449    1.0000 </r>
       <r>    5.8179    1.0000 </r>
       <r>    5.8180    1.0000 </r>
       <r>    6.1390    1.0000 </r>
       <r>    6.1391    1.0000 </r>
       <r>    6.4844    1.0000 </r>
       <r>    7.2694    1.0119 </r>
       <r>    7.2694    1.0119 </r>
       <r>    8.3508   -0.0000 </r>
       <r>    8.3509   -0.0000 </r>
       <r>   15.9377    0.0000 </r>
       <r>   30.4918    0.0000 </r>
       <r>   31.7783    0.0000 </r>
       <r>   34.2974    0.0000 </r>
       <r>   37.3118    0.0000 </r>
       <r>   37.3118    0.0000 </r>
       <r>   38.0270    0.0000 </r>
       <r>   38.0271    0.0000 </r>
       <r>   39.4969    0.0000 </r>
       <r>   40.6045    0.0000 </r>
       <r>   40.6045    0.0000 </r>
       <r>   42.1450    0.0000 </r>
       <r>   44.0976    0.0000 </r>
       <r>   44.0976    0.0000 </r>
       <r>   45.8777    0.0000 </r>
       <r>   49.0082    0.0000 </r>
       <r>   49.0086    0.0000 </r>
       <r>   51.1592    0.0000 </r>
       <r>   51.1594    0.0000 </r>
       <r>   52.9537    0.0000 </r>
       <r>   59.8206    0.0000 </r>
       <r>   62.6536    0.0000 </r>
       <r>   62.6544    0.0000 </r>
       <r>   63.2737    0.0000 </r>
       <r>   63.7784    0.0000 </r>
       <r>   63.7789    0.0000 </r>
       <r>   65.4595    0.0000 </r>
       <r>   65.7477    0.0000 </r>
      </set>
      <set comment="kpoint 14">
       <r>   -1.0427    1.0000 </r>
       <r>    2.5701    1.0000 </r>
       <r>    5.1555    1.0000 </r>
       <r>    5.4387    1.0000 </r>
       <r>    5.6956    1.0000 </r>
       <r>    6.0462    1.0000 </r>
       <r>    6.1155    1.0000 </r>
       <r>    6.4202    1.0000 </r>
       <r>    7.0627    1.0002 </r>
       <r>    7.1109    1.0005 </r>
       <r>    8.3920   -0.0000 </r>
       <r>    9.6487   -0.0000 </r>
       <r>   16.0444    0.0000 </r>
       <r>   29.5907    0.0000 </r>
       <r>   31.2428    0.0000 </r>
       <r>   32.6191    0.0000 </r>
       <r>   33.7990    0.0000 </r>
       <r>   35.1027    0.0000 </r>
       <r>   37.1597    0.0000 </r>
       <r>   38.8761    0.0000 </r>
       <r>   39.4993    0.0000 </r>
       <r>   41.0095    0.0000 </r>
       <r>   41.7663    0.0000 </r>
       <r>   42.8395    0.0000 </r>
       <r>   45.5720    0.0000 </r>
       <r>   45.6636    0.0000 </r>
       <r>   46.6597    0.0000 </r>
       <r>   47.5119    0.0000 </r>
       <r>   50.7286    0.0000 </r>
       <r>   52.5972    0.0000 </r>
       <r>   54.0986    0.0000 </r>
       <r>   55.6424    0.0000 </r>
       <r>   57.8727    0.0000 </r>
       <r>   60.8389    0.0000 </r>
       <r>   62.0914    0.0000 </r>
       <r>   62.6590    0.0000 </r>
       <r>   63.5066    0.0000 </r>
       <r>   65.2467    0.0000 </r>
       <r>   65.9751    0.0000 </r>
       <r>   66.8229    0.0000 </r>
      </set>
      <set comment="kpoint 15">
       <r>    0.3243    1.0000 </r>
       <r>    3.3045    1.0000 </r>
       <r>    4.2614    1.0000 </r>
       <r>    4.9387    1.0000 </r>
       <r>    5.3789    1.0000 </r>
       <r>    6.2132    1.0000 </r>
       <r>    6.6350    1.0000 </r>
       <r>    6.7892    1.0000 </r>
       <r>    7.0164    1.0000 </r>
       <r>    7.2029    1.0039 </r>
       <r>    8.4456   -0.0000 </r>
       <r>   11.6975   -0.0000 </r>
       <r>   16.4854    0.0000 </r>
       <r>   24.8136    0.0000 </r>
       <r>   29.6875    0.0000 </r>
       <r>   30.4119    0.0000 </r>
       <r>   31.5488    0.0000 </r>
       <r>   32.5226    0.0000 </r>
       <r>   36.0637    0.0000 </r>
       <r>   38.0401    0.0000 </r>
       <r>   38.0446    0.0000 </r>
       <r>   39.6989    0.0000 </r>
       <r>   41.9459    0.0000 </r>
       <r>   44.0438    0.0000 </r>
       <r>   47.6363    0.0000 </r>
       <r>   48.7340    0.0000 </r>
       <r>   49.5489    0.0000 </r>
       <r>   51.6733    0.0000 </r>
       <r>   53.3364    0.0000 </r>
       <r>   55.9842    0.0000 </r>
       <r>   57.2002    0.0000 </r>
       <r>   58.2248    0.0000 </r>
       <r>   58.8088    0.0000 </r>
       <r>   59.0696    0.0000 </r>
       <r>   60.3607    0.0000 </r>
       <r>   61.9089    0.0000 </r>
       <r>   64.0977    0.0000 </r>
       <r>   66.4869    0.0000 </r>
       <r>   66.6692    0.0000 </r>
       <r>   68.5930    0.0000 </r>
      </set>
      <set comment="kpoint 16">
       <r>    1.8938    1.0000 </r>
       <r>    3.1625    1.0000 </r>
       <r>    3.5324    1.0000 </r>
       <r>    4.8473    1.0000 </r>
       <r>    5.6768    1.0000 </r>
       <r>    6.1168    1.0000 </r>
       <r>    6.3352    1.0000 </r>
       <r>    7.7892    0.0308 </r>
       <r>    8.0118   -0.0129 </r>
       <r>    8.1067   -0.0025 </r>
       <r>    8.4804   -0.0000 </r>
       <r>   13.6321    0.0000 </r>
       <r>   17.3488    0.0000 </r>
       <r>   20.4100    0.0000 </r>
       <r>   25.5439    0.0000 </r>
       <r>   27.7502    0.0000 </r>
       <r>   28.8236    0.0000 </r>
       <r>   32.2809    0.0000 </r>
       <r>   34.5333    0.0000 </r>
       <r>   36.4476    0.0000 </r>
       <r>   37.7752    0.0000 </r>
       <r>   40.1198    0.0000 </r>
       <r>   41.2397    0.0000 </r>
       <r>   44.7655    0.0000 </r>
       <r>   49.7649    0.0000 </r>
       <r>   51.9244    0.0000 </r>
       <r>   53.5054    0.0000 </r>
       <r>   53.8548    0.0000 </r>
       <r>   55.6936    0.0000 </r>
       <r>   57.5553    0.0000 </r>
       <r>   58.6153    0.0000 </r>
       <r>   58.9352    0.0000 </r>
       <r>   60.2687    0.0000 </r>
       <r>   60.6336    0.0000 </r>
       <r>   62.6672    0.0000 </r>
       <r>   64.1525    0.0000 </r>
       <r>   65.8381    0.0000 </r>
       <r>   66.8416    0.0000 </r>
       <r>   67.5893    0.0000 </r>
       <r>   68.5951    0.0000 </r>
      </set>
      <set comment="kpoint 17">
       <r>    2.4961    1.0000 </r>
       <r>    2.7394    1.0000 </r>
       <r>    3.3443    1.0000 </r>
       <r>    4.8536    1.0000 </r>
       <r>    6.0452    1.0000 </r>
       <r>    6.1261    1.0000 </r>
       <r>    6.5064    1.0000 </r>
       <r>    8.3983   -0.0000 </r>
       <r>    8.7544   -0.0000 </r>
       <r>    8.8718   -0.0000 </r>
       <r>    9.7544   -0.0000 </r>
       <r>   13.5464    0.0000 </r>
       <r>   17.7259    0.0000 </r>
       <r>   19.6428    0.0000 </r>
       <r>   22.6396    0.0000 </r>
       <r>   25.3634    0.0000 </r>
       <r>   26.2007    0.0000 </r>
       <r>   31.4883    0.0000 </r>
       <r>   34.0052    0.0000 </r>
       <r>   35.2320    0.0000 </r>
       <r>   39.3367    0.0000 </r>
       <r>   39.6275    0.0000 </r>
       <r>   41.6063    0.0000 </r>
       <r>   45.3601    0.0000 </r>
       <r>   47.8626    0.0000 </r>
       <r>   53.4700    0.0000 </r>
       <r>   54.0621    0.0000 </r>
       <r>   56.8800    0.0000 </r>
       <r>   57.9711    0.0000 </r>
       <r>   59.6075    0.0000 </r>
       <r>   61.0082    0.0000 </r>
       <r>   61.4604    0.0000 </r>
       <r>   61.4623    0.0000 </r>
       <r>   63.4796    0.0000 </r>
       <r>   64.2941    0.0000 </r>
       <r>   65.8525    0.0000 </r>
       <r>   65.9933    0.0000 </r>
       <r>   67.8491    0.0000 </r>
       <r>   68.2132    0.0000 </r>
       <r>   68.4709    0.0000 </r>
      </set>
      <set comment="kpoint 18">
       <r>   -0.0941    1.0000 </r>
       <r>    3.2070    1.0000 </r>
       <r>    4.5627    1.0000 </r>
       <r>    4.8710    1.0000 </r>
       <r>    5.7208    1.0000 </r>
       <r>    5.7714    1.0000 </r>
       <r>    6.6024    1.0000 </r>
       <r>    6.6608    1.0000 </r>
       <r>    7.0778    1.0002 </r>
       <r>    7.0987    1.0004 </r>
       <r>    8.3817   -0.0000 </r>
       <r>   11.1578   -0.0000 </r>
       <r>   16.3342    0.0000 </r>
       <r>   27.0821    0.0000 </r>
       <r>   28.3037    0.0000 </r>
       <r>   31.7337    0.0000 </r>
       <r>   31.8323    0.0000 </r>
       <r>   35.2157    0.0000 </r>
       <r>   35.7100    0.0000 </r>
       <r>   35.8557    0.0000 </r>
       <r>   38.8191    0.0000 </r>
       <r>   42.6929    0.0000 </r>
       <r>   43.5218    0.0000 </r>
       <r>   44.1071    0.0000 </r>
       <r>   44.2586    0.0000 </r>
       <r>   46.6274    0.0000 </r>
       <r>   46.9905    0.0000 </r>
       <r>   53.0776    0.0000 </r>
       <r>   53.5680    0.0000 </r>
       <r>   55.1863    0.0000 </r>
       <r>   55.7586    0.0000 </r>
       <r>   56.8133    0.0000 </r>
       <r>   57.8503    0.0000 </r>
       <r>   60.5302    0.0000 </r>
       <r>   60.7393    0.0000 </r>
       <r>   61.7461    0.0000 </r>
       <r>   63.1804    0.0000 </r>
       <r>   66.0993    0.0000 </r>
       <r>   67.1203    0.0000 </r>
       <r>   68.1616    0.0000 </r>
      </set>
      <set comment="kpoint 19">
       <r>    1.4845    1.0000 </r>
       <r>    3.6426    1.0000 </r>
       <r>    3.7692    1.0000 </r>
       <r>    4.6217    1.0000 </r>
       <r>    5.4023    1.0000 </r>
       <r>    5.8975    1.0000 </r>
       <r>    6.5384    1.0000 </r>
       <r>    6.7772    1.0000 </r>
       <r>    7.8239   -0.0116 </r>
       <r>    8.0855   -0.0038 </r>
       <r>    8.4356   -0.0000 </r>
       <r>   13.1076    0.0000 </r>
       <r>   17.1646    0.0000 </r>
       <r>   22.5372    0.0000 </r>
       <r>   25.6108    0.0000 </r>
       <r>   27.8350    0.0000 </r>
       <r>   30.7635    0.0000 </r>
       <r>   31.9862    0.0000 </r>
       <r>   35.1326    0.0000 </r>
       <r>   36.0375    0.0000 </r>
       <r>   38.1442    0.0000 </r>
       <r>   41.9160    0.0000 </r>
       <r>   43.3947    0.0000 </r>
       <r>   45.1317    0.0000 </r>
       <r>   47.5285    0.0000 </r>
       <r>   48.2213    0.0000 </r>
       <r>   51.4504    0.0000 </r>
       <r>   53.2268    0.0000 </r>
       <r>   55.4793    0.0000 </r>
       <r>   56.2555    0.0000 </r>
       <r>   59.2398    0.0000 </r>
       <r>   59.4774    0.0000 </r>
       <r>   59.5977    0.0000 </r>
       <r>   60.5034    0.0000 </r>
       <r>   62.6192    0.0000 </r>
       <r>   62.8758    0.0000 </r>
       <r>   64.5592    0.0000 </r>
       <r>   66.6551    0.0000 </r>
       <r>   67.3596    0.0000 </r>
       <r>   67.8367    0.0000 </r>
      </set>
      <set comment="kpoint 20">
       <r>    2.6496    1.0000 </r>
       <r>    3.1704    1.0000 </r>
       <r>    3.4834    1.0000 </r>
       <r>    4.7302    1.0000 </r>
       <r>    5.7411    1.0000 </r>
       <r>    5.9660    1.0000 </r>
       <r>    6.2051    1.0000 </r>
       <r>    7.7737    0.0587 </r>
       <r>    8.2378   -0.0001 </r>
       <r>    8.5928   -0.0000 </r>
       <r>    9.7048   -0.0000 </r>
       <r>   14.6364    0.0000 </r>
       <r>   17.7670    0.0000 </r>
       <r>   19.7625    0.0000 </r>
       <r>   23.5861    0.0000 </r>
       <r>   24.3146    0.0000 </r>
       <r>   27.7296    0.0000 </r>
       <r>   29.6101    0.0000 </r>
       <r>   34.3418    0.0000 </r>
       <r>   36.6996    0.0000 </r>
       <r>   38.2186    0.0000 </r>
       <r>   41.2703    0.0000 </r>
       <r>   44.2945    0.0000 </r>
       <r>   45.7038    0.0000 </r>
       <r>   48.9151    0.0000 </r>
       <r>   50.3526    0.0000 </r>
       <r>   52.7301    0.0000 </r>
       <r>   54.9603    0.0000 </r>
       <r>   56.5485    0.0000 </r>
       <r>   58.0956    0.0000 </r>
       <r>   58.9876    0.0000 </r>
       <r>   60.8833    0.0000 </r>
       <r>   61.6743    0.0000 </r>
       <r>   63.4450    0.0000 </r>
       <r>   64.7427    0.0000 </r>
       <r>   65.6447    0.0000 </r>
       <r>   66.0934    0.0000 </r>
       <r>   66.6995    0.0000 </r>
       <r>   68.0245    0.0000 </r>
       <r>   69.7185    0.0000 </r>
      </set>
      <set comment="kpoint 21">
       <r>    2.7657    1.0000 </r>
       <r>    2.9414    1.0000 </r>
       <r>    3.5197    1.0000 </r>
       <r>    4.8221    1.0000 </r>
       <r>    5.7395    1.0000 </r>
       <r>    6.2178    1.0000 </r>
       <r>    6.2861    1.0000 </r>
       <r>    8.2231   -0.0002 </r>
       <r>    8.5595   -0.0000 </r>
       <r>    8.6733   -0.0000 </r>
       <r>   11.2446   -0.0000 </r>
       <r>   13.4052    0.0000 </r>
       <r>   18.8081    0.0000 </r>
       <r>   19.5071    0.0000 </r>
       <r>   22.8590    0.0000 </r>
       <r>   22.9717    0.0000 </r>
       <r>   25.2396    0.0000 </r>
       <r>   29.1224    0.0000 </r>
       <r>   33.7776    0.0000 </r>
       <r>   36.6905    0.0000 </r>
       <r>   39.2154    0.0000 </r>
       <r>   40.7525    0.0000 </r>
       <r>   44.1309    0.0000 </r>
       <r>   47.0130    0.0000 </r>
       <r>   47.3791    0.0000 </r>
       <r>   51.0127    0.0000 </r>
       <r>   54.1640    0.0000 </r>
       <r>   55.9923    0.0000 </r>
       <r>   58.3397    0.0000 </r>
       <r>   58.3536    0.0000 </r>
       <r>   60.7354    0.0000 </r>
       <r>   61.2075    0.0000 </r>
       <r>   61.9244    0.0000 </r>
       <r>   62.5860    0.0000 </r>
       <r>   64.2815    0.0000 </r>
       <r>   67.1454    0.0000 </r>
       <r>   67.2093    0.0000 </r>
       <r>   68.3497    0.0000 </r>
       <r>   68.8149    0.0000 </r>
       <r>   69.7612    0.0000 </r>
      </set>
      <set comment="kpoint 22">
       <r>    2.9742    1.0000 </r>
       <r>    3.4105    1.0000 </r>
       <r>    4.0031    1.0000 </r>
       <r>    4.1787    1.0000 </r>
       <r>    5.4450    1.0000 </r>
       <r>    5.7609    1.0000 </r>
       <r>    6.1714    1.0000 </r>
       <r>    7.0646    1.0002 </r>
       <r>    8.0680   -0.0053 </r>
       <r>    8.5728   -0.0000 </r>
       <r>    9.8705   -0.0000 </r>
       <r>   15.0304    0.0000 </r>
       <r>   18.6285    0.0000 </r>
       <r>   20.2982    0.0000 </r>
       <r>   21.4048    0.0000 </r>
       <r>   26.0841    0.0000 </r>
       <r>   27.0606    0.0000 </r>
       <r>   30.4870    0.0000 </r>
       <r>   31.1400    0.0000 </r>
       <r>   37.4516    0.0000 </r>
       <r>   41.2597    0.0000 </r>
       <r>   44.3715    0.0000 </r>
       <r>   44.9740    0.0000 </r>
       <r>   46.3675    0.0000 </r>
       <r>   46.4339    0.0000 </r>
       <r>   49.4862    0.0000 </r>
       <r>   50.7638    0.0000 </r>
       <r>   53.8664    0.0000 </r>
       <r>   54.0178    0.0000 </r>
       <r>   58.1937    0.0000 </r>
       <r>   58.4318    0.0000 </r>
       <r>   61.3365    0.0000 </r>
       <r>   62.0094    0.0000 </r>
       <r>   62.8277    0.0000 </r>
       <r>   64.7583    0.0000 </r>
       <r>   66.1317    0.0000 </r>
       <r>   66.4627    0.0000 </r>
       <r>   68.0030    0.0000 </r>
       <r>   68.1964    0.0000 </r>
       <r>   68.8097    0.0000 </r>
      </set>
      <set comment="kpoint 23">
       <r>    3.2527    1.0000 </r>
       <r>    3.6829    1.0000 </r>
       <r>    3.8569    1.0000 </r>
       <r>    4.5282    1.0000 </r>
       <r>    5.3875    1.0000 </r>
       <r>    5.6029    1.0000 </r>
       <r>    6.2871    1.0000 </r>
       <r>    7.7474    0.1198 </r>
       <r>    7.9353   -0.0295 </r>
       <r>    8.5545   -0.0000 </r>
       <r>   12.0218   -0.0000 </r>
       <r>   15.3937    0.0000 </r>
       <r>   18.3785    0.0000 </r>
       <r>   19.7341    0.0000 </r>
       <r>   21.0349    0.0000 </r>
       <r>   23.5155    0.0000 </r>
       <r>   25.7782    0.0000 </r>
       <r>   26.7345    0.0000 </r>
       <r>   30.0759    0.0000 </r>
       <r>   39.4209    0.0000 </r>
       <r>   41.8943    0.0000 </r>
       <r>   43.6082    0.0000 </r>
       <r>   45.9809    0.0000 </r>
       <r>   47.5558    0.0000 </r>
       <r>   48.8389    0.0000 </r>
       <r>   50.0329    0.0000 </r>
       <r>   51.6423    0.0000 </r>
       <r>   53.2081    0.0000 </r>
       <r>   55.7585    0.0000 </r>
       <r>   56.8814    0.0000 </r>
       <r>   58.2951    0.0000 </r>
       <r>   60.8077    0.0000 </r>
       <r>   61.0905    0.0000 </r>
       <r>   62.6054    0.0000 </r>
       <r>   66.4515    0.0000 </r>
       <r>   66.8819    0.0000 </r>
       <r>   67.9270    0.0000 </r>
       <r>   68.7892    0.0000 </r>
       <r>   69.0898    0.0000 </r>
       <r>   69.5029    0.0000 </r>
      </set>
      <set comment="kpoint 24">
       <r>    3.5122    1.0000 </r>
       <r>    4.1339    1.0000 </r>
       <r>    4.1340    1.0000 </r>
       <r>    4.2695    1.0000 </r>
       <r>    5.2814    1.0000 </r>
       <r>    5.2815    1.0000 </r>
       <r>    6.3941    1.0000 </r>
       <r>    7.7898    0.0299 </r>
       <r>    8.0445   -0.0079 </r>
       <r>    8.0446   -0.0079 </r>
       <r>   14.5310    0.0000 </r>
       <r>   15.6100    0.0000 </r>
       <r>   15.6102    0.0000 </r>
       <r>   21.1986    0.0000 </r>
       <r>   22.0266    0.0000 </r>
       <r>   22.0266    0.0000 </r>
       <r>   24.8311    0.0000 </r>
       <r>   26.8886    0.0000 </r>
       <r>   26.8887    0.0000 </r>
       <r>   40.5364    0.0000 </r>
       <r>   43.9792    0.0000 </r>
       <r>   43.9793    0.0000 </r>
       <r>   47.1293    0.0000 </r>
       <r>   48.7775    0.0000 </r>
       <r>   48.7775    0.0000 </r>
       <r>   50.8906    0.0000 </r>
       <r>   52.4465    0.0000 </r>
       <r>   52.4466    0.0000 </r>
       <r>   53.5900    0.0000 </r>
       <r>   56.0284    0.0000 </r>
       <r>   56.0284    0.0000 </r>
       <r>   59.2567    0.0000 </r>
       <r>   61.6260    0.0000 </r>
       <r>   61.6263    0.0000 </r>
       <r>   66.2940    0.0000 </r>
       <r>   68.1587    0.0000 </r>
       <r>   68.1589    0.0000 </r>
       <r>   69.3629    0.0000 </r>
       <r>   69.7073    0.0000 </r>
       <r>   69.7074    0.0000 </r>
      </set>
      <set comment="kpoint 25">
       <r>   -1.1847    1.0000 </r>
       <r>    2.0079    1.0000 </r>
       <r>    5.0533    1.0000 </r>
       <r>    5.7822    1.0000 </r>
       <r>    5.7939    1.0000 </r>
       <r>    5.7940    1.0000 </r>
       <r>    6.0667    1.0000 </r>
       <r>    6.0668    1.0000 </r>
       <r>    7.4278    1.0315 </r>
       <r>    7.4279    1.0315 </r>
       <r>    8.2977   -0.0000 </r>
       <r>    8.2977   -0.0000 </r>
       <r>   17.3943    0.0000 </r>
       <r>   28.6425    0.0000 </r>
       <r>   31.7901    0.0000 </r>
       <r>   33.6973    0.0000 </r>
       <r>   37.5067    0.0000 </r>
       <r>   37.5067    0.0000 </r>
       <r>   38.0504    0.0000 </r>
       <r>   38.0505    0.0000 </r>
       <r>   40.3786    0.0000 </r>
       <r>   40.3787    0.0000 </r>
       <r>   41.0378    0.0000 </r>
       <r>   43.0517    0.0000 </r>
       <r>   43.0518    0.0000 </r>
       <r>   43.1064    0.0000 </r>
       <r>   46.8682    0.0000 </r>
       <r>   50.0502    0.0000 </r>
       <r>   50.0505    0.0000 </r>
       <r>   52.3221    0.0000 </r>
       <r>   52.5233    0.0000 </r>
       <r>   52.5234    0.0000 </r>
       <r>   58.0520    0.0000 </r>
       <r>   61.3849    0.0000 </r>
       <r>   61.3853    0.0000 </r>
       <r>   61.7815    0.0000 </r>
       <r>   61.7822    0.0000 </r>
       <r>   62.1787    0.0000 </r>
       <r>   63.9134    0.0000 </r>
       <r>   67.7287    0.0000 </r>
      </set>
      <set comment="kpoint 26">
       <r>   -0.6911    1.0000 </r>
       <r>    2.4173    1.0000 </r>
       <r>    5.0432    1.0000 </r>
       <r>    5.1177    1.0000 </r>
       <r>    5.5728    1.0000 </r>
       <r>    6.0128    1.0000 </r>
       <r>    6.0777    1.0000 </r>
       <r>    6.3425    1.0000 </r>
       <r>    7.2835    1.0144 </r>
       <r>    7.3024    1.0183 </r>
       <r>    8.3222   -0.0000 </r>
       <r>    9.1186   -0.0000 </r>
       <r>   17.6117    0.0000 </r>
       <r>   28.9697    0.0000 </r>
       <r>   30.0773    0.0000 </r>
       <r>   32.2525    0.0000 </r>
       <r>   34.1410    0.0000 </r>
       <r>   34.6840    0.0000 </r>
       <r>   36.8730    0.0000 </r>
       <r>   38.5331    0.0000 </r>
       <r>   39.9839    0.0000 </r>
       <r>   41.9892    0.0000 </r>
       <r>   42.3356    0.0000 </r>
       <r>   43.1518    0.0000 </r>
       <r>   45.0315    0.0000 </r>
       <r>   46.1935    0.0000 </r>
       <r>   48.0386    0.0000 </r>
       <r>   48.4007    0.0000 </r>
       <r>   50.4839    0.0000 </r>
       <r>   52.9087    0.0000 </r>
       <r>   55.1282    0.0000 </r>
       <r>   55.4315    0.0000 </r>
       <r>   55.6921    0.0000 </r>
       <r>   59.2632    0.0000 </r>
       <r>   61.1859    0.0000 </r>
       <r>   62.6795    0.0000 </r>
       <r>   63.5672    0.0000 </r>
       <r>   63.8800    0.0000 </r>
       <r>   64.8543    0.0000 </r>
       <r>   65.9547    0.0000 </r>
      </set>
      <set comment="kpoint 27">
       <r>    0.6101    1.0000 </r>
       <r>    3.2050    1.0000 </r>
       <r>    4.1157    1.0000 </r>
       <r>    5.0364    1.0000 </r>
       <r>    5.1977    1.0000 </r>
       <r>    6.0121    1.0000 </r>
       <r>    6.6200    1.0000 </r>
       <r>    7.0304    1.0001 </r>
       <r>    7.1534    1.0014 </r>
       <r>    7.2898    1.0156 </r>
       <r>    8.3451   -0.0000 </r>
       <r>   10.5711   -0.0000 </r>
       <r>   18.3312    0.0000 </r>
       <r>   25.0909    0.0000 </r>
       <r>   28.6264    0.0000 </r>
       <r>   30.3885    0.0000 </r>
       <r>   30.8627    0.0000 </r>
       <r>   32.4961    0.0000 </r>
       <r>   35.1236    0.0000 </r>
       <r>   36.5710    0.0000 </r>
       <r>   38.9197    0.0000 </r>
       <r>   41.1854    0.0000 </r>
       <r>   43.2599    0.0000 </r>
       <r>   46.0249    0.0000 </r>
       <r>   48.4104    0.0000 </r>
       <r>   48.4337    0.0000 </r>
       <r>   48.6664    0.0000 </r>
       <r>   49.7808    0.0000 </r>
       <r>   53.6824    0.0000 </r>
       <r>   55.8237    0.0000 </r>
       <r>   57.3131    0.0000 </r>
       <r>   57.4027    0.0000 </r>
       <r>   57.9508    0.0000 </r>
       <r>   58.5071    0.0000 </r>
       <r>   61.3699    0.0000 </r>
       <r>   63.0821    0.0000 </r>
       <r>   64.0810    0.0000 </r>
       <r>   64.7152    0.0000 </r>
       <r>   65.6925    0.0000 </r>
       <r>   68.4342    0.0000 </r>
      </set>
      <set comment="kpoint 28">
       <r>    1.9621    1.0000 </r>
       <r>    3.0713    1.0000 </r>
       <r>    3.6708    1.0000 </r>
       <r>    4.6081    1.0000 </r>
       <r>    5.7500    1.0000 </r>
       <r>    6.4815    1.0000 </r>
       <r>    6.5151    1.0000 </r>
       <r>    7.7493    0.1148 </r>
       <r>    7.9009   -0.0349 </r>
       <r>    8.0808   -0.0042 </r>
       <r>    8.4294   -0.0000 </r>
       <r>   12.0396   -0.0000 </r>
       <r>   19.2243    0.0000 </r>
       <r>   20.7967    0.0000 </r>
       <r>   24.5902    0.0000 </r>
       <r>   28.2798    0.0000 </r>
       <r>   29.4287    0.0000 </r>
       <r>   31.9974    0.0000 </r>
       <r>   33.9270    0.0000 </r>
       <r>   34.7133    0.0000 </r>
       <r>   36.7951    0.0000 </r>
       <r>   42.0064    0.0000 </r>
       <r>   42.2853    0.0000 </r>
       <r>   45.9391    0.0000 </r>
       <r>   48.6399    0.0000 </r>
       <r>   51.1569    0.0000 </r>
       <r>   52.5791    0.0000 </r>
       <r>   53.2396    0.0000 </r>
       <r>   56.9643    0.0000 </r>
       <r>   57.6493    0.0000 </r>
       <r>   58.0785    0.0000 </r>
       <r>   59.6287    0.0000 </r>
       <r>   60.7329    0.0000 </r>
       <r>   61.1751    0.0000 </r>
       <r>   63.2186    0.0000 </r>
       <r>   63.6079    0.0000 </r>
       <r>   64.7086    0.0000 </r>
       <r>   66.6715    0.0000 </r>
       <r>   67.9030    0.0000 </r>
       <r>   69.7246    0.0000 </r>
      </set>
      <set comment="kpoint 29">
       <r>    2.3152    1.0000 </r>
       <r>    2.7399    1.0000 </r>
       <r>    3.6947    1.0000 </r>
       <r>    4.2850    1.0000 </r>
       <r>    6.2085    1.0000 </r>
       <r>    6.3060    1.0000 </r>
       <r>    7.4218    1.0331 </r>
       <r>    8.1383   -0.0013 </r>
       <r>    8.7713   -0.0000 </r>
       <r>    8.8721   -0.0000 </r>
       <r>    9.3735   -0.0000 </r>
       <r>   12.6776   -0.0000 </r>
       <r>   17.6654    0.0000 </r>
       <r>   19.5017    0.0000 </r>
       <r>   23.3900    0.0000 </r>
       <r>   26.5065    0.0000 </r>
       <r>   26.7779    0.0000 </r>
       <r>   31.4943    0.0000 </r>
       <r>   33.5176    0.0000 </r>
       <r>   33.8021    0.0000 </r>
       <r>   37.4773    0.0000 </r>
       <r>   40.8925    0.0000 </r>
       <r>   41.2735    0.0000 </r>
       <r>   45.5466    0.0000 </r>
       <r>   50.1426    0.0000 </r>
       <r>   51.6974    0.0000 </r>
       <r>   54.3585    0.0000 </r>
       <r>   56.3520    0.0000 </r>
       <r>   57.9615    0.0000 </r>
       <r>   59.8970    0.0000 </r>
       <r>   60.6605    0.0000 </r>
       <r>   61.1115    0.0000 </r>
       <r>   62.8810    0.0000 </r>
       <r>   63.6032    0.0000 </r>
       <r>   65.1274    0.0000 </r>
       <r>   65.8447    0.0000 </r>
       <r>   66.2421    0.0000 </r>
       <r>   67.3516    0.0000 </r>
       <r>   69.2208    0.0000 </r>
       <r>   69.2337    0.0000 </r>
      </set>
      <set comment="kpoint 30">
       <r>    0.2204    1.0000 </r>
       <r>    3.0940    1.0000 </r>
       <r>    4.3335    1.0000 </r>
       <r>    4.9512    1.0000 </r>
       <r>    5.4347    1.0000 </r>
       <r>    5.7318    1.0000 </r>
       <r>    6.5522    1.0000 </r>
       <r>    6.7945    1.0000 </r>
       <r>    7.1862    1.0028 </r>
       <r>    7.3056    1.0190 </r>
       <r>    8.3001   -0.0000 </r>
       <r>   10.1959   -0.0000 </r>
       <r>   18.0965    0.0000 </r>
       <r>   27.3031    0.0000 </r>
       <r>   28.5726    0.0000 </r>
       <r>   29.8855    0.0000 </r>
       <r>   30.9774    0.0000 </r>
       <r>   33.6029    0.0000 </r>
       <r>   36.6112    0.0000 </r>
       <r>   36.7805    0.0000 </r>
       <r>   39.6145    0.0000 </r>
       <r>   41.9724    0.0000 </r>
       <r>   44.1021    0.0000 </r>
       <r>   44.1039    0.0000 </r>
       <r>   45.7971    0.0000 </r>
       <r>   47.6951    0.0000 </r>
       <r>   47.7372    0.0000 </r>
       <r>   52.4555    0.0000 </r>
       <r>   52.4646    0.0000 </r>
       <r>   54.7028    0.0000 </r>
       <r>   55.0228    0.0000 </r>
       <r>   56.8344    0.0000 </r>
       <r>   56.8956    0.0000 </r>
       <r>   60.5908    0.0000 </r>
       <r>   61.0852    0.0000 </r>
       <r>   62.5616    0.0000 </r>
       <r>   63.2736    0.0000 </r>
       <r>   64.1135    0.0000 </r>
       <r>   66.6075    0.0000 </r>
       <r>   67.2284    0.0000 </r>
      </set>
      <set comment="kpoint 31">
       <r>    1.6725    1.0000 </r>
       <r>    3.4613    1.0000 </r>
       <r>    3.8590    1.0000 </r>
       <r>    4.7116    1.0000 </r>
       <r>    5.2427    1.0000 </r>
       <r>    5.8632    1.0000 </r>
       <r>    6.5458    1.0000 </r>
       <r>    7.0526    1.0001 </r>
       <r>    7.8404   -0.0234 </r>
       <r>    7.9670   -0.0223 </r>
       <r>    8.4755   -0.0000 </r>
       <r>   11.6600   -0.0000 </r>
       <r>   19.1666    0.0000 </r>
       <r>   22.8396    0.0000 </r>
       <r>   25.8490    0.0000 </r>
       <r>   27.0194    0.0000 </r>
       <r>   29.7410    0.0000 </r>
       <r>   31.9775    0.0000 </r>
       <r>   34.1666    0.0000 </r>
       <r>   37.0093    0.0000 </r>
       <r>   38.4532    0.0000 </r>
       <r>   41.1021    0.0000 </r>
       <r>   45.1818    0.0000 </r>
       <r>   45.9899    0.0000 </r>
       <r>   46.8136    0.0000 </r>
       <r>   48.0279    0.0000 </r>
       <r>   51.2248    0.0000 </r>
       <r>   53.0344    0.0000 </r>
       <r>   54.0234    0.0000 </r>
       <r>   57.3736    0.0000 </r>
       <r>   58.6666    0.0000 </r>
       <r>   59.9481    0.0000 </r>
       <r>   60.1661    0.0000 </r>
       <r>   60.7780    0.0000 </r>
       <r>   61.7960    0.0000 </r>
       <r>   63.6385    0.0000 </r>
       <r>   64.1244    0.0000 </r>
       <r>   65.3169    0.0000 </r>
       <r>   67.3868    0.0000 </r>
       <r>   69.1364    0.0000 </r>
      </set>
      <set comment="kpoint 32">
       <r>    2.5403    1.0000 </r>
       <r>    3.1503    1.0000 </r>
       <r>    3.7217    1.0000 </r>
       <r>    4.4623    1.0000 </r>
       <r>    5.6941    1.0000 </r>
       <r>    6.3450    1.0000 </r>
       <r>    6.4894    1.0000 </r>
       <r>    7.7619    0.0840 </r>
       <r>    7.9773   -0.0199 </r>
       <r>    8.6757   -0.0000 </r>
       <r>    9.6965   -0.0000 </r>
       <r>   13.1831    0.0000 </r>
       <r>   18.4814    0.0000 </r>
       <r>   20.6958    0.0000 </r>
       <r>   23.2197    0.0000 </r>
       <r>   24.6223    0.0000 </r>
       <r>   28.5035    0.0000 </r>
       <r>   29.1458    0.0000 </r>
       <r>   34.9506    0.0000 </r>
       <r>   35.4481    0.0000 </r>
       <r>   37.7371    0.0000 </r>
       <r>   40.1353    0.0000 </r>
       <r>   44.9489    0.0000 </r>
       <r>   46.5647    0.0000 </r>
       <r>   48.1983    0.0000 </r>
       <r>   50.0123    0.0000 </r>
       <r>   53.3331    0.0000 </r>
       <r>   55.8123    0.0000 </r>
       <r>   56.9687    0.0000 </r>
       <r>   58.0456    0.0000 </r>
       <r>   59.5760    0.0000 </r>
       <r>   60.8808    0.0000 </r>
       <r>   61.5345    0.0000 </r>
       <r>   63.3082    0.0000 </r>
       <r>   64.4587    0.0000 </r>
       <r>   65.1589    0.0000 </r>
       <r>   66.5080    0.0000 </r>
       <r>   66.9962    0.0000 </r>
       <r>   67.6359    0.0000 </r>
       <r>   69.9439    0.0000 </r>
      </set>
      <set comment="kpoint 33">
       <r>    2.5598    1.0000 </r>
       <r>    2.9879    1.0000 </r>
       <r>    3.9285    1.0000 </r>
       <r>    4.2673    1.0000 </r>
       <r>    5.6503    1.0000 </r>
       <r>    6.6147    1.0000 </r>
       <r>    6.8430    1.0000 </r>
       <r>    7.9496   -0.0263 </r>
       <r>    8.5393   -0.0000 </r>
       <r>    8.6876   -0.0000 </r>
       <r>   11.0906   -0.0000 </r>
       <r>   13.0626   -0.0000 </r>
       <r>   18.3217    0.0000 </r>
       <r>   18.6787    0.0000 </r>
       <r>   23.5965    0.0000 </r>
       <r>   24.3840    0.0000 </r>
       <r>   26.3142    0.0000 </r>
       <r>   28.2892    0.0000 </r>
       <r>   34.7291    0.0000 </r>
       <r>   36.1821    0.0000 </r>
       <r>   37.8924    0.0000 </r>
       <r>   38.6649    0.0000 </r>
       <r>   44.0534    0.0000 </r>
       <r>   47.7134    0.0000 </r>
       <r>   48.2959    0.0000 </r>
       <r>   50.7815    0.0000 </r>
       <r>   55.8467    0.0000 </r>
       <r>   56.7593    0.0000 </r>
       <r>   58.0730    0.0000 </r>
       <r>   58.7374    0.0000 </r>
       <r>   59.8590    0.0000 </r>
       <r>   60.7136    0.0000 </r>
       <r>   62.3688    0.0000 </r>
       <r>   63.3889    0.0000 </r>
       <r>   63.7246    0.0000 </r>
       <r>   66.8438    0.0000 </r>
       <r>   67.0956    0.0000 </r>
       <r>   68.8111    0.0000 </r>
       <r>   68.8539    0.0000 </r>
       <r>   69.8837    0.0000 </r>
      </set>
      <set comment="kpoint 34">
       <r>    2.9720    1.0000 </r>
       <r>    3.3114    1.0000 </r>
       <r>    4.0895    1.0000 </r>
       <r>    4.3769    1.0000 </r>
       <r>    5.4912    1.0000 </r>
       <r>    5.5769    1.0000 </r>
       <r>    6.2070    1.0000 </r>
       <r>    7.3040    1.0186 </r>
       <r>    7.8002    0.0145 </r>
       <r>    8.6859   -0.0000 </r>
       <r>    9.9515   -0.0000 </r>
       <r>   13.4525    0.0000 </r>
       <r>   20.4781    0.0000 </r>
       <r>   20.6267    0.0000 </r>
       <r>   21.8265    0.0000 </r>
       <r>   25.2281    0.0000 </r>
       <r>   25.9528    0.0000 </r>
       <r>   31.8123    0.0000 </r>
       <r>   32.0152    0.0000 </r>
       <r>   35.6940    0.0000 </r>
       <r>   41.5094    0.0000 </r>
       <r>   43.7138    0.0000 </r>
       <r>   43.7569    0.0000 </r>
       <r>   44.9625    0.0000 </r>
       <r>   48.4193    0.0000 </r>
       <r>   49.7738    0.0000 </r>
       <r>   51.2134    0.0000 </r>
       <r>   53.8041    0.0000 </r>
       <r>   55.3395    0.0000 </r>
       <r>   59.0636    0.0000 </r>
       <r>   59.6969    0.0000 </r>
       <r>   61.4181    0.0000 </r>
       <r>   61.8600    0.0000 </r>
       <r>   62.6708    0.0000 </r>
       <r>   64.2312    0.0000 </r>
       <r>   64.9433    0.0000 </r>
       <r>   65.6096    0.0000 </r>
       <r>   67.0130    0.0000 </r>
       <r>   68.9670    0.0000 </r>
       <r>   68.9803    0.0000 </r>
      </set>
      <set comment="kpoint 35">
       <r>    3.1603    1.0000 </r>
       <r>    3.7537    1.0000 </r>
       <r>    3.9825    1.0000 </r>
       <r>    4.4708    1.0000 </r>
       <r>    5.2228    1.0000 </r>
       <r>    5.7108    1.0000 </r>
       <r>    6.4567    1.0000 </r>
       <r>    7.6263    0.5731 </r>
       <r>    7.8726   -0.0344 </r>
       <r>    8.6324   -0.0000 </r>
       <r>   12.1699   -0.0000 </r>
       <r>   14.8912    0.0000 </r>
       <r>   17.9557    0.0000 </r>
       <r>   19.8991    0.0000 </r>
       <r>   20.9285    0.0000 </r>
       <r>   24.1325    0.0000 </r>
       <r>   25.0273    0.0000 </r>
       <r>   28.1995    0.0000 </r>
       <r>   31.6096    0.0000 </r>
       <r>   37.0823    0.0000 </r>
       <r>   40.2049    0.0000 </r>
       <r>   42.5909    0.0000 </r>
       <r>   44.9823    0.0000 </r>
       <r>   47.5073    0.0000 </r>
       <r>   50.3923    0.0000 </r>
       <r>   51.0987    0.0000 </r>
       <r>   52.8795    0.0000 </r>
       <r>   54.4612    0.0000 </r>
       <r>   55.9602    0.0000 </r>
       <r>   57.8444    0.0000 </r>
       <r>   59.2087    0.0000 </r>
       <r>   60.0848    0.0000 </r>
       <r>   61.2667    0.0000 </r>
       <r>   63.2472    0.0000 </r>
       <r>   65.4264    0.0000 </r>
       <r>   66.4035    0.0000 </r>
       <r>   67.0806    0.0000 </r>
       <r>   67.9643    0.0000 </r>
       <r>   69.2125    0.0000 </r>
       <r>   69.9857    0.0000 </r>
      </set>
      <set comment="kpoint 36">
       <r>    3.6488    1.0000 </r>
       <r>    4.1181    1.0000 </r>
       <r>    4.1181    1.0000 </r>
       <r>    4.2739    1.0000 </r>
       <r>    5.2331    1.0000 </r>
       <r>    5.2332    1.0000 </r>
       <r>    6.3901    1.0000 </r>
       <r>    7.4785    0.9964 </r>
       <r>    8.1720   -0.0006 </r>
       <r>    8.1721   -0.0006 </r>
       <r>   15.0334    0.0000 </r>
       <r>   15.5959    0.0000 </r>
       <r>   15.5960    0.0000 </r>
       <r>   19.9543    0.0000 </r>
       <r>   21.2132    0.0000 </r>
       <r>   21.2132    0.0000 </r>
       <r>   26.5358    0.0000 </r>
       <r>   28.4217    0.0000 </r>
       <r>   28.4218    0.0000 </r>
       <r>   38.0483    0.0000 </r>
       <r>   41.3937    0.0000 </r>
       <r>   41.3938    0.0000 </r>
       <r>   47.9769    0.0000 </r>
       <r>   49.9184    0.0000 </r>
       <r>   49.9185    0.0000 </r>
       <r>   52.6600    0.0000 </r>
       <r>   53.4675    0.0000 </r>
       <r>   54.2644    0.0000 </r>
       <r>   54.2645    0.0000 </r>
       <r>   55.5269    0.0000 </r>
       <r>   55.5269    0.0000 </r>
       <r>   60.2173    0.0000 </r>
       <r>   61.8253    0.0000 </r>
       <r>   61.8255    0.0000 </r>
       <r>   66.0573    0.0000 </r>
       <r>   67.4328    0.0000 </r>
       <r>   67.4332    0.0000 </r>
       <r>   69.5400    0.0000 </r>
       <r>   70.4626    0.0000 </r>
       <r>   70.4627    0.0000 </r>
      </set>
      <set comment="kpoint 37">
       <r>   -0.6058    1.0000 </r>
       <r>    1.5967    1.0000 </r>
       <r>    4.9310    1.0000 </r>
       <r>    5.1674    1.0000 </r>
       <r>    5.7881    1.0000 </r>
       <r>    5.7882    1.0000 </r>
       <r>    5.9722    1.0000 </r>
       <r>    5.9723    1.0000 </r>
       <r>    7.6377    0.5250 </r>
       <r>    7.6378    0.5249 </r>
       <r>    8.2004   -0.0003 </r>
[...]
       <r>   22.9753    0.0000 </r>
       <r>   23.8170    0.0000 </r>
       <r>   26.1380    0.0000 </r>
       <r>   28.3225    0.0000 </r>
       <r>   35.9721    0.0000 </r>
       <r>   37.8406    0.0000 </r>
       <r>   38.2566    0.0000 </r>
       <r>   39.9749    0.0000 </r>
       <r>   43.3650    0.0000 </r>
       <r>   43.8073    0.0000 </r>
       <r>   49.5627    0.0000 </r>
       <r>   49.7834    0.0000 </r>
       <r>   54.4993    0.0000 </r>
       <r>   56.4612    0.0000 </r>
       <r>   58.5525    0.0000 </r>
       <r>   58.7129    0.0000 </r>
       <r>   59.2846    0.0000 </r>
       <r>   60.3870    0.0000 </r>
       <r>   62.0541    0.0000 </r>
       <r>   62.1508    0.0000 </r>
       <r>   62.6950    0.0000 </r>
       <r>   63.0251    0.0000 </r>
       <r>   65.3863    0.0000 </r>
       <r>   67.4141    0.0000 </r>
       <r>   68.5467    0.0000 </r>
       <r>   68.9347    0.0000 </r>
      </set>
      <set comment="kpoint 59">
       <r>    3.2308    1.0000 </r>
       <r>    3.4022    1.0000 </r>
       <r>    4.3255    1.0000 </r>
       <r>    4.6094    1.0000 </r>
       <r>    5.2190    1.0000 </r>
       <r>    5.5644    1.0000 </r>
       <r>    6.7700    1.0000 </r>
       <r>    6.9640    1.0000 </r>
       <r>    8.3757   -0.0000 </r>
       <r>    8.5916   -0.0000 </r>
       <r>   12.8071   -0.0000 </r>
       <r>   13.3872    0.0000 </r>
       <r>   18.3618    0.0000 </r>
       <r>   18.9256    0.0000 </r>
       <r>   21.6720    0.0000 </r>
       <r>   22.5009    0.0000 </r>
       <r>   28.2590    0.0000 </r>
       <r>   29.8859    0.0000 </r>
       <r>   33.7056    0.0000 </r>
       <r>   35.1585    0.0000 </r>
       <r>   36.8866    0.0000 </r>
       <r>   38.7072    0.0000 </r>
       <r>   45.0126    0.0000 </r>
       <r>   45.7537    0.0000 </r>
       <r>   52.1252    0.0000 </r>
       <r>   52.8094    0.0000 </r>
       <r>   55.8803    0.0000 </r>
       <r>   57.3247    0.0000 </r>
       <r>   58.2451    0.0000 </r>
       <r>   58.5641    0.0000 </r>
       <r>   59.6461    0.0000 </r>
       <r>   60.7837    0.0000 </r>
       <r>   61.8456    0.0000 </r>
       <r>   62.3148    0.0000 </r>
       <r>   64.4311    0.0000 </r>
       <r>   64.6449    0.0000 </r>
       <r>   66.5545    0.0000 </r>
       <r>   67.1225    0.0000 </r>
       <r>   67.8286    0.0000 </r>
       <r>   68.0718    0.0000 </r>
      </set>
      <set comment="kpoint 60">
       <r>    4.0374    1.0000 </r>
       <r>    4.0841    1.0000 </r>
       <r>    4.0841    1.0000 </r>
       <r>    4.1831    1.0000 </r>
       <r>    5.1587    1.0000 </r>
       <r>    5.1588    1.0000 </r>
       <r>    6.5250    1.0000 </r>
       <r>    6.7522    1.0000 </r>
       <r>    8.4037   -0.0000 </r>
       <r>    8.4037   -0.0000 </r>
       <r>   15.5665    0.0000 </r>
       <r>   15.5666    0.0000 </r>
       <r>   16.6539    0.0000 </r>
       <r>   17.6583    0.0000 </r>
       <r>   20.1755    0.0000 </r>
       <r>   20.1755    0.0000 </r>
       <r>   30.6284    0.0000 </r>
       <r>   31.7521    0.0000 </r>
       <r>   31.7522    0.0000 </r>
       <r>   32.9614    0.0000 </r>
       <r>   37.1282    0.0000 </r>
       <r>   37.1282    0.0000 </r>
       <r>   49.5653    0.0000 </r>
       <r>   50.5333    0.0000 </r>
       <r>   50.5639    0.0000 </r>
       <r>   50.5639    0.0000 </r>
       <r>   54.6231    0.0000 </r>
       <r>   54.6232    0.0000 </r>
       <r>   59.7005    0.0000 </r>
       <r>   59.7006    0.0000 </r>
       <r>   60.0116    0.0000 </r>
       <r>   61.7267    0.0000 </r>
       <r>   62.0285    0.0000 </r>
       <r>   62.0286    0.0000 </r>
       <r>   63.2197    0.0000 </r>
       <r>   63.2199    0.0000 </r>
       <r>   65.4958    0.0000 </r>
       <r>   66.8060    0.0000 </r>
       <r>   69.4688    0.0000 </r>
       <r>   69.4688    0.0000 </r>
      </set>
     </set>
    </set>
   </array>
  </eigenvalues>
  <separator name="orbital magnetization" >
   <v name="MAGDIPOLOUT">      0.00000000      0.00000000      0.00000000</v>
  </separator>
  <dos>
   <i name="efermi">      7.64364650 </i>
   <total>
    <array>
     <dimension dim="1">gridpoints</dimension>
     <dimension dim="2">spin</dimension>
     <field>energy</field>
     <field>total</field>
     <field>integrated</field>
     <set>
      <set comment="spin 1">
       <r>    -5.2987     0.0000     0.0000 </r>
       <r>    -5.0330     0.0000     0.0000 </r>
       <r>    -4.7672     0.0000     0.0000 </r>
       <r>    -4.5014     0.0000     0.0000 </r>
       <r>    -4.2356     0.0000     0.0000 </r>
       <r>    -3.9698     0.0000     0.0000 </r>
       <r>    -3.7040     0.0000     0.0000 </r>
       <r>    -3.4382    -0.0000    -0.0000 </r>
       <r>    -3.1724    -0.0000    -0.0000 </r>
       <r>    -2.9066    -0.0000    -0.0000 </r>
       <r>    -2.6408    -0.0000    -0.0000 </r>
       <r>    -2.3751    -0.0000    -0.0000 </r>
       <r>    -2.1093    -0.0001    -0.0000 </r>
       <r>    -1.8435    -0.0006    -0.0002 </r>
       <r>    -1.5777     0.0168     0.0043 </r>
       <r>    -1.3119     0.0144     0.0081 </r>
       <r>    -1.0461     0.1348     0.0439 </r>
       <r>    -0.7803     0.0969     0.0697 </r>
       <r>    -0.5145     0.1140     0.1000 </r>
       <r>    -0.2487     0.0381     0.1101 </r>
       <r>     0.0171     0.2574     0.1785 </r>
       <r>     0.2829     0.2144     0.2355 </r>
       <r>     0.5486     0.2208     0.2942 </r>
       <r>     0.8144     0.2746     0.3672 </r>
       <r>     1.0802     0.0943     0.3923 </r>
       <r>     1.3460     0.2087     0.4478 </r>
       <r>     1.6118     0.5808     0.6021 </r>
       <r>     1.8776     0.4413     0.7194 </r>
       <r>     2.1434     0.7407     0.9163 </r>
       <r>     2.4092     0.9533     1.1697 </r>
       <r>     2.6750     2.1228     1.7339 </r>
       <r>     2.9408     1.9858     2.2617 </r>
       <r>     3.2066     2.9475     3.0451 </r>
       <r>     3.4723     2.3776     3.6771 </r>
       <r>     3.7381     2.1589     4.2509 </r>
       <r>     4.0039     2.8154     4.9992 </r>
       <r>     4.2697     3.0261     5.8035 </r>
       <r>     4.5355     2.7052     6.5225 </r>
       <r>     4.8013     2.9254     7.3000 </r>
       <r>     5.0671     2.0703     7.8503 </r>
       <r>     5.3329     2.8748     8.6144 </r>
       <r>     5.5987     3.3263     9.4985 </r>
       <r>     5.8645     4.2504    10.6282 </r>
       <r>     6.1303     3.0686    11.4438 </r>
       <r>     6.3960     3.2144    12.2982 </r>
       <r>     6.6618     4.1175    13.3926 </r>
       <r>     6.9276     3.1965    14.2422 </r>
       <r>     7.1934     3.0304    15.0476 </r>
       <r>     7.4592     2.2670    15.6502 </r>
       <r>     7.7250     2.2941    16.2599 </r>
       <r>     7.9908     4.2220    17.3821 </r>
       <r>     8.2566     4.0647    18.4625 </r>
       <r>     8.5224     4.6179    19.6899 </r>
       <r>     8.7882     4.3254    20.8395 </r>
       <r>     9.0539     1.0713    21.1242 </r>
       <r>     9.3197     0.2956    21.2028 </r>
       <r>     9.5855     0.6490    21.3753 </r>
       <r>     9.8513     1.1611    21.6839 </r>
       <r>    10.1171     0.6705    21.8621 </r>
       <r>    10.3829     0.3984    21.9680 </r>
       <r>    10.6487     0.4812    22.0959 </r>
       <r>    10.9145     0.3135    22.1792 </r>
       <r>    11.1803     0.4356    22.2950 </r>
       <r>    11.4461     0.3285    22.3823 </r>
       <r>    11.7119     0.4040    22.4897 </r>
       <r>    11.9776     0.7090    22.6782 </r>
       <r>    12.2434     0.6642    22.8547 </r>
       <r>    12.5092     0.3599    22.9504 </r>
       <r>    12.7750     0.3049    23.0314 </r>
       <r>    13.0408     0.2970    23.1104 </r>
       <r>    13.3066     0.5490    23.2563 </r>
       <r>    13.5724     0.5920    23.4136 </r>
       <r>    13.8382     0.1798    23.4614 </r>
       <r>    14.1040     0.1632    23.5048 </r>
       <r>    14.3698     0.2678    23.5760 </r>
       <r>    14.6356     0.1562    23.6175 </r>
       <r>    14.9013     0.2896    23.6945 </r>
       <r>    15.1671     0.2918    23.7720 </r>
       <r>    15.4329     0.2701    23.8438 </r>
       <r>    15.6987     0.7557    24.0447 </r>
       <r>    15.9645     0.3115    24.1275 </r>
       <r>    16.2303     0.1450    24.1660 </r>
       <r>    16.4961     0.1727    24.2119 </r>
       <r>    16.7619     0.1532    24.2526 </r>
       <r>    17.0277     0.1739    24.2989 </r>
       <r>    17.2935     0.2867    24.3751 </r>
       <r>    17.5593     0.1635    24.4185 </r>
       <r>    17.8250     0.8512    24.6448 </r>
       <r>    18.0908     0.9657    24.9014 </r>
       <r>    18.3566     0.6449    25.0728 </r>
       <r>    18.6224     0.7906    25.2830 </r>
       <r>    18.8882     0.4867    25.4123 </r>
       <r>    19.1540     0.7574    25.6136 </r>
       <r>    19.4198     0.4231    25.7261 </r>
       <r>    19.6856     1.1229    26.0245 </r>
       <r>    19.9514     0.7330    26.2194 </r>
       <r>    20.2172     0.4037    26.3267 </r>
       <r>    20.4829     0.6922    26.5106 </r>
       <r>    20.7487     0.7495    26.7098 </r>
       <r>    21.0145     0.8573    26.9377 </r>
       <r>    21.2803     0.6968    27.1229 </r>
       <r>    21.5461     0.4619    27.2457 </r>
       <r>    21.8119     0.5431    27.3900 </r>
       <r>    22.0777     0.5518    27.5367 </r>
       <r>    22.3435     0.1569    27.5784 </r>
       <r>    22.6093     0.8174    27.7957 </r>
       <r>    22.8751     0.7184    27.9866 </r>
       <r>    23.1409     0.4244    28.0994 </r>
       <r>    23.4066     0.7130    28.2889 </r>
       <r>    23.6724     1.0896    28.5785 </r>
       <r>    23.9382     0.4971    28.7107 </r>
       <r>    24.2040     0.6654    28.8875 </r>
       <r>    24.4698     0.6418    29.0581 </r>
       <r>    24.7356     0.5948    29.2162 </r>
       <r>    25.0014     1.0378    29.4921 </r>
       <r>    25.2672     0.7794    29.6992 </r>
       <r>    25.5330     1.0425    29.9763 </r>
       <r>    25.7988     0.8376    30.1989 </r>
       <r>    26.0646     0.6672    30.3763 </r>
       <r>    26.3303     0.9993    30.6418 </r>
       <r>    26.5961     1.0522    30.9215 </r>
       <r>    26.8619     0.9094    31.1632 </r>
       <r>    27.1277     0.9968    31.4282 </r>
       <r>    27.3935     0.4359    31.5440 </r>
       <r>    27.6593     1.0123    31.8131 </r>
       <r>    27.9251     1.1379    32.1155 </r>
       <r>    28.1909     0.4060    32.2234 </r>
       <r>    28.4567     1.8217    32.7076 </r>
       <r>    28.7225     0.9417    32.9579 </r>
       <r>    28.9883     0.5699    33.1094 </r>
       <r>    29.2540     0.5264    33.2493 </r>
       <r>    29.5198     0.4814    33.3773 </r>
       <r>    29.7856     1.0788    33.6640 </r>
       <r>    30.0514     0.8477    33.8893 </r>
       <r>    30.3172     0.9466    34.1409 </r>
       <r>    30.5830     0.8733    34.3730 </r>
       <r>    30.8488     0.4140    34.4831 </r>
       <r>    31.1146     0.4207    34.5949 </r>
       <r>    31.3804     0.5356    34.7372 </r>
       <r>    31.6462     1.1437    35.0412 </r>
       <r>    31.9119     1.0211    35.3126 </r>
       <r>    32.1777     0.9788    35.5728 </r>
       <r>    32.4435     0.6532    35.7464 </r>
       <r>    32.7093     0.6327    35.9146 </r>
       <r>    32.9751     0.2719    35.9868 </r>
       <r>    33.2409     0.6914    36.1706 </r>
       <r>    33.5067     0.2116    36.2268 </r>
       <r>    33.7725     1.0778    36.5133 </r>
       <r>    34.0383     0.9899    36.7764 </r>
       <r>    34.3041     0.8414    37.0000 </r>
       <r>    34.5699     0.4661    37.1239 </r>
       <r>    34.8356     0.7179    37.3147 </r>
       <r>    35.1014     0.9301    37.5619 </r>
       <r>    35.3672     1.6147    37.9911 </r>
       <r>    35.6330     0.7436    38.1888 </r>
       <r>    35.8988     0.3756    38.2886 </r>
       <r>    36.1646     0.8277    38.5086 </r>
       <r>    36.4304     0.7749    38.7145 </r>
       <r>    36.6962     0.8271    38.9344 </r>
       <r>    36.9620     1.0241    39.2066 </r>
       <r>    37.2278     1.0861    39.4952 </r>
       <r>    37.4936     0.7724    39.7005 </r>
       <r>    37.7593     0.9303    39.9478 </r>
       <r>    38.0251     1.6717    40.3921 </r>
       <r>    38.2909     1.1542    40.6989 </r>
       <r>    38.5567     0.6762    40.8786 </r>
       <r>    38.8225     0.7670    41.0825 </r>
       <r>    39.0883     0.8610    41.3113 </r>
       <r>    39.3541     0.6453    41.4828 </r>
       <r>    39.6199     0.8463    41.7078 </r>
       <r>    39.8857     0.4029    41.8149 </r>
       <r>    40.1515     0.6366    41.9840 </r>
       <r>    40.4172     0.7694    42.1885 </r>
       <r>    40.6830     0.5837    42.3437 </r>
       <r>    40.9488     0.8830    42.5784 </r>
       <r>    41.2146     1.1839    42.8931 </r>
       <r>    41.4804     0.7749    43.0990 </r>
       <r>    41.7462     0.2537    43.1665 </r>
       <r>    42.0120     1.1454    43.4709 </r>
       <r>    42.2778     1.0066    43.7385 </r>
       <r>    42.5436     0.8102    43.9538 </r>
       <r>    42.8094     0.7671    44.1577 </r>
       <r>    43.0752     0.8485    44.3832 </r>
       <r>    43.3409     0.9568    44.6375 </r>
       <r>    43.6067     1.2623    44.9730 </r>
       <r>    43.8725     0.7996    45.1855 </r>
       <r>    44.1383     0.8545    45.4127 </r>
       <r>    44.4041     1.6063    45.8396 </r>
       <r>    44.6699     1.0675    46.1233 </r>
       <r>    44.9357     0.8445    46.3478 </r>
       <r>    45.2015     1.5995    46.7729 </r>
       <r>    45.4673     0.5651    46.9231 </r>
       <r>    45.7331     0.9374    47.1723 </r>
       <r>    45.9989     1.3737    47.5374 </r>
       <r>    46.2646     0.8357    47.7595 </r>
       <r>    46.5304     0.6912    47.9432 </r>
       <r>    46.7962     1.0955    48.2344 </r>
       <r>    47.0620     0.7044    48.4216 </r>
       <r>    47.3278     0.4674    48.5458 </r>
       <r>    47.5936     1.4292    48.9257 </r>
       <r>    47.8594     1.0736    49.2111 </r>
       <r>    48.1252     0.7074    49.3991 </r>
       <r>    48.3910     1.2746    49.7379 </r>
       <r>    48.6568     0.5689    49.8891 </r>
       <r>    48.9226     1.1267    50.1886 </r>
       <r>    49.1883     0.8242    50.4076 </r>
       <r>    49.4541     0.6235    50.5733 </r>
       <r>    49.7199     1.1717    50.8848 </r>
       <r>    49.9857     1.3259    51.2372 </r>
       <r>    50.2515     0.9838    51.4987 </r>
       <r>    50.5173     0.9020    51.7384 </r>
       <r>    50.7831     0.5799    51.8926 </r>
       <r>    51.0489     0.6098    52.0547 </r>
       <r>    51.3147     1.2210    52.3792 </r>
       <r>    51.5805     1.3958    52.7502 </r>
       <r>    51.8462     1.1709    53.0614 </r>
       <r>    52.1120     0.8988    53.3003 </r>
       <r>    52.3778     0.9654    53.5569 </r>
       <r>    52.6436     0.7565    53.7579 </r>
       <r>    52.9094     1.2651    54.0942 </r>
       <r>    53.1752     1.3349    54.4490 </r>
       <r>    53.4410     1.4415    54.8321 </r>
       <r>    53.7068     1.5208    55.2363 </r>
       <r>    53.9726     1.2600    55.5712 </r>
       <r>    54.2384     1.3153    55.9208 </r>
       <r>    54.5042     1.0331    56.1954 </r>
       <r>    54.7699     0.8050    56.4094 </r>
       <r>    55.0357     0.9187    56.6535 </r>
       <r>    55.3015     0.8377    56.8762 </r>
       <r>    55.5673     0.8763    57.1091 </r>
       <r>    55.8331     1.9190    57.6192 </r>
       <r>    56.0989     1.3967    57.9904 </r>
       <r>    56.3647     0.6593    58.1656 </r>
       <r>    56.6305     0.9650    58.4221 </r>
       <r>    56.8963     1.4009    58.7945 </r>
       <r>    57.1621     1.0939    59.0852 </r>
       <r>    57.4279     1.2681    59.4223 </r>
       <r>    57.6936     0.7264    59.6153 </r>
       <r>    57.9594     1.6284    60.0482 </r>
       <r>    58.2252     2.2027    60.6336 </r>
       <r>    58.4910     1.6973    61.0847 </r>
       <r>    58.7568     1.4797    61.4780 </r>
       <r>    59.0226     1.3916    61.8479 </r>
       <r>    59.2884     1.9241    62.3593 </r>
       <r>    59.5542     1.5432    62.7695 </r>
       <r>    59.8200     1.9514    63.2881 </r>
       <r>    60.0858     1.4725    63.6795 </r>
       <r>    60.3516     1.6174    64.1094 </r>
       <r>    60.6173     1.5084    64.5103 </r>
       <r>    60.8831     2.5867    65.1978 </r>
       <r>    61.1489     2.3685    65.8274 </r>
       <r>    61.4147     1.9875    66.3556 </r>
       <r>    61.6805     1.7618    66.8239 </r>
       <r>    61.9463     1.8736    67.3219 </r>
       <r>    62.2121     1.1584    67.6298 </r>
       <r>    62.4779     1.1485    67.9350 </r>
       <r>    62.7437     1.9125    68.4434 </r>
       <r>    63.0095     1.6309    68.8768 </r>
       <r>    63.2752     1.4207    69.2545 </r>
       <r>    63.5410     1.7904    69.7303 </r>
       <r>    63.8068     1.9450    70.2473 </r>
       <r>    64.0726     1.5640    70.6630 </r>
       <r>    64.3384     1.7467    71.1273 </r>
       <r>    64.6042     1.9554    71.6470 </r>
       <r>    64.8700     1.3213    71.9982 </r>
       <r>    65.1358     1.1302    72.2986 </r>
       <r>    65.4016     1.2476    72.6302 </r>
       <r>    65.6674     1.2013    72.9495 </r>
       <r>    65.9332     1.7092    73.4038 </r>
       <r>    66.1989     1.7786    73.8765 </r>
       <r>    66.4647     1.2864    74.2184 </r>
       <r>    66.7305     1.9654    74.7408 </r>
       <r>    66.9963     1.9724    75.2650 </r>
       <r>    67.2621     2.4948    75.9281 </r>
       <r>    67.5279     1.7047    76.3812 </r>
       <r>    67.7937     1.2739    76.7198 </r>
       <r>    68.0595     1.7500    77.1849 </r>
       <r>    68.3253     1.3262    77.5374 </r>
       <r>    68.5911     1.4327    77.9182 </r>
       <r>    68.8569     1.3847    78.2863 </r>
       <r>    69.1226     1.4069    78.6602 </r>
       <r>    69.3884     1.4761    79.0525 </r>
       <r>    69.6542     1.1352    79.3543 </r>
       <r>    69.9200     1.1948    79.6718 </r>
       <r>    70.1858     0.9494    79.9242 </r>
       <r>    70.4516     0.1919    79.9752 </r>
       <r>    70.7174     0.0431    79.9866 </r>
       <r>    70.9832     0.0504    80.0000 </r>
       <r>    71.2490     0.0002    80.0001 </r>
       <r>    71.5148    -0.0003    80.0000 </r>
       <r>    71.7806    -0.0000    80.0000 </r>
       <r>    72.0463    -0.0000    80.0000 </r>
       <r>    72.3121     0.0000    80.0000 </r>
       <r>    72.5779     0.0000    80.0000 </r>
       <r>    72.8437     0.0000    80.0000 </r>
       <r>    73.1095     0.0000    80.0000 </r>
       <r>    73.3753     0.0000    80.0000 </r>
       <r>    73.6411     0.0000    80.0000 </r>
       <r>    73.9069     0.0000    80.0000 </r>
       <r>    74.1727     0.0000    80.0000 </r>
       <r>    74.4385     0.0000    80.0000 </r>
      </set>
     </set>
    </array>
   </total>
  </dos>
 </calculation>
 <structure name="finalpos" >
  <crystal>
   <varray name="basis" >
    <v>       2.33000000       0.00000000       0.00000000 </v>
    <v>      -1.16500000       2.01783919       0.00000000 </v>
    <v>       0.00000000       0.00000000       4.10000000 </v>
   </varray>
   <i name="volume">     19.27641779 </i>
   <varray name="rec_basis" >
    <v>       0.42918455       0.24778982       0.00000000 </v>
    <v>       0.00000000       0.49557963       0.00000000 </v>
    <v>       0.00000000       0.00000000       0.24390244 </v>
   </varray>
  </crystal>
  <varray name="positions" >
   <v>       0.00000000       0.00000000       0.00000000 </v>
   <v>       0.33333333       0.66666667       0.50000000 </v>
  </varray>
 </structure>
</modeling>
