unknown system                          
   1.00000000000000     
     3.635000    0.000000    0.000000
     0.000000    3.635000    0.000000
     0.000000    0.000000    3.635000
   Cu
     4
Direct
  0.000000  0.000000  0.000000
  0.500000  0.500000  0.000000
  0.500000  0.000000  0.500000
  0.000000  0.500000  0.500000
 
   28   28   28
  843.43      780.91      618.11      414.25      230.63      104.56      41.360      20.860      13.937      10.647    
  9.1911      7.9641      7.3024      7.6021      7.9509      7.6021      7.3024      7.9641      9.1911      10.647    
  13.937      20.860      41.360      104.56      230.63      414.25      618.11      780.91      780.91      722.67    
  571.06      381.45      211.30      95.483      38.450      20.346      13.757      10.586      9.1369      7.8968    
  7.1656      7.3291      7.6021      7.3291      7.1656      7.8968      9.1369      10.586      13.757      20.346    
  38.450      95.483      211.30      381.45      571.06      722.67      618.11      571.06      448.78      296.67    
  161.97      72.959      31.622      19.038      13.266      10.455      9.1015      7.9564      7.2085      7.1656    
  7.3024      7.1656      7.2085      7.9564      9.1015      10.455      13.266      19.038      31.622      72.959    
  161.97      296.67      448.78      571.06      414.25      381.45      296.67      192.67      103.35      47.882    
  24.838      17.210      12.602      10.357      9.2727      8.4603      7.9564      7.8968      7.9641      7.8968    
  7.9564      8.4603      9.2727      10.357      12.602      17.210      24.838      47.882      103.35      192.67    
  296.67      381.45      230.63      211.30      161.97      103.35      56.074      29.969      20.358      15.220    
  11.961      10.388      9.6739      9.2727      9.1015      9.1369      9.1911      9.1369      9.1015      9.2727    
  9.6739      10.388      11.961      15.220      20.358      29.969      56.074      103.35      161.97      211.30    
  104.56      95.483      72.959      47.882      29.969      21.489      16.880      13.498      11.553      10.682    
  10.388      10.357      10.455      10.586      10.647      10.586      10.455      10.357      10.388      10.682    
  11.553      13.498      16.880      21.489      29.969      47.882      72.959      95.483      41.360      38.450    
  31.622      24.838      20.358      16.880      14.102      12.363      11.599      11.553      11.961      12.602    
  13.266      13.757      13.937      13.757      13.266      12.602      11.961      11.553      11.599      12.363    
  14.102      16.880      20.358      24.838      31.622      38.450      20.860      20.346      19.038      17.210    
  15.220      13.498      12.363      11.971      12.363      13.498      15.220      17.210      19.038      20.346    
  20.860      20.346      19.038      17.210      15.220      13.498      12.363      11.971      12.363      13.498    
  15.220      17.210      19.038      20.346      13.937      13.757      13.266      12.602      11.961      11.553    
  11.599      12.363      14.102      16.880      20.358      24.838      31.622      38.450      41.360      38.450    
  31.622      24.838      20.358      16.880      14.102      12.363      11.599      11.553      11.961      12.602    
  13.266      13.757      10.647      10.586      10.455      10.357      10.388      10.682      11.553      13.498    
  16.880      21.489      29.969      47.882      72.959      95.483      104.56      95.483      72.959      47.882    
  29.969      21.489      16.880      13.498      11.553      10.682      10.388      10.357      10.455      10.586    
  9.1911      9.1369      9.1015      9.2727      9.6739      10.388      11.961      15.220      20.358      29.969    
  56.074      103.35      161.97      211.30      230.63      211.30      161.97      103.35      56.074      29.969    
  20.358      15.220      11.961      10.388      9.6739      9.2727      9.1015      9.1369      7.9641      7.8968    
  7.9564      8.4603      9.2727      10.357      12.602      17.210      24.838      47.882      103.35      192.67    
  296.67      381.45      414.25      381.45      296.67      192.67      103.35      47.882      24.838      17.210    
  12.602      10.357      9.2727      8.4603      7.9564      7.8968      7.3024      7.1656      7.2085      7.9564    
  9.1015      10.455      13.266      19.038      31.622      72.959      161.97      296.67      448.78      571.06    
  618.11      571.06      448.78      296.67      161.97      72.959      31.622      19.038      13.266      10.455    
  9.1015      7.9564      7.2085      7.1656      7.6021      7.3291      7.1656      7.8968      9.1369      10.586    
  13.757      20.346      38.450      95.483      211.30      381.45      571.06      722.67      780.91      722.67    
  571.06      381.45      211.30      95.483      38.450      20.346      13.757      10.586      9.1369      7.8968    
  7.1656      7.3291      7.9509      7.6021      7.3024      7.9641      9.1911      10.647      13.937      20.860    
  41.360      104.56      230.63      414.25      618.11      780.91      843.43      780.91      618.11      414.25    
  230.63      104.56      41.360      20.860      13.937      10.647      9.1911      7.9641      7.3024      7.6021    
  7.6021      7.3291      7.1656      7.8968      9.1369      10.586      13.757      20.346      38.450      95.483    
  211.30      381.45      571.06      722.67      780.91      722.67      571.06      381.45      211.30      95.483    
  38.450      20.346      13.757      10.586      9.1369      7.8968      7.1656      7.3291      7.3024      7.1656    
  7.2085      7.9564      9.1015      10.455      13.266      19.038      31.622      72.959      161.97      296.67    
  448.78      571.06      618.11      571.06      448.78      296.67      161.97      72.959      31.622      19.038    
  13.266      10.455      9.1015      7.9564      7.2085      7.1656      7.9641      7.8968      7.9564      8.4603    
  9.2727      10.357      12.602      17.210      24.838      47.882      103.35      192.67      296.67      381.45    
  414.25      381.45      296.67      192.67      103.35      47.882      24.838      17.210      12.602      10.357    
  9.2727      8.4603      7.9564      7.8968      9.1911      9.1369      9.1015      9.2727      9.6739      10.388    
  11.961      15.220      20.358      29.969      56.074      103.35      161.97      211.30      230.63      211.30    
  161.97      103.35      56.074      29.969      20.358      15.220      11.961      10.388      9.6739      9.2727    
  9.1015      9.1369      10.647      10.586      10.455      10.357      10.388      10.682      11.553      13.498    
  16.880      21.489      29.969      47.882      72.959      95.483      104.56      95.483      72.959      47.882    
  29.969      21.489      16.880      13.498      11.553      10.682      10.388      10.357      10.455      10.586    
  13.937      13.757      13.266      12.602      11.961      11.553      11.599      12.363      14.102      16.880    
  20.358      24.838      31.622      38.450      41.360      38.450      31.622      24.838      20.358      16.880    
  14.102      12.363      11.599      11.553      11.961      12.602      13.266      13.757      20.860      20.346    
  19.038      17.210      15.220      13.498      12.363      11.971      12.363      13.498      15.220      17.210    
  19.038      20.346      20.860      20.346      19.038      17.210      15.220      13.498      12.363      11.971    
  12.363      13.498      15.220      17.210      19.038      20.346      41.360      38.450      31.622      24.838    
  20.358      16.880      14.102      12.363      11.599      11.553      11.961      12.602      13.266      13.757    
  13.937      13.757      13.266      12.602      11.961      11.553      11.599      12.363      14.102      16.880    
  20.358      24.838      31.622      38.450      104.56      95.483      72.959      47.882      29.969      21.489    
  16.880      13.498      11.553      10.682      10.388      10.357      10.455      10.586      10.647      10.586    
  10.455      10.357      10.388      10.682      11.553      13.498      16.880      21.489      29.969      47.882    
  72.959      95.483      230.63      211.30      161.97      103.35      56.074      29.969      20.358      15.220    
  11.961      10.388      9.6739      9.2727      9.1015      9.1369      9.1911      9.1369      9.1015      9.2727    
  9.6739      10.388      11.961      15.220      20.358      29.969      56.074      103.35      161.97      211.30    
  414.25      381.45      296.67      192.67      103.35      47.882      24.838      17.210      12.602      10.357    
  9.2727      8.4603      7.9564      7.8968      7.9641      7.8968      7.9564      8.4603      9.2727      10.357    
  12.602      17.210      24.838      47.882      103.35      192.67      296.67      381.45      618.11      571.06    
  448.78      296.67      161.97      72.959      31.622      19.038      13.266      10.455      9.1015      7.9564    
  7.2085      7.1656      7.3024      7.1656      7.2085      7.9564      9.1015      10.455      13.266      19.038    
  31.622      72.959      161.97      296.67      448.78      571.06      780.91      722.67      571.06      381.45    
  211.30      95.483      38.450      20.346      13.757      10.586      9.1369      7.8968      7.1656      7.3291    
  7.6021      7.3291      7.1656      7.8968      9.1369      10.586      13.757      20.346      38.450      95.483    
  211.30      381.45      571.06      722.67      780.91      722.67      571.06      381.45      211.30      95.483    
  38.450      20.346      13.757      10.586      9.1369      7.8968      7.1656      7.3291      7.6021      7.3291    
  7.1656      7.8968      9.1369      10.586      13.757      20.346      38.450      95.483      211.30      381.45    
  571.06      722.67      722.67      668.43      527.27      351.01      193.47      87.220      35.870      19.873    
  13.582      10.533      9.1006      7.8600      7.0758      7.1225      7.3291      7.1225      7.0758      7.8600    
  9.1006      10.533      13.582      19.873      35.870      87.220      193.47      351.01      527.27      668.43    
  571.06      527.27      413.56      272.42      148.08      66.802      29.848      18.622      13.106      10.417    
  9.0979      7.9708      7.1977      7.0758      7.1656      7.0758      7.1977      7.9708      9.0979      10.417    
  13.106      18.622      29.848      66.802      148.08      272.42      413.56      527.27      381.45      351.01    
  272.42      176.34      94.419      44.267      23.902      16.845      12.463      10.329      9.2831      8.4897    
  7.9708      7.8600      7.8968      7.8600      7.9708      8.4897      9.2831      10.329      12.463      16.845    
  23.902      44.267      94.419      176.34      272.42      351.01      211.30      193.47      148.08      94.419    
  51.609      28.408      19.849      14.927      11.844      10.356      9.6742      9.2831      9.0979      9.1006    
  9.1369      9.1006      9.0979      9.2831      9.6742      10.356      11.844      14.927      19.849      28.408    
  51.609      94.419      148.08      193.47      95.483      87.220      66.802      44.267      28.408      20.914    
  16.495      13.280      11.448      10.631      10.356      10.329      10.417      10.533      10.586      10.533    
  10.417      10.329      10.356      10.631      11.448      13.280      16.495      20.914      28.408      44.267    
  66.802      87.220      38.450      35.870      29.848      23.902      19.849      16.495      13.846      12.201    
  11.485      11.448      11.844      12.463      13.106      13.582      13.757      13.582      13.106      12.463    
  11.844      11.448      11.485      12.201      13.846      16.495      19.849      23.902      29.848      35.870    
  20.346      19.873      18.622      16.845      14.927      13.280      12.201      11.830      12.201      13.280    
  14.927      16.845      18.622      19.873      20.346      19.873      18.622      16.845      14.927      13.280    
  12.201      11.830      12.201      13.280      14.927      16.845      18.622      19.873      13.757      13.582    
  13.106      12.463      11.844      11.448      11.485      12.201      13.846      16.495      19.849      23.902    
  29.848      35.870      38.450      35.870      29.848      23.902      19.849      16.495      13.846      12.201    
  11.485      11.448      11.844      12.463      13.106      13.582      10.586      10.533      10.417      10.329    
  10.356      10.631      11.448      13.280      16.495      20.914      28.408      44.267      66.802      87.220    
  95.483      87.220      66.802      44.267      28.408      20.914      16.495      13.280      11.448      10.631    
  10.356      10.329      10.417      10.533      9.1369      9.1006      9.0979      9.2831      9.6742      10.356    
  11.844      14.927      19.849      28.408      51.609      94.419      148.08      193.47      211.30      193.47    
  148.08      94.419      51.609      28.408      19.849      14.927      11.844      10.356      9.6742      9.2831    
  9.0979      9.1006      7.8968      7.8600      7.9708      8.4897      9.2831      10.329      12.463      16.845    
  23.902      44.267      94.419      176.34      272.42      351.01      381.45      351.01      272.42      176.34    
  94.419      44.267      23.902      16.845      12.463      10.329      9.2831      8.4897      7.9708      7.8600    
  7.1656      7.0758      7.1977      7.9708      9.0979      10.417      13.106      18.622      29.848      66.802    
  148.08      272.42      413.56      527.27      571.06      527.27      413.56      272.42      148.08      66.802    
  29.848      18.622      13.106      10.417      9.0979      7.9708      7.1977      7.0758      7.3291      7.1225    
  7.0758      7.8600      9.1006      10.533      13.582      19.873      35.870      87.220      193.47      351.01    
  527.27      668.43      722.67      668.43      527.27      351.01      193.47      87.220      35.870      19.873    
  13.582      10.533      9.1006      7.8600      7.0758      7.1225      7.6021      7.3291      7.1656      7.8968    
  9.1369      10.586      13.757      20.346      38.450      95.483      211.30      381.45      571.06      722.67    
  780.91      722.67      571.06      381.45      211.30      95.483      38.450      20.346      13.757      10.586    
  9.1369      7.8968      7.1656      7.3291      7.3291      7.1225      7.0758      7.8600      9.1006      10.533    
  13.582      19.873      35.870      87.220      193.47      351.01      527.27      668.43      722.67      668.43    
  527.27      351.01      193.47      87.220      35.870      19.873      13.582      10.533      9.1006      7.8600    
  7.0758      7.1225      7.1656      7.0758      7.1977      7.9708      9.0979      10.417      13.106      18.622    
  29.848      66.802      148.08      272.42      413.56      527.27      571.06      527.27      413.56      272.42    
  148.08      66.802      29.848      18.622      13.106      10.417      9.0979      7.9708      7.1977      7.0758    
  7.8968      7.8600      7.9708      8.4897      9.2831      10.329      12.463      16.845      23.902      44.267    
  94.419      176.34      272.42      351.01      381.45      351.01      272.42      176.34      94.419      44.267    
  23.902      16.845      12.463      10.329      9.2831      8.4897      7.9708      7.8600      9.1369      9.1006    
  9.0979      9.2831      9.6742      10.356      11.844      14.927      19.849      28.408      51.609      94.419    
  148.08      193.47      211.30      193.47      148.08      94.419      51.609      28.408      19.849      14.927    
  11.844      10.356      9.6742      9.2831      9.0979      9.1006      10.586      10.533      10.417      10.329    
  10.356      10.631      11.448      13.280      16.495      20.914      28.408      44.267      66.802      87.220    
  95.483      87.220      66.802      44.267      28.408      20.914      16.495      13.280      11.448      10.631    
  10.356      10.329      10.417      10.533      13.757      13.582      13.106      12.463      11.844      11.448    
  11.485      12.201      13.846      16.495      19.849      23.902      29.848      35.870      38.450      35.870    
  29.848      23.902      19.849      16.495      13.846      12.201      11.485      11.448      11.844      12.463    
  13.106      13.582      20.346      19.873      18.622      16.845      14.927      13.280      12.201      11.830    
  12.201      13.280      14.927      16.845      18.622      19.873      20.346      19.873      18.622      16.845    
  14.927      13.280      12.201      11.830      12.201      13.280      14.927      16.845      18.622      19.873    
  38.450      35.870      29.848      23.902      19.849      16.495      13.846      12.201      11.485      11.448    
  11.844      12.463      13.106      13.582      13.757      13.582      13.106      12.463      11.844      11.448    
  11.485      12.201      13.846      16.495      19.849      23.902      29.848      35.870      95.483      87.220    
  66.802      44.267      28.408      20.914      16.495      13.280      11.448      10.631      10.356      10.329    
  10.417      10.533      10.586      10.533      10.417      10.329      10.356      10.631      11.448      13.280    
  16.495      20.914      28.408      44.267      66.802      87.220      211.30      193.47      148.08      94.419    
  51.609      28.408      19.849      14.927      11.844      10.356      9.6742      9.2831      9.0979      9.1006    
  9.1369      9.1006      9.0979      9.2831      9.6742      10.356      11.844      14.927      19.849      28.408    
  51.609      94.419      148.08      193.47      381.45      351.01      272.42      176.34      94.419      44.267    
  23.902      16.845      12.463      10.329      9.2831      8.4897      7.9708      7.8600      7.8968      7.8600    
  7.9708      8.4897      9.2831      10.329      12.463      16.845      23.902      44.267      94.419      176.34    
  272.42      351.01      571.06      527.27      413.56      272.42      148.08      66.802      29.848      18.622    
  13.106      10.417      9.0979      7.9708      7.1977      7.0758      7.1656      7.0758      7.1977      7.9708    
  9.0979      10.417      13.106      18.622      29.848      66.802      148.08      272.42      413.56      527.27    
  722.67      668.43      527.27      351.01      193.47      87.220      35.870      19.873      13.582      10.533    
  9.1006      7.8600      7.0758      7.1225      7.3291      7.1225      7.0758      7.8600      9.1006      10.533    
  13.582      19.873      35.870      87.220      193.47      351.01      527.27      668.43      618.11      571.06    
  448.78      296.67      161.97      72.959      31.622      19.038      13.266      10.455      9.1015      7.9564    
  7.2085      7.1656      7.3024      7.1656      7.2085      7.9564      9.1015      10.455      13.266      19.038    
  31.622      72.959      161.97      296.67      448.78      571.06      571.06      527.27      413.56      272.42    
  148.08      66.802      29.848      18.622      13.106      10.417      9.0979      7.9708      7.1977      7.0758    
  7.1656      7.0758      7.1977      7.9708      9.0979      10.417      13.106      18.622      29.848      66.802    
  148.08      272.42      413.56      527.27      448.78      413.56      322.38      210.12      112.97      51.779    
  25.756      17.469      12.672      10.331      9.1481      8.1502      7.4216      7.1977      7.2085      7.1977    
  7.4216      8.1502      9.1481      10.331      12.672      17.469      25.756      51.779      112.97      210.12    
  322.38      413.56      296.67      272.42      210.12      134.85      72.228      35.658      21.707      15.849    
  12.090      10.259      9.3404      8.6424      8.1502      7.9708      7.9564      7.9708      8.1502      8.6424    
  9.3404      10.259      12.090      15.849      21.707      35.658      72.228      134.85      210.12      272.42    
  161.97      148.08      112.97      72.228      40.851      24.791      18.444      14.140      11.533      10.277    
  9.6878      9.3404      9.1481      9.0979      9.1015      9.0979      9.1481      9.3404      9.6878      10.277    
  11.533      14.140      18.444      24.791      40.851      72.228      112.97      148.08      72.959      66.802    
  51.779      35.658      24.791      19.381      15.452      12.703      11.175      10.501      10.277      10.259    
  10.331      10.417      10.455      10.417      10.331      10.259      10.277      10.501      11.175      12.703    
  15.452      19.381      24.791      35.658      51.779      66.802      31.622      29.848      25.756      21.707    
  18.444      15.452      13.162      11.776      11.189      11.175      11.533      12.090      12.672      13.106    
  13.266      13.106      12.672      12.090      11.533      11.175      11.189      11.776      13.162      15.452    
  18.444      21.707      25.756      29.848      19.038      18.622      17.469      15.849      14.140      12.703    
  11.776      11.461      11.776      12.703      14.140      15.849      17.469      18.622      19.038      18.622    
  17.469      15.849      14.140      12.703      11.776      11.461      11.776      12.703      14.140      15.849    
  17.469      18.622      13.266      13.106      12.672      12.090      11.533      11.175      11.189      11.776    
  13.162      15.452      18.444      21.707      25.756      29.848      31.622      29.848      25.756      21.707    
  18.444      15.452      13.162      11.776      11.189      11.175      11.533      12.090      12.672      13.106    
  10.455      10.417      10.331      10.259      10.277      10.501      11.175      12.703      15.452      19.381    
  24.791      35.658      51.779      66.802      72.959      66.802      51.779      35.658      24.791      19.381    
  15.452      12.703      11.175      10.501      10.277      10.259      10.331      10.417      9.1015      9.0979    
  9.1481      9.3404      9.6878      10.277      11.533      14.140      18.444      24.791      40.851      72.228    
  112.97      148.08      161.97      148.08      112.97      72.228      40.851      24.791      18.444      14.140    
  11.533      10.277      9.6878      9.3404      9.1481      9.0979      7.9564      7.9708      8.1502      8.6424    
  9.3404      10.259      12.090      15.849      21.707      35.658      72.228      134.85      210.12      272.42    
  296.67      272.42      210.12      134.85      72.228      35.658      21.707      15.849      12.090      10.259    
  9.3404      8.6424      8.1502      7.9708      7.2085      7.1977      7.4216      8.1502      9.1481      10.331    
  12.672      17.469      25.756      51.779      112.97      210.12      322.38      413.56      448.78      413.56    
  322.38      210.12      112.97      51.779      25.756      17.469      12.672      10.331      9.1481      8.1502    
  7.4216      7.1977      7.1656      7.0758      7.1977      7.9708      9.0979      10.417      13.106      18.622    
  29.848      66.802      148.08      272.42      413.56      527.27      571.06      527.27      413.56      272.42    
  148.08      66.802      29.848      18.622      13.106      10.417      9.0979      7.9708      7.1977      7.0758    
  7.3024      7.1656      7.2085      7.9564      9.1015      10.455      13.266      19.038      31.622      72.959    
  161.97      296.67      448.78      571.06      618.11      571.06      448.78      296.67      161.97      72.959    
  31.622      19.038      13.266      10.455      9.1015      7.9564      7.2085      7.1656      7.1656      7.0758    
  7.1977      7.9708      9.0979      10.417      13.106      18.622      29.848      66.802      148.08      272.42    
  413.56      527.27      571.06      527.27      413.56      272.42      148.08      66.802      29.848      18.622    
  13.106      10.417      9.0979      7.9708      7.1977      7.0758      7.2085      7.1977      7.4216      8.1502    
  9.1481      10.331      12.672      17.469      25.756      51.779      112.97      210.12      322.38      413.56    
  448.78      413.56      322.38      210.12      112.97      51.779      25.756      17.469      12.672      10.331    
  9.1481      8.1502      7.4216      7.1977      7.9564      7.9708      8.1502      8.6424      9.3404      10.259    
  12.090      15.849      21.707      35.658      72.228      134.85      210.12      272.42      296.67      272.42    
  210.12      134.85      72.228      35.658      21.707      15.849      12.090      10.259      9.3404      8.6424    
  8.1502      7.9708      9.1015      9.0979      9.1481      9.3404      9.6878      10.277      11.533      14.140    
  18.444      24.791      40.851      72.228      112.97      148.08      161.97      148.08      112.97      72.228    
  40.851      24.791      18.444      14.140      11.533      10.277      9.6878      9.3404      9.1481      9.0979    
  10.455      10.417      10.331      10.259      10.277      10.501      11.175      12.703      15.452      19.381    
  24.791      35.658      51.779      66.802      72.959      66.802      51.779      35.658      24.791      19.381    
  15.452      12.703      11.175      10.501      10.277      10.259      10.331      10.417      13.266      13.106    
  12.672      12.090      11.533      11.175      11.189      11.776      13.162      15.452      18.444      21.707    
  25.756      29.848      31.622      29.848      25.756      21.707      18.444      15.452      13.162      11.776    
  11.189      11.175      11.533      12.090      12.672      13.106      19.038      18.622      17.469      15.849    
  14.140      12.703      11.776      11.461      11.776      12.703      14.140      15.849      17.469      18.622    
  19.038      18.622      17.469      15.849      14.140      12.703      11.776      11.461      11.776      12.703    
  14.140      15.849      17.469      18.622      31.622      29.848      25.756      21.707      18.444      15.452    
  13.162      11.776      11.189      11.175      11.533      12.090      12.672      13.106      13.266      13.106    
  12.672      12.090      11.533      11.175      11.189      11.776      13.162      15.452      18.444      21.707    
  25.756      29.848      72.959      66.802      51.779      35.658      24.791      19.381      15.452      12.703    
  11.175      10.501      10.277      10.259      10.331      10.417      10.455      10.417      10.331      10.259    
  10.277      10.501      11.175      12.703      15.452      19.381      24.791      35.658      51.779      66.802    
  161.97      148.08      112.97      72.228      40.851      24.791      18.444      14.140      11.533      10.277    
  9.6878      9.3404      9.1481      9.0979      9.1015      9.0979      9.1481      9.3404      9.6878      10.277    
  11.533      14.140      18.444      24.791      40.851      72.228      112.97      148.08      296.67      272.42    
  210.12      134.85      72.228      35.658      21.707      15.849      12.090      10.259      9.3404      8.6424    
  8.1502      7.9708      7.9564      7.9708      8.1502      8.6424      9.3404      10.259      12.090      15.849    
  21.707      35.658      72.228      134.85      210.12      272.42      448.78      413.56      322.38      210.12    
  112.97      51.779      25.756      17.469      12.672      10.331      9.1481      8.1502      7.4216      7.1977    
  7.2085      7.1977      7.4216      8.1502      9.1481      10.331      12.672      17.469      25.756      51.779    
  112.97      210.12      322.38      413.56      571.06      527.27      413.56      272.42      148.08      66.802    
  29.848      18.622      13.106      10.417      9.0979      7.9708      7.1977      7.0758      7.1656      7.0758    
  7.1977      7.9708      9.0979      10.417      13.106      18.622      29.848      66.802      148.08      272.42    
  413.56      527.27      414.25      381.45      296.67      192.67      103.35      47.882      24.838      17.210    
  12.602      10.357      9.2727      8.4603      7.9564      7.8968      7.9641      7.8968      7.9564      8.4603    
  9.2727      10.357      12.602      17.210      24.838      47.882      103.35      192.67      296.67      381.45    
  381.45      351.01      272.42      176.34      94.419      44.267      23.902      16.845      12.463      10.329    
  9.2831      8.4897      7.9708      7.8600      7.8968      7.8600      7.9708      8.4897      9.2831      10.329    
  12.463      16.845      23.902      44.267      94.419      176.34      272.42      351.01      296.67      272.42    
  210.12      134.85      72.228      35.658      21.707      15.849      12.090      10.259      9.3404      8.6424    
  8.1502      7.9708      7.9564      7.9708      8.1502      8.6424      9.3404      10.259      12.090      15.849    
  21.707      35.658      72.228      134.85      210.12      272.42      192.67      176.34      134.85      86.024    
  47.433      26.867      19.178      14.486      11.597      10.193      9.4869      8.9890      8.6424      8.4897    