unknown system                          
   1.00000000000000     
     3.635000    0.000000    0.000000
     0.000000    3.635000    0.000000
     0.000000    0.000000    3.635000
   Cu
     4
Direct
  0.000000  0.000000  0.000000
  0.500000  0.500000  0.000000
  0.500000  0.000000  0.500000
  0.000000  0.500000  0.500000
 
   28   28   28
 0.84342657089E+03 0.78091234846E+03 0.61811248321E+03 0.41424761875E+03 0.23062753587E+03
 0.10456438562E+03 0.41359517752E+02 0.20860436539E+02 0.13936566642E+02 0.10646735639E+02
 0.91911124911E+01 0.79641191326E+01 0.73024476188E+01 0.76021272934E+01 0.79508959764E+01
 0.76021272934E+01 0.73024476188E+01 0.79641191326E+01 0.91911124911E+01 0.10646735639E+02
 0.13936566642E+02 0.20860436539E+02 0.41359517752E+02 0.10456438562E+03 0.23062753587E+03
 0.41424761875E+03 0.61811248321E+03 0.78091234846E+03 0.78091234846E+03 0.72267423826E+03
 0.57106185170E+03 0.38145199243E+03 0.21129637688E+03 0.95483451554E+02 0.38449722180E+02
 0.20345805620E+02 0.13756553727E+02 0.10586175485E+02 0.91368848614E+01 0.78968408886E+01
 0.71656265666E+01 0.73291005423E+01 0.76021272934E+01 0.73291005423E+01 0.71656265666E+01
 0.78968408886E+01 0.91368848614E+01 0.10586175485E+02 0.13756553727E+02 0.20345805620E+02
 0.38449722180E+02 0.95483451554E+02 0.21129637688E+03 0.38145199243E+03 0.57106185170E+03
 0.72267423826E+03 0.61811248321E+03 0.57106185170E+03 0.44878397051E+03 0.29667252012E+03
 0.16197366624E+03 0.72959023481E+02 0.31622173539E+02 0.19038195585E+02 0.13265590783E+02
 0.10454896079E+02 0.91015112064E+01 0.79563890877E+01 0.72085453197E+01 0.71656265666E+01
 0.73024476188E+01 0.71656265666E+01 0.72085453197E+01 0.79563890877E+01 0.91015112064E+01
 0.10454896079E+02 0.13265590783E+02 0.19038195585E+02 0.31622173539E+02 0.72959023481E+02
 0.16197366624E+03 0.29667252012E+03 0.44878397051E+03 0.57106185170E+03 0.41424761875E+03
 0.38145199243E+03 0.29667252012E+03 0.19267317940E+03 0.10334970863E+03 0.47882124326E+02
 0.24838270399E+02 0.17209997959E+02 0.12602057059E+02 0.10357121636E+02 0.92727127118E+01
 0.84603015372E+01 0.79563890877E+01 0.78968408886E+01 0.79641191326E+01 0.78968408886E+01
 0.79563890877E+01 0.84603015372E+01 0.92727127118E+01 0.10357121636E+02 0.12602057059E+02
 0.17209997959E+02 0.24838270399E+02 0.47882124326E+02 0.10334970863E+03 0.19267317940E+03
 0.29667252012E+03 0.38145199243E+03 0.23062753587E+03 0.21129637688E+03 0.16197366624E+03
 0.10334970863E+03 0.56073947716E+02 0.29968943573E+02 0.20357778956E+02 0.15220000874E+02
 0.11961053705E+02 0.10387789329E+02 0.96738801234E+01 0.92727127118E+01 0.91015112064E+01
 0.91368848614E+01 0.91911124911E+01 0.91368848614E+01 0.91015112064E+01 0.92727127118E+01
 0.96738801234E+01 0.10387789329E+02 0.11961053705E+02 0.15220000874E+02 0.20357778956E+02
 0.29968943573E+02 0.56073947716E+02 0.10334970863E+03 0.16197366624E+03 0.21129637688E+03
 0.10456438562E+03 0.95483451554E+02 0.72959023481E+02 0.47882124326E+02 0.29968943573E+02
 0.21489495388E+02 0.16879550933E+02 0.13497700819E+02 0.11552733859E+02 0.10681780620E+02
 0.10387789329E+02 0.10357121636E+02 0.10454896079E+02 0.10586175485E+02 0.10646735639E+02
 0.10586175485E+02 0.10454896079E+02 0.10357121636E+02 0.10387789329E+02 0.10681780620E+02
 0.11552733859E+02 0.13497700819E+02 0.16879550933E+02 0.21489495388E+02 0.29968943573E+02
 0.47882124326E+02 0.72959023481E+02 0.95483451554E+02 0.41359517752E+02 0.38449722180E+02
 0.31622173539E+02 0.24838270399E+02 0.20357778956E+02 0.16879550933E+02 0.14102402169E+02
 0.12362702902E+02 0.11598966062E+02 0.11552733859E+02 0.11961053705E+02 0.12602057059E+02
 0.13265590783E+02 0.13756553727E+02 0.13936566642E+02 0.13756553727E+02 0.13265590783E+02
 0.12602057059E+02 0.11961053705E+02 0.11552733859E+02 0.11598966062E+02 0.12362702902E+02
 0.14102402169E+02 0.16879550933E+02 0.20357778956E+02 0.24838270399E+02 0.31622173539E+02
 0.38449722180E+02 0.20860436539E+02 0.20345805620E+02 0.19038195585E+02 0.17209997959E+02
 0.15220000874E+02 0.13497700819E+02 0.12362702902E+02 0.11971313587E+02 0.12362702902E+02
 0.13497700819E+02 0.15220000874E+02 0.17209997959E+02 0.19038195585E+02 0.20345805620E+02
 0.20860436539E+02 0.20345805620E+02 0.19038195585E+02 0.17209997959E+02 0.15220000874E+02
 0.13497700819E+02 0.12362702902E+02 0.11971313587E+02 0.12362702902E+02 0.13497700819E+02
 0.15220000874E+02 0.17209997959E+02 0.19038195585E+02 0.20345805620E+02 0.13936566642E+02
 0.13756553727E+02 0.13265590783E+02 0.12602057059E+02 0.11961053705E+02 0.11552733859E+02
 0.11598966062E+02 0.12362702902E+02 0.14102402169E+02 0.16879550933E+02 0.20357778956E+02
 0.24838270399E+02 0.31622173539E+02 0.38449722180E+02 0.41359517752E+02 0.38449722180E+02
 0.31622173539E+02 0.24838270399E+02 0.20357778956E+02 0.16879550933E+02 0.14102402169E+02
 0.12362702902E+02 0.11598966062E+02 0.11552733859E+02 0.11961053705E+02 0.12602057059E+02
 0.13265590783E+02 0.13756553727E+02 0.10646735639E+02 0.10586175485E+02 0.10454896079E+02
 0.10357121636E+02 0.10387789329E+02 0.10681780620E+02 0.11552733859E+02 0.13497700819E+02
 0.16879550933E+02 0.21489495388E+02 0.29968943573E+02 0.47882124326E+02 0.72959023481E+02
 0.95483451554E+02 0.10456438562E+03 0.95483451554E+02 0.72959023481E+02 0.47882124326E+02
 0.29968943573E+02 0.21489495388E+02 0.16879550933E+02 0.13497700819E+02 0.11552733859E+02
 0.10681780620E+02 0.10387789329E+02 0.10357121636E+02 0.10454896079E+02 0.10586175485E+02
 0.91911124911E+01 0.91368848614E+01 0.91015112064E+01 0.92727127118E+01 0.96738801234E+01
 0.10387789329E+02 0.11961053705E+02 0.15220000874E+02 0.20357778956E+02 0.29968943573E+02
 0.56073947716E+02 0.10334970863E+03 0.16197366624E+03 0.21129637688E+03 0.23062753587E+03
 0.21129637688E+03 0.16197366624E+03 0.10334970863E+03 0.56073947716E+02 0.29968943573E+02
 0.20357778956E+02 0.15220000874E+02 0.11961053705E+02 0.10387789329E+02 0.96738801234E+01
 0.92727127118E+01 0.91015112064E+01 0.91368848614E+01 0.79641191326E+01 0.78968408886E+01
 0.79563890877E+01 0.84603015372E+01 0.92727127118E+01 0.10357121636E+02 0.12602057059E+02
 0.17209997959E+02 0.24838270399E+02 0.47882124326E+02 0.10334970863E+03 0.19267317940E+03
 0.29667252012E+03 0.38145199243E+03 0.41424761875E+03 0.38145199243E+03 0.29667252012E+03
 0.19267317940E+03 0.10334970863E+03 0.47882124326E+02 0.24838270399E+02 0.17209997959E+02
 0.12602057059E+02 0.10357121636E+02 0.92727127118E+01 0.84603015372E+01 0.79563890877E+01
 0.78968408886E+01 0.73024476188E+01 0.71656265666E+01 0.72085453197E+01 0.79563890877E+01
 0.91015112064E+01 0.10454896079E+02 0.13265590783E+02 0.19038195585E+02 0.31622173539E+02
 0.72959023481E+02 0.16197366624E+03 0.29667252012E+03 0.44878397051E+03 0.57106185170E+03
 0.61811248321E+03 0.57106185170E+03 0.44878397051E+03 0.29667252012E+03 0.16197366624E+03
 0.72959023481E+02 0.31622173539E+02 0.19038195585E+02 0.13265590783E+02 0.10454896079E+02
 0.91015112064E+01 0.79563890877E+01 0.72085453197E+01 0.71656265666E+01 0.76021272934E+01
 0.73291005423E+01 0.71656265666E+01 0.78968408886E+01 0.91368848614E+01 0.10586175485E+02
 0.13756553727E+02 0.20345805620E+02 0.38449722180E+02 0.95483451554E+02 0.21129637688E+03
 0.38145199243E+03 0.57106185170E+03 0.72267423826E+03 0.78091234846E+03 0.72267423826E+03
 0.57106185170E+03 0.38145199243E+03 0.21129637688E+03 0.95483451554E+02 0.38449722180E+02
 0.20345805620E+02 0.13756553727E+02 0.10586175485E+02 0.91368848614E+01 0.78968408886E+01
 0.71656265666E+01 0.73291005423E+01 0.79508959764E+01 0.76021272934E+01 0.73024476188E+01
 0.79641191326E+01 0.91911124911E+01 0.10646735639E+02 0.13936566642E+02 0.20860436539E+02
 0.41359517752E+02 0.10456438562E+03 0.23062753587E+03 0.41424761875E+03 0.61811248321E+03
 0.78091234846E+03 0.84342657089E+03 0.78091234846E+03 0.61811248321E+03 0.41424761875E+03
 0.23062753587E+03 0.10456438562E+03 0.41359517752E+02 0.20860436539E+02 0.13936566642E+02
 0.10646735639E+02 0.91911124911E+01 0.79641191326E+01 0.73024476188E+01 0.76021272934E+01
 0.76021272934E+01 0.73291005423E+01 0.71656265666E+01 0.78968408886E+01 0.91368848614E+01
 0.10586175485E+02 0.13756553727E+02 0.20345805620E+02 0.38449722180E+02 0.95483451554E+02
 0.21129637688E+03 0.38145199243E+03 0.57106185170E+03 0.72267423826E+03 0.78091234846E+03
 0.72267423826E+03 0.57106185170E+03 0.38145199243E+03 0.21129637688E+03 0.95483451554E+02
 0.38449722180E+02 0.20345805620E+02 0.13756553727E+02 0.10586175485E+02 0.91368848614E+01
 0.78968408886E+01 0.71656265666E+01 0.73291005423E+01 0.73024476188E+01 0.71656265666E+01
 0.72085453197E+01 0.79563890877E+01 0.91015112064E+01 0.10454896079E+02 0.13265590783E+02
 0.19038195585E+02 0.31622173539E+02 0.72959023481E+02 0.16197366624E+03 0.29667252012E+03
 0.44878397051E+03 0.57106185170E+03 0.61811248321E+03 0.57106185170E+03 0.44878397051E+03
 0.29667252012E+03 0.16197366624E+03 0.72959023481E+02 0.31622173539E+02 0.19038195585E+02
 0.13265590783E+02 0.10454896079E+02 0.91015112064E+01 0.79563890877E+01 0.72085453197E+01
 0.71656265666E+01 0.79641191326E+01 0.78968408886E+01 0.79563890877E+01 0.84603015372E+01
 0.92727127118E+01 0.10357121636E+02 0.12602057059E+02 0.17209997959E+02 0.24838270399E+02
 0.47882124326E+02 0.10334970863E+03 0.19267317940E+03 0.29667252012E+03 0.38145199243E+03
 0.41424761875E+03 0.38145199243E+03 0.29667252012E+03 0.19267317940E+03 0.10334970863E+03
 0.47882124326E+02 0.24838270399E+02 0.17209997959E+02 0.12602057059E+02 0.10357121636E+02
 0.92727127118E+01 0.84603015372E+01 0.79563890877E+01 0.78968408886E+01 0.91911124911E+01
 0.91368848614E+01 0.91015112064E+01 0.92727127118E+01 0.96738801234E+01 0.10387789329E+02
 0.11961053705E+02 0.15220000874E+02 0.20357778956E+02 0.29968943573E+02 0.56073947716E+02
 0.10334970863E+03 0.16197366624E+03 0.21129637688E+03 0.23062753587E+03 0.21129637688E+03
 0.16197366624E+03 0.10334970863E+03 0.56073947716E+02 0.29968943573E+02 0.20357778956E+02
 0.15220000874E+02 0.11961053705E+02 0.10387789329E+02 0.96738801234E+01 0.92727127118E+01
 0.91015112064E+01 0.91368848614E+01 0.10646735639E+02 0.10586175485E+02 0.10454896079E+02
 0.10357121636E+02 0.10387789329E+02 0.10681780620E+02 0.11552733859E+02 0.13497700819E+02
 0.16879550933E+02 0.21489495388E+02 0.29968943573E+02 0.47882124326E+02 0.72959023481E+02
 0.95483451554E+02 0.10456438562E+03 0.95483451554E+02 0.72959023481E+02 0.47882124326E+02
 0.29968943573E+02 0.21489495388E+02 0.16879550933E+02 0.13497700819E+02 0.11552733859E+02
 0.10681780620E+02 0.10387789329E+02 0.10357121636E+02 0.10454896079E+02 0.10586175485E+02
 0.13936566642E+02 0.13756553727E+02 0.13265590783E+02 0.12602057059E+02 0.11961053705E+02
 0.11552733859E+02 0.11598966062E+02 0.12362702902E+02 0.14102402169E+02 0.16879550933E+02
 0.20357778956E+02 0.24838270399E+02 0.31622173539E+02 0.38449722180E+02 0.41359517752E+02
 0.38449722180E+02 0.31622173539E+02 0.24838270399E+02 0.20357778956E+02 0.16879550933E+02
 0.14102402169E+02 0.12362702902E+02 0.11598966062E+02 0.11552733859E+02 0.11961053705E+02
 0.12602057059E+02 0.13265590783E+02 0.13756553727E+02 0.20860436539E+02 0.20345805620E+02
 0.19038195585E+02 0.17209997959E+02 0.15220000874E+02 0.13497700819E+02 0.12362702902E+02
 0.11971313587E+02 0.12362702902E+02 0.13497700819E+02 0.15220000874E+02 0.17209997959E+02
 0.19038195585E+02 0.20345805620E+02 0.20860436539E+02 0.20345805620E+02 0.19038195585E+02
 0.17209997959E+02 0.15220000874E+02 0.13497700819E+02 0.12362702902E+02 0.11971313587E+02
 0.12362702902E+02 0.13497700819E+02 0.15220000874E+02 0.17209997959E+02 0.19038195585E+02
 0.20345805620E+02 0.41359517752E+02 0.38449722180E+02 0.31622173539E+02 0.24838270399E+02
 0.20357778956E+02 0.16879550933E+02 0.14102402169E+02 0.12362702902E+02 0.11598966062E+02
 0.11552733859E+02 0.11961053705E+02 0.12602057059E+02 0.13265590783E+02 0.13756553727E+02
 0.13936566642E+02 0.13756553727E+02 0.13265590783E+02 0.12602057059E+02 0.11961053705E+02
 0.11552733859E+02 0.11598966062E+02 0.12362702902E+02 0.14102402169E+02 0.16879550933E+02
 0.20357778956E+02 0.24838270399E+02 0.31622173539E+02 0.38449722180E+02 0.10456438562E+03
 0.95483451554E+02 0.72959023481E+02 0.47882124326E+02 0.29968943573E+02 0.21489495388E+02
 0.16879550933E+02 0.13497700819E+02 0.11552733859E+02 0.10681780620E+02 0.10387789329E+02
 0.10357121636E+02 0.10454896079E+02 0.10586175485E+02 0.10646735639E+02 0.10586175485E+02
 0.10454896079E+02 0.10357121636E+02 0.10387789329E+02 0.10681780620E+02 0.11552733859E+02
 0.13497700819E+02 0.16879550933E+02 0.21489495388E+02 0.29968943573E+02 0.47882124326E+02
 0.72959023481E+02 0.95483451554E+02 0.23062753587E+03 0.21129637688E+03 0.16197366624E+03
 0.10334970863E+03 0.56073947716E+02 0.29968943573E+02 0.20357778956E+02 0.15220000874E+02
 0.11961053705E+02 0.10387789329E+02 0.96738801234E+01 0.92727127118E+01 0.91015112064E+01
 0.91368848614E+01 0.91911124911E+01 0.91368848614E+01 0.91015112064E+01 0.92727127118E+01
 0.96738801234E+01 0.10387789329E+02 0.11961053705E+02 0.15220000874E+02 0.20357778956E+02
 0.29968943573E+02 0.56073947716E+02 0.10334970863E+03 0.16197366624E+03 0.21129637688E+03
 0.41424761875E+03 0.38145199243E+03 0.29667252012E+03 0.19267317940E+03 0.10334970863E+03
 0.47882124326E+02 0.24838270399E+02 0.17209997959E+02 0.12602057059E+02 0.10357121636E+02
 0.92727127118E+01 0.84603015372E+01 0.79563890877E+01 0.78968408886E+01 0.79641191326E+01
 0.78968408886E+01 0.79563890877E+01 0.84603015372E+01 0.92727127118E+01 0.10357121636E+02
 0.12602057059E+02 0.17209997959E+02 0.24838270399E+02 0.47882124326E+02 0.10334970863E+03
 0.19267317940E+03 0.29667252012E+03 0.38145199243E+03 0.61811248321E+03 0.57106185170E+03
 0.44878397051E+03 0.29667252012E+03 0.16197366624E+03 0.72959023481E+02 0.31622173539E+02
 0.19038195585E+02 0.13265590783E+02 0.10454896079E+02 0.91015112064E+01 0.79563890877E+01
 0.72085453197E+01 0.71656265666E+01 0.73024476188E+01 0.71656265666E+01 0.72085453197E+01
 0.79563890877E+01 0.91015112064E+01 0.10454896079E+02 0.13265590783E+02 0.19038195585E+02
 0.31622173539E+02 0.72959023481E+02 0.16197366624E+03 0.29667252012E+03 0.44878397051E+03
 0.57106185170E+03 0.78091234846E+03 0.72267423826E+03 0.57106185170E+03 0.38145199243E+03
 0.21129637688E+03 0.95483451554E+02 0.38449722180E+02 0.20345805620E+02 0.13756553727E+02
 0.10586175485E+02 0.91368848614E+01 0.78968408886E+01 0.71656265666E+01 0.73291005423E+01
 0.76021272934E+01 0.73291005423E+01 0.71656265666E+01 0.78968408886E+01 0.91368848614E+01
 0.10586175485E+02 0.13756553727E+02 0.20345805620E+02 0.38449722180E+02 0.95483451554E+02
 0.21129637688E+03 0.38145199243E+03 0.57106185170E+03 0.72267423826E+03 0.78091234846E+03
 0.72267423826E+03 0.57106185170E+03 0.38145199243E+03 0.21129637688E+03 0.95483451554E+02
 0.38449722180E+02 0.20345805620E+02 0.13756553727E+02 0.10586175485E+02 0.91368848614E+01
 0.78968408886E+01 0.71656265666E+01 0.73291005423E+01 0.76021272934E+01 0.73291005423E+01
 0.71656265666E+01 0.78968408886E+01 0.91368848614E+01 0.10586175485E+02 0.13756553727E+02
 0.20345805620E+02 0.38449722180E+02 0.95483451554E+02 0.21129637688E+03 0.38145199243E+03
 0.57106185170E+03 0.72267423826E+03 0.72267423826E+03 0.66842885815E+03 0.52727390574E+03
 0.35100983087E+03 0.19346628079E+03 0.87220433660E+02 0.35870197503E+02 0.19872738181E+02
 0.13581939182E+02 0.10533391837E+02 0.91006492883E+01 0.78599740189E+01 0.70758002526E+01
 0.71224693469E+01 0.73291005423E+01 0.71224693469E+01 0.70758002526E+01 0.78599740189E+01
 0.91006492883E+01 0.10533391837E+02 0.13581939182E+02 0.19872738181E+02 0.35870197503E+02
 0.87220433660E+02 0.19346628079E+03 0.35100983087E+03 0.52727390574E+03 0.66842885815E+03
 0.57106185170E+03 0.52727390574E+03 0.41356341481E+03 0.27242072643E+03 0.14807671273E+03
 0.66802353084E+02 0.29848246040E+02 0.18621827454E+02 0.13105922734E+02 0.10417422109E+02
 0.90978737132E+01 0.79707960917E+01 0.71976675550E+01 0.70758002526E+01 0.71656265666E+01
 0.70758002526E+01 0.71976675550E+01 0.79707960917E+01 0.90978737132E+01 0.10417422109E+02
 0.13105922734E+02 0.18621827454E+02 0.29848246040E+02 0.66802353084E+02 0.14807671273E+03
 0.27242072643E+03 0.41356341481E+03 0.52727390574E+03 0.38145199243E+03 0.35100983087E+03
 0.27242072643E+03 0.17634479990E+03 0.94419414964E+02 0.44267373985E+02 0.23901859363E+02
 0.16845170474E+02 0.12463364723E+02 0.10328660501E+02 0.92830799705E+01 0.84897255462E+01
 0.79707960917E+01 0.78599740189E+01 0.78968408886E+01 0.78599740189E+01 0.79707960917E+01
 0.84897255462E+01 0.92830799705E+01 0.10328660501E+02 0.12463364723E+02 0.16845170474E+02
 0.23901859363E+02 0.44267373985E+02 0.94419414964E+02 0.17634479990E+03 0.27242072643E+03
 0.35100983087E+03 0.21129637688E+03 0.19346628079E+03 0.14807671273E+03 0.94419414964E+02
 0.51608519743E+02 0.28408033580E+02 0.19848622990E+02 0.14927414223E+02 0.11843717796E+02
 0.10356195862E+02 0.96742469163E+01 0.92830799705E+01 0.90978737132E+01 0.91006492883E+01
 0.91368848614E+01 0.91006492883E+01 0.90978737132E+01 0.92830799705E+01 0.96742469163E+01
 0.10356195862E+02 0.11843717796E+02 0.14927414223E+02 0.19848622990E+02 0.28408033580E+02
 0.51608519743E+02 0.94419414964E+02 0.14807671273E+03 0.19346628079E+03 0.95483451554E+02
 0.87220433660E+02 0.66802353084E+02 0.44267373985E+02 0.28408033580E+02 0.20913511646E+02
 0.16494520659E+02 0.13280298591E+02 0.11448302802E+02 0.10630922404E+02 0.10356195862E+02
 0.10328660501E+02 0.10417422109E+02 0.10533391837E+02 0.10586175485E+02 0.10533391837E+02
 0.10417422109E+02 0.10328660501E+02 0.10356195862E+02 0.10630922404E+02 0.11448302802E+02
 0.13280298591E+02 0.16494520659E+02 0.20913511646E+02 0.28408033580E+02 0.44267373985E+02
 0.66802353084E+02 0.87220433660E+02 0.38449722180E+02 0.35870197503E+02 0.29848246040E+02
 0.23901859363E+02 0.19848622990E+02 0.16494520659E+02 0.13845899418E+02 0.12201209492E+02
 0.11485292118E+02 0.11448302802E+02 0.11843717796E+02 0.12463364723E+02 0.13105922734E+02
 0.13581939182E+02 0.13756553727E+02 0.13581939182E+02 0.13105922734E+02 0.12463364723E+02
 0.11843717796E+02 0.11448302802E+02 0.11485292118E+02 0.12201209492E+02 0.13845899418E+02
 0.16494520659E+02 0.19848622990E+02 0.23901859363E+02 0.29848246040E+02 0.35870197503E+02
 0.20345805620E+02 0.19872738181E+02 0.18621827454E+02 0.16845170474E+02 0.14927414223E+02
 0.13280298591E+02 0.12201209492E+02 0.11830305876E+02 0.12201209492E+02 0.13280298591E+02
 0.14927414223E+02 0.16845170474E+02 0.18621827454E+02 0.19872738181E+02 0.20345805620E+02
 0.19872738181E+02 0.18621827454E+02 0.16845170474E+02 0.14927414223E+02 0.13280298591E+02
 0.12201209492E+02 0.11830305876E+02 0.12201209492E+02 0.13280298591E+02 0.14927414223E+02
 0.16845170474E+02 0.18621827454E+02 0.19872738181E+02 0.13756553727E+02 0.13581939182E+02
 0.13105922734E+02 0.12463364723E+02 0.11843717796E+02 0.11448302802E+02 0.11485292118E+02
 0.12201209492E+02 0.13845899418E+02 0.16494520659E+02 0.19848622990E+02 0.23901859363E+02
 0.29848246040E+02 0.35870197503E+02 0.38449722180E+02 0.35870197503E+02 0.29848246040E+02
 0.23901859363E+02 0.19848622990E+02 0.16494520659E+02 0.13845899418E+02 0.12201209492E+02
 0.11485292118E+02 0.11448302802E+02 0.11843717796E+02 0.12463364723E+02 0.13105922734E+02
 0.13581939182E+02 0.10586175485E+02 0.10533391837E+02 0.10417422109E+02 0.10328660501E+02
 0.10356195862E+02 0.10630922404E+02 0.11448302802E+02 0.13280298591E+02 0.16494520659E+02
 0.20913511646E+02 0.28408033580E+02 0.44267373985E+02 0.66802353084E+02 0.87220433660E+02
 0.95483451554E+02 0.87220433660E+02 0.66802353084E+02 0.44267373985E+02 0.28408033580E+02
 0.20913511646E+02 0.16494520659E+02 0.13280298591E+02 0.11448302802E+02 0.10630922404E+02
 0.10356195862E+02 0.10328660501E+02 0.10417422109E+02 0.10533391837E+02 0.91368848614E+01
 0.91006492883E+01 0.90978737132E+01 0.92830799705E+01 0.96742469163E+01 0.10356195862E+02
 0.11843717796E+02 0.14927414223E+02 0.19848622990E+02 0.28408033580E+02 0.51608519743E+02
 0.94419414964E+02 0.14807671273E+03 0.19346628079E+03 0.21129637688E+03 0.19346628079E+03
 0.14807671273E+03 0.94419414964E+02 0.51608519743E+02 0.28408033580E+02 0.19848622990E+02
 0.14927414223E+02 0.11843717796E+02 0.10356195862E+02 0.96742469163E+01 0.92830799705E+01
 0.90978737132E+01 0.91006492883E+01 0.78968408886E+01 0.78599740189E+01 0.79707960917E+01
 0.84897255462E+01 0.92830799705E+01 0.10328660501E+02 0.12463364723E+02 0.16845170474E+02
 0.23901859363E+02 0.44267373985E+02 0.94419414964E+02 0.17634479990E+03 0.27242072643E+03
 0.35100983087E+03 0.38145199243E+03 0.35100983087E+03 0.27242072643E+03 0.17634479990E+03
 0.94419414964E+02 0.44267373985E+02 0.23901859363E+02 0.16845170474E+02 0.12463364723E+02
 0.10328660501E+02 0.92830799705E+01 0.84897255462E+01 0.79707960917E+01 0.78599740189E+01
 0.71656265666E+01 0.70758002526E+01 0.71976675550E+01 0.79707960917E+01 0.90978737132E+01
 0.10417422109E+02 0.13105922734E+02 0.18621827454E+02 0.29848246040E+02 0.66802353084E+02
 0.14807671273E+03 0.27242072643E+03 0.41356341481E+03 0.52727390574E+03 0.57106185170E+03
 0.52727390574E+03 0.41356341481E+03 0.27242072643E+03 0.14807671273E+03 0.66802353084E+02
 0.29848246040E+02 0.18621827454E+02 0.13105922734E+02 0.10417422109E+02 0.90978737132E+01
 0.79707960917E+01 0.71976675550E+01 0.70758002526E+01 0.73291005423E+01 0.71224693469E+01
 0.70758002526E+01 0.78599740189E+01 0.91006492883E+01 0.10533391837E+02 0.13581939182E+02
 0.19872738181E+02 0.35870197503E+02 0.87220433660E+02 0.19346628079E+03 0.35100983087E+03
 0.52727390574E+03 0.66842885815E+03 0.72267423826E+03 0.66842885815E+03 0.52727390574E+03
 0.35100983087E+03 0.19346628079E+03 0.87220433660E+02 0.35870197503E+02 0.19872738181E+02
 0.13581939182E+02 0.10533391837E+02 0.91006492883E+01 0.78599740189E+01 0.70758002526E+01
 0.71224693469E+01 0.76021272934E+01 0.73291005423E+01 0.71656265666E+01 0.78968408886E+01
 0.91368848614E+01 0.10586175485E+02 0.13756553727E+02 0.20345805620E+02 0.38449722180E+02
 0.95483451554E+02 0.21129637688E+03 0.38145199243E+03 0.57106185170E+03 0.72267423826E+03
 0.78091234846E+03 0.72267423826E+03 0.57106185170E+03 0.38145199243E+03 0.21129637688E+03
 0.95483451554E+02 0.38449722180E+02 0.20345805620E+02 0.13756553727E+02 0.10586175485E+02
 0.91368848614E+01 0.78968408886E+01 0.71656265666E+01 0.73291005423E+01 0.73291005423E+01
 0.71224693469E+01 0.70758002526E+01 0.78599740189E+01 0.91006492883E+01 0.10533391837E+02
 0.13581939182E+02 0.19872738181E+02 0.35870197503E+02 0.87220433660E+02 0.19346628079E+03
 0.35100983087E+03 0.52727390574E+03 0.66842885815E+03 0.72267423826E+03 0.66842885815E+03
 0.52727390574E+03 0.35100983087E+03 0.19346628079E+03 0.87220433660E+02 0.35870197503E+02
 0.19872738181E+02 0.13581939182E+02 0.10533391837E+02 0.91006492883E+01 0.78599740189E+01
 0.70758002526E+01 0.71224693469E+01 0.71656265666E+01 0.70758002526E+01 0.71976675550E+01
 0.79707960917E+01 0.90978737132E+01 0.10417422109E+02 0.13105922734E+02 0.18621827454E+02
 0.29848246040E+02 0.66802353084E+02 0.14807671273E+03 0.27242072643E+03 0.41356341481E+03
 0.52727390574E+03 0.57106185170E+03 0.52727390574E+03 0.41356341481E+03 0.27242072643E+03
 0.14807671273E+03 0.66802353084E+02 0.29848246040E+02 0.18621827454E+02 0.13105922734E+02
 0.10417422109E+02 0.90978737132E+01 0.79707960917E+01 0.71976675550E+01 0.70758002526E+01
 0.78968408886E+01 0.78599740189E+01 0.79707960917E+01 0.84897255462E+01 0.92830799705E+01
 0.10328660501E+02 0.12463364723E+02 0.16845170474E+02 0.23901859363E+02 0.44267373985E+02
 0.94419414964E+02 0.17634479990E+03 0.27242072643E+03 0.35100983087E+03 0.38145199243E+03
 0.35100983087E+03 0.27242072643E+03 0.17634479990E+03 0.94419414964E+02 0.44267373985E+02
 0.23901859363E+02 0.16845170474E+02 0.12463364723E+02 0.10328660501E+02 0.92830799705E+01
 0.84897255462E+01 0.79707960917E+01 0.78599740189E+01 0.91368848614E+01 0.91006492883E+01
 0.90978737132E+01 0.92830799705E+01 0.96742469163E+01 0.10356195862E+02 0.11843717796E+02
 0.14927414223E+02 0.19848622990E+02 0.28408033580E+02 0.51608519743E+02 0.94419414964E+02
 0.14807671273E+03 0.19346628079E+03 0.21129637688E+03 0.19346628079E+03 0.14807671273E+03
 0.94419414964E+02 0.51608519743E+02 0.28408033580E+02 0.19848622990E+02 0.14927414223E+02
 0.11843717796E+02 0.10356195862E+02 0.96742469163E+01 0.92830799705E+01 0.90978737132E+01
 0.91006492883E+01 0.10586175485E+02 0.10533391837E+02 0.10417422109E+02 0.10328660501E+02
 0.10356195862E+02 0.10630922404E+02 0.11448302802E+02 0.13280298591E+02 0.16494520659E+02
 0.20913511646E+02 0.28408033580E+02 0.44267373985E+02 0.66802353084E+02 0.87220433660E+02
 0.95483451554E+02 0.87220433660E+02 0.66802353084E+02 0.44267373985E+02 0.28408033580E+02
 0.20913511646E+02 0.16494520659E+02 0.13280298591E+02 0.11448302802E+02 0.10630922404E+02
 0.10356195862E+02 0.10328660501E+02 0.10417422109E+02 0.10533391837E+02 0.13756553727E+02
 0.13581939182E+02 0.13105922734E+02 0.12463364723E+02 0.11843717796E+02 0.11448302802E+02
 0.11485292118E+02 0.12201209492E+02 0.13845899418E+02 0.16494520659E+02 0.19848622990E+02
 0.23901859363E+02 0.29848246040E+02 0.35870197503E+02 0.38449722180E+02 0.35870197503E+02
 0.29848246040E+02 0.23901859363E+02 0.19848622990E+02 0.16494520659E+02 0.13845899418E+02
 0.12201209492E+02 0.11485292118E+02 0.11448302802E+02 0.11843717796E+02 0.12463364723E+02
 0.13105922734E+02 0.13581939182E+02 0.20345805620E+02 0.19872738181E+02 0.18621827454E+02
 0.16845170474E+02 0.14927414223E+02 0.13280298591E+02 0.12201209492E+02 0.11830305876E+02
 0.12201209492E+02 0.13280298591E+02 0.14927414223E+02 0.16845170474E+02 0.18621827454E+02
 0.19872738181E+02 0.20345805620E+02 0.19872738181E+02 0.18621827454E+02 0.16845170474E+02
 0.14927414223E+02 0.13280298591E+02 0.12201209492E+02 0.11830305876E+02 0.12201209492E+02
 0.13280298591E+02 0.14927414223E+02 0.16845170474E+02 0.18621827454E+02 0.19872738181E+02
 0.38449722180E+02 0.35870197503E+02 0.29848246040E+02 0.23901859363E+02 0.19848622990E+02
 0.16494520659E+02 0.13845899418E+02 0.12201209492E+02 0.11485292118E+02 0.11448302802E+02
 0.11843717796E+02 0.12463364723E+02 0.13105922734E+02 0.13581939182E+02 0.13756553727E+02
 0.13581939182E+02 0.13105922734E+02 0.12463364723E+02 0.11843717796E+02 0.11448302802E+02
 0.11485292118E+02 0.12201209492E+02 0.13845899418E+02 0.16494520659E+02 0.19848622990E+02
 0.23901859363E+02 0.29848246040E+02 0.35870197503E+02 0.95483451554E+02 0.87220433660E+02
 0.66802353084E+02 0.44267373985E+02 0.28408033580E+02 0.20913511646E+02 0.16494520659E+02
 0.13280298591E+02 0.11448302802E+02 0.10630922404E+02 0.10356195862E+02 0.10328660501E+02
 0.10417422109E+02 0.10533391837E+02 0.10586175485E+02 0.10533391837E+02 0.10417422109E+02
 0.10328660501E+02 0.10356195862E+02 0.10630922404E+02 0.11448302802E+02 0.13280298591E+02
 0.16494520659E+02 0.20913511646E+02 0.28408033580E+02 0.44267373985E+02 0.66802353084E+02
 0.87220433660E+02 0.21129637688E+03 0.19346628079E+03 0.14807671273E+03 0.94419414964E+02
 0.51608519743E+02 0.28408033580E+02 0.19848622990E+02 0.14927414223E+02 0.11843717796E+02
 0.10356195862E+02 0.96742469163E+01 0.92830799705E+01 0.90978737132E+01 0.91006492883E+01
 0.91368848614E+01 0.91006492883E+01 0.90978737132E+01 0.92830799705E+01 0.96742469163E+01
 0.10356195862E+02 0.11843717796E+02 0.14927414223E+02 0.19848622990E+02 0.28408033580E+02
 0.51608519743E+02 0.94419414964E+02 0.14807671273E+03 0.19346628079E+03 0.38145199243E+03
 0.35100983087E+03 0.27242072643E+03 0.17634479990E+03 0.94419414964E+02 0.44267373985E+02
 0.23901859363E+02 0.16845170474E+02 0.12463364723E+02 0.10328660501E+02 0.92830799705E+01
 0.84897255462E+01 0.79707960917E+01 0.78599740189E+01 0.78968408886E+01 0.78599740189E+01
 0.79707960917E+01 0.84897255462E+01 0.92830799705E+01 0.10328660501E+02 0.12463364723E+02
 0.16845170474E+02 0.23901859363E+02 0.44267373985E+02 0.94419414964E+02 0.17634479990E+03
 0.27242072643E+03 0.35100983087E+03 0.57106185170E+03 0.52727390574E+03 0.41356341481E+03
 0.27242072643E+03 0.14807671273E+03 0.66802353084E+02 0.29848246040E+02 0.18621827454E+02
 0.13105922734E+02 0.10417422109E+02 0.90978737132E+01 0.79707960917E+01 0.71976675550E+01
 0.70758002526E+01 0.71656265666E+01 0.70758002526E+01 0.71976675550E+01 0.79707960917E+01
 0.90978737132E+01 0.10417422109E+02 0.13105922734E+02 0.18621827454E+02 0.29848246040E+02
 0.66802353084E+02 0.14807671273E+03 0.27242072643E+03 0.41356341481E+03 0.52727390574E+03
 0.72267423826E+03 0.66842885815E+03 0.52727390574E+03 0.35100983087E+03 0.19346628079E+03
 0.87220433660E+02 0.35870197503E+02 0.19872738181E+02 0.13581939182E+02 0.10533391837E+02
 0.91006492883E+01 0.78599740189E+01 0.70758002526E+01 0.71224693469E+01 0.73291005423E+01
 0.71224693469E+01 0.70758002526E+01 0.78599740189E+01 0.91006492883E+01 0.10533391837E+02
 0.13581939182E+02 0.19872738181E+02 0.35870197503E+02 0.87220433660E+02 0.19346628079E+03
 0.35100983087E+03 0.52727390574E+03 0.66842885815E+03 0.61811248321E+03 0.57106185170E+03
 0.44878397051E+03 0.29667252012E+03 0.16197366624E+03 0.72959023481E+02 0.31622173539E+02
 0.19038195585E+02 0.13265590783E+02 0.10454896079E+02 0.91015112064E+01 0.79563890877E+01
 0.72085453197E+01 0.71656265666E+01 0.73024476188E+01 0.71656265666E+01 0.72085453197E+01
 0.79563890877E+01 0.91015112064E+01 0.10454896079E+02 0.13265590783E+02 0.19038195585E+02
 0.31622173539E+02 0.72959023481E+02 0.16197366624E+03 0.29667252012E+03 0.44878397051E+03
 0.57106185170E+03 0.57106185170E+03 0.52727390574E+03 0.41356341481E+03 0.27242072643E+03
 0.14807671273E+03 0.66802353084E+02 0.29848246040E+02 0.18621827454E+02 0.13105922734E+02
 0.10417422109E+02 0.90978737132E+01 0.79707960917E+01 0.71976675550E+01 0.70758002526E+01
 0.71656265666E+01 0.70758002526E+01 0.71976675550E+01 0.79707960917E+01 0.90978737132E+01
 0.10417422109E+02 0.13105922734E+02 0.18621827454E+02 0.29848246040E+02 0.66802353084E+02
 0.14807671273E+03 0.27242072643E+03 0.41356341481E+03 0.52727390574E+03 0.44878397051E+03