   4   4   0   0
  0.1200752E+02  0.3635000E-09  0.3635000E-09  0.3635000E-09  0.5000000E-15
  1.000000000000000E-004
  CAR 
 unknown system                          
     27.68994886     -3.83338320  301      7.22661456      1.00000000
     -3.833  0.0000E+00  0.0000E+00
     -3.728  0.0000E+00  0.0000E+00
     -3.623  0.0000E+00  0.0000E+00
     -3.518 -0.5502E-31 -0.5782E-32
     -3.413 -0.2734E-27 -0.2873E-28
     -3.308 -0.7788E-24 -0.8186E-25
     -3.203 -0.1271E-20 -0.1336E-21
     -3.098 -0.1186E-17 -0.1248E-18
     -2.993 -0.6161E-15 -0.6486E-16
     -2.888 -0.1859E-12 -0.1960E-13
     -2.783 -0.3197E-10 -0.3379E-11
     -2.678 -0.3110E-08 -0.3302E-09
     -2.572 -0.1699E-06 -0.1819E-07
     -2.467 -0.5155E-05 -0.5599E-06
     -2.362 -0.8490E-04 -0.9481E-05
     -2.257 -0.7227E-03 -0.8542E-04
     -2.152 -0.2743E-02 -0.3737E-03
     -2.047 -0.1146E-02 -0.4941E-03
     -1.942  0.2090E-01  0.1702E-02
     -1.837  0.5604E-01  0.7591E-02
     -1.732  0.5022E-01  0.1287E-01
     -1.627  0.3581E-02  0.1324E-01
     -1.522  0.3342E-01  0.1676E-01
     -1.417  0.2287E+00  0.4079E-01
     -1.312  0.3801E+00  0.8072E-01
     -1.206  0.2316E+00  0.1051E+00
     -1.101  0.4459E-01  0.1097E+00
     -0.996  0.2510E+00  0.1361E+00
     -0.891  0.6889E+00  0.2085E+00
     -0.786  0.6783E+00  0.2798E+00
     -0.681  0.2425E+00  0.3053E+00
     -0.576  0.1030E+00  0.3161E+00
     -0.471  0.3744E+00  0.3554E+00
     -0.366  0.4868E+00  0.4066E+00
     -0.261  0.2293E+00  0.4307E+00
     -0.156  0.6322E-01  0.4373E+00
     -0.051  0.2217E+00  0.4606E+00
      0.054  0.3408E+00  0.4964E+00
      0.160  0.1648E+00  0.5138E+00
      0.265  0.2245E+00  0.5373E+00
      0.370  0.9827E+00  0.6406E+00
      0.475  0.1490E+01  0.7972E+00
      0.580  0.9399E+00  0.8960E+00
      0.685  0.6372E+00  0.9629E+00
      0.790  0.1280E+01  0.1097E+01
      0.895  0.1403E+01  0.1245E+01
      1.000  0.5848E+00  0.1306E+01
      1.105 -0.9023E-02  0.1305E+01
      1.210 -0.9766E-01  0.1295E+01
      1.315 -0.7061E-01  0.1288E+01
      1.421  0.7203E-01  0.1295E+01
      1.526  0.5142E+00  0.1349E+01
      1.631  0.1226E+01  0.1478E+01
      1.736  0.1933E+01  0.1681E+01
      1.841  0.1812E+01  0.1871E+01
      1.946  0.1008E+01  0.1977E+01
      2.051  0.1174E+01  0.2101E+01
      2.156  0.2035E+01  0.2315E+01
      2.261  0.2166E+01  0.2542E+01
      2.366  0.1765E+01  0.2728E+01
      2.471  0.1590E+01  0.2895E+01
      2.576  0.2413E+01  0.3148E+01
      2.681  0.4409E+01  0.3612E+01
      2.787  0.6397E+01  0.4284E+01
      2.892  0.6678E+01  0.4985E+01
      2.997  0.5477E+01  0.5561E+01
      3.102  0.4572E+01  0.6041E+01
      3.207  0.6230E+01  0.6696E+01
      3.312  0.9733E+01  0.7719E+01
      3.417  0.1042E+02  0.8814E+01
      3.522  0.9102E+01  0.9770E+01
      3.627  0.9290E+01  0.1075E+02
      3.732  0.8758E+01  0.1167E+02
      3.837  0.7308E+01  0.1243E+02
      3.942  0.8580E+01  0.1334E+02
      4.047  0.1152E+02  0.1455E+02
      4.153  0.1370E+02  0.1599E+02
      4.258  0.1593E+02  0.1766E+02
      4.363  0.1702E+02  0.1945E+02
      4.468  0.1636E+02  0.2117E+02
      4.573  0.1460E+02  0.2270E+02
      4.678  0.1213E+02  0.2398E+02
      4.783  0.1130E+02  0.2517E+02
      4.888  0.1306E+02  0.2654E+02
      4.993  0.1473E+02  0.2808E+02
      5.098  0.1429E+02  0.2959E+02
      5.203  0.1514E+02  0.3118E+02
      5.308  0.1645E+02  0.3291E+02
      5.413  0.1350E+02  0.3432E+02
      5.519  0.1199E+02  0.3558E+02
      5.624  0.1665E+02  0.3733E+02
      5.729  0.1986E+02  0.3942E+02
      5.834  0.1515E+02  0.4101E+02
      5.939  0.7896E+01  0.4184E+02
      6.044  0.4045E+01  0.4227E+02
      6.149  0.2658E+01  0.4255E+02
      6.254  0.1896E+01  0.4275E+02
      6.359  0.1053E+01  0.4286E+02
      6.464  0.2164E+00  0.4288E+02
      6.569 -0.1077E+00  0.4287E+02
      6.674 -0.3464E-01  0.4286E+02
      6.779  0.1159E+00  0.4288E+02
      6.885  0.1358E+00  0.4289E+02
      6.990  0.6935E+00  0.4296E+02
      7.095  0.3057E+01  0.4328E+02
      7.200  0.5422E+01  0.4385E+02
      7.305  0.4550E+01  0.4433E+02
      7.410  0.1738E+01  0.4452E+02
      7.515  0.1714E-01  0.4452E+02
      7.620 -0.2335E+00  0.4449E+02
      7.725  0.3594E+00  0.4453E+02
      7.830  0.1309E+01  0.4467E+02
      7.935  0.1466E+01  0.4482E+02
      8.040  0.6250E+00  0.4489E+02
      8.145 -0.4898E-01  0.4488E+02
      8.251 -0.1188E+00  0.4487E+02
      8.356  0.3966E+00  0.4491E+02
      8.461  0.1261E+01  0.4504E+02
      8.566  0.1357E+01  0.4519E+02
      8.671  0.8239E+00  0.4527E+02
      8.776  0.1334E+01  0.4541E+02
      8.881  0.2314E+01  0.4566E+02
      8.986  0.1838E+01  0.4585E+02
      9.091  0.5301E+00  0.4591E+02
      9.196 -0.1226E+00  0.4589E+02
      9.301 -0.1528E+00  0.4588E+02
      9.406  0.2478E+00  0.4590E+02
      9.511  0.1048E+01  0.4601E+02
      9.617  0.1431E+01  0.4616E+02
      9.722  0.1654E+01  0.4634E+02
      9.827  0.2847E+01  0.4664E+02
      9.932  0.3389E+01  0.4699E+02
     10.037  0.2009E+01  0.4720E+02
     10.142  0.4690E+00  0.4725E+02
     10.247 -0.8281E-01  0.4724E+02
     10.352 -0.8680E-01  0.4723E+02
     10.457 -0.4025E-01  0.4723E+02
     10.562 -0.4302E-01  0.4723E+02
     10.667  0.5545E-01  0.4723E+02
     10.772  0.4415E+00  0.4728E+02
     10.878  0.7769E+00  0.4736E+02
     10.983  0.5493E+00  0.4742E+02
     11.088  0.9139E-01  0.4743E+02
     11.193 -0.1167E+00  0.4741E+02
     11.298  0.5425E-01  0.4742E+02
     11.403  0.7763E+00  0.4750E+02
     11.508  0.1462E+01  0.4766E+02
     11.613  0.1403E+01  0.4780E+02
     11.718  0.1454E+01  0.4796E+02
     11.823  0.1963E+01  0.4816E+02
     11.928  0.2085E+01  0.4838E+02
     12.033  0.1528E+01  0.4854E+02
     12.138  0.8631E+00  0.4863E+02
     12.244  0.5867E+00  0.4869E+02
     12.349  0.8886E+00  0.4879E+02
     12.454  0.2218E+01  0.4902E+02
     12.559  0.3008E+01  0.4934E+02
     12.664  0.1787E+01  0.4952E+02
     12.769  0.7968E+00  0.4961E+02
     12.874  0.1242E+01  0.4974E+02
     12.979  0.1293E+01  0.4987E+02
     13.084  0.5644E+00  0.4993E+02
     13.189  0.3118E+00  0.4997E+02
     13.294  0.4543E+00  0.5001E+02
     13.399  0.3022E+00  0.5005E+02
     13.504 -0.3736E-03  0.5005E+02
     13.610 -0.1799E+00  0.5003E+02
     13.715  0.7765E-01  0.5004E+02
     13.820  0.1464E+01  0.5019E+02
     13.925  0.3022E+01  0.5051E+02
     14.030  0.2476E+01  0.5077E+02
     14.135  0.6752E+00  0.5084E+02
     14.240 -0.1553E+00  0.5082E+02
     14.345  0.6338E-01  0.5083E+02
     14.450  0.8887E+00  0.5092E+02
     14.555  0.1859E+01  0.5112E+02
     14.660  0.1903E+01  0.5132E+02
     14.765  0.1004E+01  0.5142E+02
     14.870  0.6395E+00  0.5149E+02
     14.976  0.1219E+01  0.5162E+02
     15.081  0.1546E+01  0.5178E+02
     15.186  0.1598E+01  0.5195E+02
     15.291  0.1894E+01  0.5215E+02
     15.396  0.2000E+01  0.5236E+02
     15.501  0.2519E+01  0.5262E+02
     15.606  0.3089E+01  0.5295E+02
     15.711  0.1971E+01  0.5315E+02
     15.816  0.3054E+00  0.5319E+02
     15.921 -0.1717E+00  0.5317E+02
     16.026  0.4626E+00  0.5322E+02
     16.131  0.1382E+01  0.5336E+02
     16.236  0.1337E+01  0.5350E+02
     16.342  0.5140E+00  0.5356E+02
     16.447  0.3673E+00  0.5359E+02
     16.552  0.9661E+00  0.5370E+02
     16.657  0.1360E+01  0.5384E+02
     16.762  0.1508E+01  0.5400E+02
     16.867  0.1782E+01  0.5418E+02
     16.972  0.2033E+01  0.5440E+02
     17.077  0.2295E+01  0.5464E+02
     17.182  0.2320E+01  0.5488E+02
     17.287  0.1655E+01  0.5506E+02
     17.392  0.7487E+00  0.5514E+02
     17.497  0.2538E+00  0.5516E+02
     17.602  0.3298E+00  0.5520E+02
     17.708  0.1031E+01  0.5531E+02
     17.813  0.1420E+01  0.5545E+02
     17.918  0.9160E+00  0.5555E+02
     18.023  0.1066E+01  0.5566E+02
     18.128  0.2293E+01  0.5590E+02
     18.233  0.2847E+01  0.5620E+02
     18.338  0.2105E+01  0.5642E+02
     18.443  0.8532E+00  0.5651E+02
     18.548  0.3491E+00  0.5655E+02
     18.653  0.1276E+01  0.5668E+02
     18.758  0.2496E+01  0.5695E+02
     18.863  0.2450E+01  0.5720E+02
     18.968  0.1408E+01  0.5735E+02
     19.074  0.1620E+01  0.5752E+02
     19.179  0.3636E+01  0.5790E+02
     19.284  0.4176E+01  0.5834E+02
     19.389  0.2044E+01  0.5856E+02
     19.494  0.1657E+00  0.5858E+02
     19.599 -0.2068E+00  0.5855E+02
     19.704 -0.7901E-01  0.5855E+02
     19.809 -0.1899E-01  0.5854E+02
     19.914 -0.4418E-01  0.5854E+02
     20.019 -0.1091E+00  0.5853E+02
     20.124  0.7976E-01  0.5854E+02
     20.229  0.1038E+01  0.5864E+02
     20.335  0.2371E+01  0.5889E+02
     20.440  0.2677E+01  0.5918E+02
     20.545  0.1588E+01  0.5934E+02
     20.650  0.3548E+00  0.5938E+02
     20.755 -0.9487E-01  0.5937E+02
     20.860 -0.7120E-01  0.5936E+02
     20.965 -0.1576E-01  0.5936E+02
     21.070 -0.1681E-02  0.5936E+02
     21.175 -0.9502E-04  0.5936E+02
     21.280 -0.2946E-05  0.5936E+02
     21.385 -0.5098E-07  0.5936E+02
     21.490 -0.3444E-08  0.5936E+02
     21.595 -0.2439E-06  0.5936E+02
     21.701 -0.1131E-04  0.5936E+02
     21.806 -0.2898E-03  0.5936E+02
     21.911 -0.3992E-02  0.5936E+02
     22.016 -0.2772E-01  0.5936E+02
     22.121 -0.7754E-01  0.5935E+02
     22.226  0.5546E-01  0.5935E+02
     22.331  0.7585E+00  0.5943E+02
     22.436  0.1522E+01  0.5959E+02
     22.541  0.1221E+01  0.5972E+02
     22.646  0.3353E+00  0.5976E+02
     22.751 -0.6166E-01  0.5975E+02
     22.856 -0.5389E-01  0.5975E+02
     22.961 -0.1164E-01  0.5974E+02
     23.067 -0.1179E-02  0.5974E+02
     23.172 -0.6263E-04  0.5974E+02
     23.277 -0.1818E-05  0.5974E+02
     23.382 -0.2937E-07  0.5974E+02
     23.487 -0.2671E-09  0.5974E+02
     23.592 -0.1375E-11  0.5974E+02
     23.697 -0.4057E-14  0.5974E+02
     23.802  0.0000E+00  0.5974E+02
     23.907  0.0000E+00  0.5974E+02
     24.012 -0.1585E-29  0.5974E+02
     24.117 -0.7587E-26  0.5974E+02
     24.222 -0.2082E-22  0.5974E+02
     24.327 -0.3272E-19  0.5974E+02
     24.433 -0.2942E-16  0.5974E+02
     24.538 -0.1472E-13  0.5974E+02
     24.643 -0.4276E-11  0.5974E+02
     24.748 -0.7079E-09  0.5974E+02
     24.853 -0.6626E-07  0.5974E+02
     24.958 -0.3482E-05  0.5974E+02
     25.063 -0.1015E-03  0.5974E+02
     25.168 -0.1602E-02  0.5974E+02
     25.273 -0.1300E-01  0.5974E+02
     25.378 -0.4616E-01  0.5974E+02
     25.483 -0.7922E-02  0.5974E+02
     25.588  0.3749E+00  0.5978E+02
     25.693  0.9483E+00  0.5988E+02
     25.799  0.9207E+00  0.5997E+02
     25.904  0.3363E+00  0.6001E+02
     26.009 -0.1825E-01  0.6001E+02
     26.114 -0.4389E-01  0.6000E+02
     26.219 -0.1156E-01  0.6000E+02
     26.324 -0.1358E-02  0.6000E+02
     26.429 -0.8248E-04  0.6000E+02
     26.534 -0.2719E-05  0.6000E+02
     26.639 -0.4976E-07  0.6000E+02
     26.744 -0.5116E-09  0.6000E+02
     26.849 -0.2975E-11  0.6000E+02
     26.954 -0.9737E-14  0.6000E+02
     27.059  0.0000E+00  0.6000E+02
     27.165  0.0000E+00  0.6000E+02
     27.270  0.0000E+00  0.6000E+02
     27.375  0.0000E+00  0.6000E+02
     27.480  0.0000E+00  0.6000E+02
     27.585  0.0000E+00  0.6000E+02
     27.690  0.0000E+00  0.6000E+02
