unknown system                          
   1.00000000000000     
     2.306700    0.000000    0.000000
    -1.153350    1.997661    0.000000
     0.000000    0.000000    4.221360
   Fe
     2
Direct
  0.000000  0.000000  0.000000
  0.333333  0.666667  0.500000
 
   20   20   36
  163.41      155.00      132.34      101.81      70.560      44.115      25.376      14.722      10.392      9.2217    
  8.8799      9.2218      10.392      14.722      25.376      44.115      70.560      101.81      132.34      155.00    
  155.00      155.00      139.50      113.08      82.584      54.333      32.443      18.484      11.703      9.5328    
  8.8815      8.8812      9.5325      11.703      18.484      32.442      54.332      82.588      113.09      139.51    
  132.35      139.48      132.34      113.08      87.025      60.308      37.757      21.980      13.269      9.8954    
  8.9114      8.5881      8.9107      9.8953      13.269      21.979      37.754      60.306      87.028      113.09    
  101.80      113.02      113.02      101.81      82.584      60.308      39.732      24.087      14.558      10.301    
  8.9554      8.3774      8.3771      8.9551      10.301      14.559      24.087      39.729      60.303      82.579    
  70.549      82.500      86.914      82.509      70.560      54.333      37.757      24.087      15.057      10.579    
  8.9941      8.2539      7.9949      8.2540      8.9942      10.580      15.059      24.090      37.757      54.327    
  44.114      54.263      60.186      60.189      54.268      44.115      32.443      21.980      14.558      10.579    
  9.0101      8.2007      7.7771      7.7774      8.2006      9.0090      10.579      14.561      21.987      32.448    
  25.383      32.418      37.686      39.638      37.683      32.412      25.376      18.484      13.269      10.301    
  8.9942      8.2007      7.7080      7.5462      7.7086      8.1999      8.9911      10.297      13.269      18.489    
  14.722      18.492      21.976      24.065      24.062      21.969      18.487      14.722      11.703      9.8954    
  8.9554      8.2540      7.7771      7.5462      7.5469      7.7783      8.2537      8.9521      9.8895      11.698    
  10.384      11.720      13.303      14.597      15.095      14.595      13.303      11.725      10.392      9.5328    
  8.9113      8.3775      7.9948      7.7774      7.7087      7.7783      7.9973      8.3805      8.9113      9.5275    
  9.2214      9.5556      9.9425      10.369      10.659      10.661      10.373      9.9484      9.5606      9.2217    
  8.8815      8.5881      8.3772      8.2539      8.2007      8.1999      8.2536      8.3805      8.5945      8.8865    
  8.8873      8.9164      8.9707      9.0381      9.0961      9.1209      9.0991      9.0411      8.9702      8.9111    
  8.8799      8.8812      8.9107      8.9551      8.9942      9.0090      8.9910      8.9520      8.9114      8.8866    
  9.2214      8.9164      8.6564      8.4746      8.3749      8.3370      8.3377      8.3752      8.4712      8.6500    
  8.9115      9.2217      9.5325      9.8954      10.301      10.580      10.579      10.297      9.8895      9.5275    
  10.384      9.5555      8.9708      8.4746      8.1250      7.9311      7.8710      7.9303      8.1225      8.4715    
  8.9708      9.5609      10.392      11.703      13.269      14.559      15.059      14.561      13.269      11.698    
  14.722      11.720      9.9426      9.0381      8.3749      7.9311      7.7189      7.7183      7.9300      8.3752    
  9.0414      9.9484      11.725      14.722      18.484      21.979      24.087      24.091      21.987      18.489    
  25.384      18.492      13.303      10.369      9.0960      8.3370      7.8710      7.7182      7.8704      8.3378    
  9.0991      10.372      13.303      18.487      25.376      32.442      37.754      39.729      37.757      32.448    
  44.114      32.418      21.976      14.597      10.660      9.1209      8.3378      7.9303      7.9300      8.3378    
  9.1220      10.660      14.594      21.970      32.414      44.115      54.332      60.305      60.303      54.327    
  70.549      54.263      37.686      24.065      15.095      10.661      9.0991      8.3751      8.1225      8.3752    
  9.0991      10.660      15.093      24.062      37.686      54.269      70.560      82.588      87.028      82.579    
  101.80      82.500      60.186      39.638      24.062      14.595      10.373      9.0411      8.4712      8.4715    
  9.0414      10.372      14.594      24.062      39.641      60.191      82.505      101.81      113.09      113.09    
  132.35      113.02      86.914      60.189      37.682      21.969      13.303      9.9485      8.9702      8.6500    
  8.9707      9.9483      13.303      21.970      37.686      60.191      86.911      113.01      132.34      139.51    
  155.00      139.48      113.02      82.509      54.268      32.412      18.487      11.725      9.5605      8.9111    
  8.9114      9.5609      11.725      18.487      32.414      54.269      82.505      113.01      139.47      155.00    
  154.69      146.74      125.29      96.362      66.744      41.710      24.055      14.120      10.153      9.0606    
  8.7269      9.0607      10.153      14.120      24.055      41.710      66.744      96.362      125.29      146.74    
  146.74      146.74      132.07      107.04      78.133      51.364      30.687      17.600      11.335      9.3561    
  8.7229      8.7226      9.3558      11.335      17.600      30.685      51.363      78.136      107.05      132.08    
  125.30      132.05      125.29      107.04      82.340      57.015      35.687      20.854      12.759      9.6796    
  8.7485      8.4344      8.7478      9.6795      12.760      20.853      35.684      57.012      82.343      107.05    
  96.359      107.00      107.00      96.362      78.133      57.015      37.547      22.820      13.940      10.037    
  8.7897      8.2291      8.2288      8.7894      10.038      13.941      22.820      37.544      57.010      78.128    
  66.734      78.070      82.257      78.078      66.744      51.364      35.687      22.820      14.398      10.284    
  8.8268      8.1094      7.8598      8.1095      8.8269      10.285      14.400      22.823      35.687      51.358    
  41.709      51.318      56.932      56.935      51.323      41.710      30.687      20.854      13.940      10.284    
  8.8417      8.0581      7.6508      7.6511      8.0580      8.8407      10.284      13.943      20.860      30.691    
  24.062      30.684      35.657      37.502      35.654      30.679      24.055      17.600      12.759      10.037    
  8.8268      8.0581      7.5846      7.4298      7.5852      8.0573      8.8240      10.035      12.760      17.605    
  14.120      17.628      20.888      22.847      22.844      20.881      17.623      14.120      11.335      9.6796    
  8.7897      8.1095      7.6508      7.4297      7.4303      7.6518      8.1092      8.7866      9.6741      11.330    
  10.145      11.369      12.826      14.023      14.485      14.021      12.826      11.373      10.153      9.3561    
  8.7485      8.2291      7.8598      7.6511      7.5853      7.6518      7.8621      8.2319      8.7484      9.3512    
  9.0604      9.3929      9.7539      10.143      10.408      10.409      10.147      9.7594      9.3975      9.0607    
  8.7228      8.4344      8.2288      8.1094      8.0581      8.0573      8.1091      8.2319      8.4404      8.7276    
  8.7338      8.7698      8.8313      8.9047      8.9664      8.9919      8.9693      8.9075      8.8308      8.7649    
  8.7269      8.7225      8.7478      8.7894      8.8268      8.8407      8.8239      8.7866      8.7485      8.7276    
  9.0603      8.7698      8.5246      8.3551      8.2636      8.2294      8.2301      8.2638      8.3520      8.5187    
  8.7652      9.0607      9.3559      9.6796      10.038      10.285      10.284      10.035      9.6742      9.3512    
  10.145      9.3929      8.8314      8.3551      8.0212      7.8367      7.7796      7.8360      8.0190      8.3523    
  8.8314      9.3978      10.153      11.335      12.760      13.941      14.400      13.943      12.760      11.330    
  14.120      11.369      9.7540      8.9047      8.2636      7.8367      7.6330      7.6325      7.8357      8.2639    
  8.9077      9.7593      11.373      14.120      17.600      20.853      22.820      22.823      20.860      17.605    
  24.062      17.628      12.826      10.143      8.9664      8.2295      7.7796      7.6325      7.7790      8.2302    
  8.9693      10.146      12.825      17.623      24.055      30.685      35.684      37.544      35.687      30.691    
  41.709      30.684      20.888      14.023      10.408      8.9920      8.2302      7.8360      7.8357      8.2302    
  8.9930      10.408      14.020      20.882      30.680      41.710      51.363      57.012      57.010      51.358    
  66.734      51.318      35.657      22.847      14.485      10.409      8.9692      8.2638      8.0190      8.2639    
  8.9693      10.408      14.483      22.845      35.657      51.324      66.744      78.136      82.343      78.129    
  96.359      78.070      56.932      37.503      22.844      14.021      10.147      8.9075      8.3520      8.3523    
  8.9077      10.146      14.020      22.845      37.505      56.937      78.075      96.362      107.05      107.05    
  125.30      107.00      82.257      56.935      35.654      20.881      12.826      9.7594      8.8308      8.5187    
  8.8313      9.7593      12.825      20.882      35.657      56.937      82.254      106.99      125.29      132.08    
  146.74      132.05      107.00      78.078      51.323      30.679      17.623      11.374      9.3975      8.7649    
  8.7652      9.3979      11.373      17.623      30.680      51.324      78.075      106.99      132.04      146.74    
  131.29      124.54      106.32      81.692      56.471      35.275      20.570      12.569      9.5364      8.6202    
  8.3115      8.6203      9.5365      12.569      20.570      35.275      56.471      81.692      106.32      124.54    
  124.55      124.54      112.08      90.774      66.139      43.392      26.018      15.296      10.393      8.8759    
  8.2893      8.2891      8.8757      10.393      15.296      26.017      43.391      66.142      90.781      112.09    
  106.33      112.08      106.32      90.774      69.713      48.161      30.163      17.894      11.448      9.1138    
  8.3004      8.0138      8.2998      9.1137      11.449      17.894      30.161      48.159      69.715      90.780    
  81.689      90.767      90.768      81.692      66.139      48.161      31.711      19.480      12.342      9.3567    
  8.3311      7.8213      7.8210      8.3308      9.3570      12.342      19.480      31.709      48.157      66.136    
  56.463      66.133      69.708      66.139      56.471      43.392      30.163      19.480      12.692      9.5251    
  8.3616      7.7105      7.4878      7.7106      8.3616      9.5256      12.694      19.482      30.163      43.388    
  35.274      43.413      48.186      48.189      43.416      35.275      26.018      17.894      12.341      9.5251    
  8.3742      7.6633      7.3016      7.3019      7.6634      8.3734      9.5248      12.344      17.899      26.022    
  20.576      26.079      30.249      31.803      30.247      26.074      20.570      15.296      11.448      9.3566    
  8.3616      7.6633      7.2431      7.1071      7.2436      7.6628      8.3594      9.3545      11.449      15.300    
  12.569      15.379      18.034      19.645      19.643      18.029      15.375      12.569      10.393      9.1138    
  8.3311      7.7106      7.3016      7.1071      7.1075      7.3024      7.7103      8.3286      9.1094      10.389    
  9.5303      10.474      11.608      12.552      12.918      12.550      11.608      10.478      9.5364      8.8759    
  8.3004      7.8213      7.4878      7.3019      7.2437      7.3024      7.4895      7.8235      8.3004      8.8719    
  8.6200      8.9549      9.2698      9.5752      9.7787      9.7794      9.5778      9.2741      8.9587      8.6202    
  8.2893      8.0138      7.8210      7.7106      7.6635      7.6628      7.7102      7.8235      8.0187      8.2931    
  8.3171      8.3740      8.4569      8.5481      8.6213      8.6504      8.6235      8.5503      8.4563      8.3700    
  8.3115      8.2890      8.2998      8.3308      8.3616      8.3735      8.3593      8.3286      8.3004      8.2931    
  8.6199      8.3740      8.1739      8.0421      7.9761      7.9542      7.9548      7.9764      8.0396      8.1691    
  8.3703      8.6203      8.8757      9.1137      9.3570      9.5255      9.5248      9.3545      9.1095      8.8719    
  9.5303      8.9549      8.4569      8.0421      7.7568      7.6016      7.5541      7.6012      7.7552      8.0399    
  8.4569      8.9589      9.5364      10.393      11.449      12.342      12.694      12.344      11.449      10.389    
  12.569      10.474      9.2698      8.5481      7.9761      7.6016      7.4248      7.4244      7.6009      7.9764    
  8.5505      9.2741      10.478      12.569      15.296      17.894      19.480      19.482      17.899      15.300    
  20.576      15.379      11.608      9.5752      8.6212      7.9542      7.5542      7.4244      7.5536      7.9547    
  8.6235      9.5774      11.608      15.375      20.570      26.017      30.161      31.709      30.163      26.022    
  35.274      26.079      18.034      12.552      9.7787      8.6504      7.9548      7.6012      7.6009      7.9547    
  8.6511      9.7790      12.549      18.029      26.075      35.275      43.391      48.159      48.157      43.388    
  56.463      43.412      30.249      19.646      12.918      9.7794      8.6235      7.9764      7.7551      7.9764    
  8.6235      9.7790      12.917      19.643      30.249      43.417      56.471      66.142      69.716      66.136    
  81.689      66.133      48.187      31.803      19.643      12.550      9.5777      8.5503      8.0397      8.0399    
  8.5505      9.5773      12.549      19.643      31.805      48.190      66.137      81.692      90.781      90.780    
  106.33      90.767      69.708      48.189      30.247      18.029      11.608      9.2741      8.4564      8.1691    
  8.4569      9.2741      11.608      18.029      30.249      48.190      69.706      90.761      106.32      112.09    
  124.55      112.08      90.768      66.139      43.416      26.074      15.375      10.479      8.9587      8.3700    
  8.3703      8.9590      10.478      15.375      26.075      43.417      66.137      90.761      112.07      124.54    
  99.932      94.775      80.831      61.963      42.724      26.799      16.127      10.683      8.7627      8.0077    
  7.7409      8.0078      8.7628      10.683      16.127      26.799      42.724      61.963      80.831      94.775    
  94.777      94.775      85.228      68.894      50.041      32.804      19.965      12.429      9.2528      8.1991    
  7.6887      7.6884      8.1989      9.2531      12.430      19.965      32.803      50.043      68.899      85.234    
  80.835      85.246      80.831      68.894      52.753      36.360      22.940      14.155      9.8575      8.3681    
  7.6727      7.4295      7.6721      8.3679      9.8580      14.155      22.938      36.359      52.755      68.898    
  61.961      68.936      68.936      61.963      50.041      36.360      24.060      15.229      10.387      8.4987    
  7.6812      7.2506      7.2504      7.6809      8.4989      10.387      15.229      24.059      36.358      50.039    
  42.719      50.113      52.854      50.117      42.724      32.803      22.940      15.229      10.599      8.5820    
  7.6968      7.1476      6.9644      7.1477      7.6968      8.5822      10.599      15.230      22.940      32.801    
  26.799      32.914      36.533      36.534      32.917      26.799      19.965      14.155      10.387      8.5820    
  7.7041      7.1033      6.8070      6.8073      7.1035      7.7037      8.5818      10.388      14.158      19.967    
  16.131      20.112      23.184      24.338      23.182      20.109      16.127      12.429      9.8575      8.4987    
  7.6968      7.1033      6.7578      6.6477      6.7583      7.1031      7.6954      8.4973      9.8580      12.432    
  10.683      12.589      14.443      15.587      15.585      14.440      12.587      10.683      9.2528      8.3680    
  7.6812      7.1476      6.8069      6.6477      6.6480      6.8074      7.1474      7.6795      8.3652      9.2503    
  8.7585      9.4048      10.152      10.779      11.025      10.778      10.152      9.4076      8.7627      8.1991    
  7.6727      7.2507      6.9643      6.8072      6.7583      6.8074      6.9653      7.2520      7.6726      8.1964    
  8.0075      8.3431      8.6487      8.8887      9.0330      9.0334      8.8902      8.6515      8.3456      8.0077    
  7.6886      7.4295      7.2504      7.1477      7.1036      7.1031      7.1474      7.2520      7.4328      7.6912    
  7.7447      7.8332      7.9462      8.0618      8.1502      8.1840      8.1515      8.0631      7.9457      7.8305    
  7.7409      7.6884      7.6722      7.6809      7.6968      7.7037      7.6954      7.6795      7.6727      7.6912    
  8.0075      7.8332      7.7028      7.6285      7.6015      7.5983      7.5988      7.6017      7.6269      7.6995    
  7.8307      8.0078      8.1989      8.3679      8.4988      8.5822      8.5818      8.4973      8.3652      8.1964    
  8.7584      8.3431      7.9462      7.6285      7.4188      7.3093      7.2770      7.3093      7.4179      7.6271    
  7.9462      8.3458      8.7628      9.2531      9.8580      10.387      10.599      10.388      9.8580      9.2503    
  10.683      9.4048      8.6488      8.0618      7.6014      7.3093      7.1745      7.1743      7.3090      7.6016    
  8.0634      8.6516      9.4073      10.683      12.430      14.155      15.229      15.230      14.158      12.432    
  16.131      12.590      10.152      8.8887      8.1501      7.5984      7.2770      7.1743      7.2765      7.5985    
  8.1515      8.8901      10.151      12.587      16.127      19.965      22.938      24.058      22.940      19.967    
  26.799      20.112      14.443      10.779      9.0330      8.1840      7.5988      7.3092      7.3089      7.5985    
  8.1844      9.0332      10.778      14.440      20.109      26.799      32.803      36.359      36.358      32.801    
  42.719      32.914      23.184      15.587      11.025      9.0334      8.1515      7.6017      7.4179      7.6017    
  8.1515      9.0332      11.024      15.586      23.184      32.917      42.724      50.043      52.755      50.039    
  61.961      50.113      36.533      24.338      15.585      10.778      8.8902      8.0631      7.6269      7.6271    
  8.0634      8.8901      10.778      15.586      24.339      36.536      50.115      61.963      68.899      68.898    
  80.835      68.936      52.854      36.534      23.182      14.440      10.152      8.6515      7.9458      7.6995    
  7.9462      8.6516      10.151      14.440      23.184      36.536      52.853      68.931      80.831      85.234    
  94.777      85.246      68.936      50.117      32.917      20.109      12.587      9.4076      8.3456      7.8304    
  7.8307      8.3459      9.4073      12.587      20.109      32.917      50.115      68.931      85.240      94.775    
  68.095      64.541      54.941      42.016      29.030      18.629      12.087      9.0747      7.9719      7.3494    
  7.1369      7.3494      7.9719      9.0747      12.087      18.629      29.030      42.016      54.941      64.541    
  64.542      64.541      57.955      46.720      33.884      22.427      14.299      9.9227      8.2374      7.4580    
  7.0485      7.0483      7.4578      8.2377      9.9233      14.299      22.427      33.885      46.723      57.958    
  54.943      57.990      54.941      46.720      35.696      24.714      16.072      10.808      8.4880      7.5586    
  6.9951      6.8053      6.9947      7.5585      8.4884      10.808      16.072      24.714      35.696      46.723    
  42.016      46.810      46.810      42.016      33.884      24.714      16.751      11.379      8.7049      7.6320    
  6.9698      6.6349      6.6347      6.9695      7.6319      8.7050      11.379      16.750      24.713      33.883    
  29.027      34.032      35.901      34.034      29.030      22.427      16.072      11.379      8.7935      7.6695    
  6.9614      6.5332      6.3944      6.5334      6.9614      7.6694      8.7938      11.380      16.072      22.426    
  18.629      22.627      25.031      25.032      22.628      18.629      14.299      10.808      8.7049      7.6695    
  6.9599      6.4875      6.2627      6.2630      6.4879      6.9598      7.6693      8.7057      10.810      14.301    
  12.089      14.531      16.472      17.211      16.471      14.530      12.087      9.9228      8.4880      7.6320    
  6.9614      6.4875      6.2216      6.1383      6.2219      6.4876      6.9608      7.6313      8.4884      9.9244    
  9.0744      10.161      11.246      11.929      11.928      11.244      10.160      9.0747      8.2375      7.5586    
  6.9698      6.5333      6.2627      6.1382      6.1383      6.2628      6.5331      6.9690      7.5571      8.2361    
  7.9695      8.4635      8.9225      9.2861      9.4271      9.2854      8.9225      8.4652      7.9719      7.4580    
  6.9951      6.6349      6.3944      6.2630      6.2220      6.2628      6.3946      6.6356      6.9951      7.4564    
  7.3493      7.6727      7.9747      8.2073      8.3333      8.3334      8.2079      7.9761      7.6741      7.3494    
  7.0485      6.8053      6.6347      6.5334      6.4879      6.4876      6.5331      6.6356      6.8072      7.0499    
  7.1390      7.2596      7.3987      7.5324      7.6306      7.6671      7.6312      7.5329      7.3983      7.2581    
  7.1369      7.0483      6.9947      6.9695      6.9614      6.9598      6.9607      6.9689      6.9951      7.0499    
  7.3492      7.2596      7.2056      7.1905      7.2015      7.2161      7.2164      7.2018      7.1897      7.2038    
  7.2582      7.3494      7.4578      7.5585      7.6319      7.6694      7.6693      7.6313      7.5571      7.4565    
  7.9694      7.6727      7.3987      7.1906      7.0620      7.0002      6.9832      7.0004      7.0617      7.1899    
  7.3987      7.6743      7.9719      8.2377      8.4884      8.7050      8.7938      8.7057      8.4884      8.2360    
  9.0744      8.4635      7.9747      7.5324      7.2015      7.0002      6.9103      6.9103      7.0001      7.2017    
  7.5332      7.9762      8.4649      9.0747      9.9233      10.808      11.379      11.380      10.810      9.9244    
  12.089      10.161      8.9225      8.2073      7.6305      7.2161      6.9833      6.9103      6.9829      7.2160    
  7.6312      8.2080      8.9221      10.159      12.087      14.299      16.072      16.750      16.072      14.301    
  18.629      14.531      11.246      9.2861      8.3333      7.6671      7.2164      7.0004      7.0001      7.2160    
  7.6672      8.3335      9.2853      11.244      14.530      18.629      22.427      24.714      24.713      22.426    
  29.027      22.627      16.472      11.929      9.4272      8.3334      7.6312      7.2018      7.0617      7.2017    
  7.6312      8.3335      9.4269      11.929      16.472      22.628      29.030      33.885      35.696      33.883    
  42.015      34.032      25.031      17.211      11.928      9.2853      8.2079      7.5329      7.1897      7.1899    
  7.5332      8.2080      9.2853      11.929      17.212      25.033      34.033      42.016      46.723      46.723    
  54.943      46.810      35.901      25.032      16.471      11.244      8.9225      7.9761      7.3983      7.2038    
  7.3987      7.9761      8.9221      11.244      16.472      25.033      35.900      46.808      54.941      57.958    
  64.542      57.990      46.810      34.034      22.628      14.530      10.160      8.4652      7.6741      7.2580    
  7.2582      7.6743      8.4649      10.159      14.530      22.629      34.033      46.808      57.987      64.541    
  41.417      39.244      33.415      25.694      18.192      12.545      9.3426      7.9814      7.2218      6.7507    
  6.5958      6.7507      7.2218      7.9814      9.3425      12.545      18.192      25.694      33.415      39.244    
  39.245      39.244      35.225      28.447      20.895      14.472      10.284      8.2776      7.3774      6.7732    
  6.4728      6.4727      6.7731      7.3776      8.2781      10.284      14.472      20.896      28.448      35.226    
  33.416      35.273      33.415      28.447      21.918      15.668      11.082      8.5769      7.4889      6.7967    
  6.3786      6.2427      6.3783      6.7965      7.4892      8.5772      11.082      15.667      21.918      28.448    
  25.694      28.571      28.571      25.694      20.895      15.668      11.396      8.7777      7.5508      6.8129    
  6.3137      6.0736      6.0735      6.3135      6.8128      7.5507      8.7775      11.395      15.667      20.895    
  18.191      21.098      22.199      21.099      18.192      14.472      11.082      8.7777      7.5714      6.8204    
  6.2762      5.9660      5.8681      5.9661      6.2762      6.8202      7.5712      8.7777      11.082      14.472    
  12.545      14.736      16.088      16.089      14.737      12.545      10.284      8.5769      7.5508      6.8204    
  6.2639      5.9145      5.7534      5.7537      5.9148      6.2640      6.8203      7.5511      8.5777      10.285    
  9.3433      10.579      11.596      11.990      11.596      10.579      9.3425      8.2776      7.4889      6.8129    
  6.2762      5.9145      5.7170      5.6559      5.7173      5.9146      6.2761      6.8128      7.4892      8.2783    
  7.9812      8.5764      9.1282      9.4741      9.4738      9.1277      8.5762      7.9814      7.3774      6.7967    
  6.3137      5.9660      5.7534      5.6559      5.6559      5.7534      5.9659      6.3134      6.7962      7.3769    
  7.2207      7.6647      8.0373      8.2833      8.3703      8.2830      8.0373      7.6654      7.2218      6.7732    
  6.3786      6.0736      5.8681      5.7537      5.7173      5.7534      5.8680      6.0738      6.3785      6.7726    
  6.7506      7.0484      7.3276      7.5447      7.6632      7.6632      7.5447      7.3280      7.0489      6.7507    
  6.4728      6.2427      6.0735      5.9661      5.9148      5.9146      5.9659      6.0738      6.2434      6.4733    
  6.5966      6.7419      6.8951      7.0338      7.1319      7.1676      7.1321      7.0339      6.8948      6.7413    
  6.5958      6.4727      6.3783      6.3135      6.2762      6.2640      6.2760      6.3134      6.3786      6.4733    
  6.7506      6.7419      6.7544      6.7857      6.8232      6.8487      6.8489      6.8234      6.7855      6.7537    
  6.7414      6.7507      6.7731      6.7965      6.8128      6.8202      6.8203      6.8128      6.7962      6.7726    
  7.2207      7.0484      6.8951      6.7857      6.7249      6.7003      6.6949      6.7006      6.7250      6.7856    
  6.8951      7.0490      7.2218      7.3777      7.4892      7.5507      7.5712      7.5511      7.4892      7.3769    
  7.9812      7.6647      7.3276      7.0338      6.8232      6.7003      6.6476      6.6476      6.7004      6.8233    
  7.0341      7.3281      7.6652      7.9814      8.2781      8.5772      8.7775      8.7778      8.5777      8.2783    
  9.3434      8.5765      8.0373      7.5447      7.1319      6.8487      6.6949      6.6476      6.6946      6.8485    
  7.1321      7.5448      8.0370      8.5757      9.3425      10.284      11.082      11.395      11.082      10.285    
  12.545      10.579      9.1281      8.2833      7.6633      7.1676      6.8489      6.7006      6.7004      6.8485    
  7.1675      7.6634      8.2831      9.1274      10.579      12.545      14.472      15.667      15.667      14.472    
  18.191      14.736      11.596      9.4741      8.3703      7.6632      7.1320      6.8234      6.7250      6.8233    
  7.1321      7.6634      8.3705      9.4740      11.596      14.737      18.192      20.896      21.918      20.895    
  25.693      21.098      16.088      11.990      9.4738      8.2830      7.5447      7.0339      6.7855      6.7856    
  7.0341      7.5448      8.2831      9.4740      11.991      16.089      21.099      25.694      28.448      28.448    
  33.416      28.571      22.199      16.089      11.596      9.1276      8.0373      7.3280      6.8949      6.7537    
  6.8951      7.3280      8.0370      9.1274      11.596      16.089      22.198      28.570      33.415      35.226    
  39.245      35.273      28.571      21.099      14.737      10.579      8.5762      7.6654      7.0489      6.7413    
  6.7414      7.0490      7.6652      8.5757      10.579      14.737      21.099      28.570      35.272      39.244    
  22.800      21.682      18.728      14.948      11.498      9.1474      7.9192      7.1640      6.6038      6.2788    
  6.1752      6.2789      6.6038      7.1640      7.9192      9.1474      11.498      14.948      18.728      21.682    
  21.682      21.682      19.623      16.236      12.641      9.8241      8.1742      7.3019      6.6516      6.2238    
  6.0211      6.0210      6.2237      6.6518      7.3023      8.1746      9.8242      12.641      16.236      19.623    
  18.728      19.676      18.728      16.236      13.085      10.266      8.3908      7.3850      6.6818      6.1760    