<?xml version="1.0" encoding="ISO-8859-1"?>
<modeling>
 <generator>
  <i name="program" type="string">vasp </i>
  <i name="version" type="string">6.2.0  </i>
  <i name="subversion" type="string">18Jan21 (build Mar 17 2021 09:06:54) complex                          serial </i>
  <i name="platform" type="string">LinuxIFC </i>
  <i name="date" type="string">2021 09 09 </i>
  <i name="time" type="string">12:03:32 </i>
 </generator>
 <incar>
  <i type="string" name="PREC">normal</i>
  <i type="int" name="ICHARG">     1</i>
  <i type="int" name="IBRION">     1</i>
  <i name="EDIFF">      0.00000100</i>
  <i type="int" name="NSW">     0</i>
  <i type="int" name="ISIF">     2</i>
  <i name="ENCUT">    280.00000000</i>
  <i type="int" name="NBANDS">    40</i>
  <i type="int" name="ISMEAR">     1</i>
  <i name="SIGMA">      0.20000000</i>
  <i type="logical" name="LCHARG"> T  </i>
  <i type="int" name="KPAR">     1</i>
  <i type="int" name="NCORE">     1</i>
  <i type="string" name="GGA">PE</i>
 </incar>
 <primitive_cell>
  <structure name="primitive_cell" >
   <crystal>
    <varray name="basis" >
     <v>       2.30670000       0.00000000       0.00000000 </v>
     <v>      -1.15335000       1.99766080       0.00000000 </v>
     <v>       0.00000000       0.00000000       4.22136000 </v>
    </varray>
    <i name="volume">     19.45204446 </i>
    <varray name="rec_basis" >
     <v>       0.43351975       0.25029274       0.00000000 </v>
     <v>       0.00000000       0.50058549       0.00000000 </v>
     <v>       0.00000000       0.00000000       0.23689048 </v>
    </varray>
   </crystal>
   <varray name="positions" >
    <v>       0.00000000       0.00000000       0.00000000 </v>
    <v>       0.33333333       0.66666667       0.50000000 </v>
   </varray>
  </structure>
  <varray name="primitive_index" >
   <v type="int" >        1 </v>
   <v type="int" >        2 </v>
  </varray>
 </primitive_cell>
 <kpoints>
  <generation param="Monkhorst-Pack">
   <v type="int" name="divisions">      11       11       11 </v>
   <v name="usershift">      0.00000000       0.00000000       0.00000000 </v>
   <v name="genvec1">      0.09090909       0.00000000       0.00000000 </v>
   <v name="genvec2">      0.00000000       0.09090909       0.00000000 </v>
   <v name="genvec3">      0.00000000       0.00000000       0.09090909 </v>
   <v name="shift">      0.00000000       0.00000000       0.00000000 </v>
  </generation>
  <varray name="kpointlist" >
   <v>       0.00000000       0.00000000       0.00000000 </v>
   <v>       0.09090909       0.00000000       0.00000000 </v>
   <v>       0.18181818       0.00000000       0.00000000 </v>
   <v>       0.27272727       0.00000000       0.00000000 </v>
   <v>       0.36363636       0.00000000       0.00000000 </v>
   <v>       0.45454545      -0.00000000       0.00000000 </v>
   <v>       0.09090909       0.09090909       0.00000000 </v>
   <v>       0.18181818       0.09090909       0.00000000 </v>
   <v>       0.27272727       0.09090909       0.00000000 </v>
   <v>       0.36363636       0.09090909       0.00000000 </v>
   <v>       0.45454545       0.09090909       0.00000000 </v>
   <v>       0.18181818       0.18181818       0.00000000 </v>
   <v>       0.27272727       0.18181818       0.00000000 </v>
   <v>       0.36363636       0.18181818       0.00000000 </v>
   <v>       0.27272727       0.27272727       0.00000000 </v>
   <v>       0.36363636       0.27272727       0.00000000 </v>
   <v>       0.00000000       0.00000000       0.09090909 </v>
   <v>       0.09090909       0.00000000       0.09090909 </v>
   <v>       0.18181818       0.00000000       0.09090909 </v>
   <v>       0.27272727       0.00000000       0.09090909 </v>
   <v>       0.36363636       0.00000000       0.09090909 </v>
   <v>       0.45454545      -0.00000000       0.09090909 </v>
   <v>       0.09090909       0.09090909       0.09090909 </v>
   <v>       0.18181818       0.09090909       0.09090909 </v>
   <v>       0.27272727       0.09090909       0.09090909 </v>
   <v>       0.36363636       0.09090909       0.09090909 </v>
   <v>       0.45454545       0.09090909       0.09090909 </v>
   <v>       0.18181818       0.18181818       0.09090909 </v>
   <v>       0.27272727       0.18181818       0.09090909 </v>
   <v>       0.36363636       0.18181818       0.09090909 </v>
   <v>       0.27272727       0.27272727       0.09090909 </v>
   <v>       0.36363636       0.27272727       0.09090909 </v>
   <v>       0.00000000       0.00000000       0.18181818 </v>
   <v>       0.09090909       0.00000000       0.18181818 </v>
   <v>       0.18181818       0.00000000       0.18181818 </v>
   <v>       0.27272727       0.00000000       0.18181818 </v>
   <v>       0.36363636       0.00000000       0.18181818 </v>
   <v>       0.45454545      -0.00000000       0.18181818 </v>
   <v>       0.09090909       0.09090909       0.18181818 </v>
   <v>       0.18181818       0.09090909       0.18181818 </v>
   <v>       0.27272727       0.09090909       0.18181818 </v>
   <v>       0.36363636       0.09090909       0.18181818 </v>
   <v>       0.45454545       0.09090909       0.18181818 </v>
   <v>       0.18181818       0.18181818       0.18181818 </v>
   <v>       0.27272727       0.18181818       0.18181818 </v>
   <v>       0.36363636       0.18181818       0.18181818 </v>
   <v>       0.27272727       0.27272727       0.18181818 </v>
   <v>       0.36363636       0.27272727       0.18181818 </v>
   <v>       0.00000000       0.00000000       0.27272727 </v>
   <v>       0.09090909       0.00000000       0.27272727 </v>
   <v>       0.18181818       0.00000000       0.27272727 </v>
   <v>       0.27272727       0.00000000       0.27272727 </v>
   <v>       0.36363636       0.00000000       0.27272727 </v>
   <v>       0.45454545      -0.00000000       0.27272727 </v>
   <v>       0.09090909       0.09090909       0.27272727 </v>
   <v>       0.18181818       0.09090909       0.27272727 </v>
   <v>       0.27272727       0.09090909       0.27272727 </v>
   <v>       0.36363636       0.09090909       0.27272727 </v>
   <v>       0.45454545       0.09090909       0.27272727 </v>
   <v>       0.18181818       0.18181818       0.27272727 </v>
   <v>       0.27272727       0.18181818       0.27272727 </v>
   <v>       0.36363636       0.18181818       0.27272727 </v>
   <v>       0.27272727       0.27272727       0.27272727 </v>
   <v>       0.36363636       0.27272727       0.27272727 </v>
   <v>       0.00000000       0.00000000       0.36363636 </v>
   <v>       0.09090909       0.00000000       0.36363636 </v>
   <v>       0.18181818       0.00000000       0.36363636 </v>
   <v>       0.27272727       0.00000000       0.36363636 </v>
   <v>       0.36363636       0.00000000       0.36363636 </v>
   <v>       0.45454545      -0.00000000       0.36363636 </v>
   <v>       0.09090909       0.09090909       0.36363636 </v>
   <v>       0.18181818       0.09090909       0.36363636 </v>
   <v>       0.27272727       0.09090909       0.36363636 </v>
   <v>       0.36363636       0.09090909       0.36363636 </v>
   <v>       0.45454545       0.09090909       0.36363636 </v>
   <v>       0.18181818       0.18181818       0.36363636 </v>
   <v>       0.27272727       0.18181818       0.36363636 </v>
   <v>       0.36363636       0.18181818       0.36363636 </v>
   <v>       0.27272727       0.27272727       0.36363636 </v>
   <v>       0.36363636       0.27272727       0.36363636 </v>
   <v>       0.00000000       0.00000000       0.45454545 </v>
   <v>       0.09090909       0.00000000       0.45454545 </v>
   <v>       0.18181818       0.00000000       0.45454545 </v>
   <v>       0.27272727       0.00000000       0.45454545 </v>
   <v>       0.36363636       0.00000000       0.45454545 </v>
   <v>       0.45454545      -0.00000000       0.45454545 </v>
   <v>       0.09090909       0.09090909       0.45454545 </v>
   <v>       0.18181818       0.09090909       0.45454545 </v>
   <v>       0.27272727       0.09090909       0.45454545 </v>
   <v>       0.36363636       0.09090909       0.45454545 </v>
   <v>       0.45454545       0.09090909       0.45454545 </v>
   <v>       0.18181818       0.18181818       0.45454545 </v>
   <v>       0.27272727       0.18181818       0.45454545 </v>
   <v>       0.36363636       0.18181818       0.45454545 </v>
   <v>       0.27272727       0.27272727       0.45454545 </v>
   <v>       0.36363636       0.27272727       0.45454545 </v>
  </varray>
  <varray name="weights" >
   <v>       0.00075131 </v>
   <v>       0.00450789 </v>
   <v>       0.00450789 </v>
   <v>       0.00450789 </v>
   <v>       0.00450789 </v>
   <v>       0.00450789 </v>
   <v>       0.00450789 </v>
   <v>       0.00901578 </v>
   <v>       0.00901578 </v>
   <v>       0.00901578 </v>
   <v>       0.00450789 </v>
   <v>       0.00450789 </v>
   <v>       0.00901578 </v>
   <v>       0.00901578 </v>
   <v>       0.00450789 </v>
   <v>       0.00450789 </v>
   <v>       0.00150263 </v>
   <v>       0.00901578 </v>
   <v>       0.00901578 </v>
   <v>       0.00901578 </v>
   <v>       0.00901578 </v>
   <v>       0.00901578 </v>
   <v>       0.00901578 </v>
   <v>       0.01803156 </v>
   <v>       0.01803156 </v>
   <v>       0.01803156 </v>
   <v>       0.00901578 </v>
   <v>       0.00901578 </v>
   <v>       0.01803156 </v>
   <v>       0.01803156 </v>
   <v>       0.00901578 </v>
   <v>       0.00901578 </v>
   <v>       0.00150263 </v>
   <v>       0.00901578 </v>
   <v>       0.00901578 </v>
   <v>       0.00901578 </v>
   <v>       0.00901578 </v>
   <v>       0.00901578 </v>
   <v>       0.00901578 </v>
   <v>       0.01803156 </v>
   <v>       0.01803156 </v>
   <v>       0.01803156 </v>
   <v>       0.00901578 </v>
   <v>       0.00901578 </v>
   <v>       0.01803156 </v>
   <v>       0.01803156 </v>
   <v>       0.00901578 </v>
   <v>       0.00901578 </v>
   <v>       0.00150263 </v>
   <v>       0.00901578 </v>
   <v>       0.00901578 </v>
   <v>       0.00901578 </v>
   <v>       0.00901578 </v>
   <v>       0.00901578 </v>
   <v>       0.00901578 </v>
   <v>       0.01803156 </v>
   <v>       0.01803156 </v>
   <v>       0.01803156 </v>
   <v>       0.00901578 </v>
   <v>       0.00901578 </v>
   <v>       0.01803156 </v>
   <v>       0.01803156 </v>
   <v>       0.00901578 </v>
   <v>       0.00901578 </v>
   <v>       0.00150263 </v>
   <v>       0.00901578 </v>
   <v>       0.00901578 </v>
   <v>       0.00901578 </v>
   <v>       0.00901578 </v>
   <v>       0.00901578 </v>
   <v>       0.00901578 </v>
   <v>       0.01803156 </v>
   <v>       0.01803156 </v>
   <v>       0.01803156 </v>
   <v>       0.00901578 </v>
   <v>       0.00901578 </v>
   <v>       0.01803156 </v>
   <v>       0.01803156 </v>
   <v>       0.00901578 </v>
   <v>       0.00901578 </v>
   <v>       0.00150263 </v>
   <v>       0.00901578 </v>
   <v>       0.00901578 </v>
   <v>       0.00901578 </v>
   <v>       0.00901578 </v>
   <v>       0.00901578 </v>
   <v>       0.00901578 </v>
   <v>       0.01803156 </v>
   <v>       0.01803156 </v>
   <v>       0.01803156 </v>
   <v>       0.00901578 </v>
   <v>       0.00901578 </v>
   <v>       0.01803156 </v>
   <v>       0.01803156 </v>
   <v>       0.00901578 </v>
   <v>       0.00901578 </v>
  </varray>
 </kpoints>
 <parameters>
  <separator name="general" >
   <i type="string" name="SYSTEM">unknown system</i>
   <i type="logical" name="LCOMPAT"> F  </i>
  </separator>
  <separator name="electronic" >
   <i type="string" name="PREC">normal</i>
   <i name="ENMAX">    280.00000000</i>
   <i name="ENAUG">    511.36800000</i>
   <i name="EDIFF">      0.00000100</i>
   <i type="int" name="IALGO">    38</i>
   <i type="int" name="IWAVPR">     0</i>
   <i type="int" name="NBANDS">    40</i>
   <i type="int" name="NBANDSLOW">    -1</i>
   <i type="int" name="NBANDSHIGH">    -1</i>
   <i name="NELECT">     16.00000000</i>
   <i type="int" name="TURBO">     0</i>
   <i type="int" name="IRESTART">     0</i>
   <i type="int" name="NREBOOT">     0</i>
   <i type="int" name="NMIN">     0</i>
   <i name="EREF">      0.00000000</i>
   <separator name="electronic smearing" >
    <i type="int" name="ISMEAR">     1</i>
    <i name="SIGMA">      0.20000000</i>
    <i name="KSPACING">      0.50000000</i>
    <i type="logical" name="KGAMMA"> T  </i>
    <i type="logical" name="KBLOWUP"> T  </i>
   </separator>
   <separator name="electronic projectors" >
    <i type="logical" name="LREAL"> F  </i>
    <v name="ROPT">      0.00000000</v>
    <i type="int" name="LMAXPAW">  -100</i>
    <i type="int" name="LMAXMIX">     2</i>
    <i type="logical" name="NLSPLINE"> F  </i>
   </separator>
   <separator name="electronic startup" >
    <i type="int" name="ISTART">     0</i>
    <i type="int" name="ICHARG">     1</i>
    <i type="int" name="INIWAV">     1</i>
   </separator>
   <separator name="electronic spin" >
    <i type="int" name="ISPIN">     1</i>
    <i type="logical" name="LNONCOLLINEAR"> F  </i>
    <v name="MAGMOM">      1.00000000      1.00000000</v>
    <i name="NUPDOWN">     -1.00000000</i>
    <i type="logical" name="LSORBIT"> F  </i>
    <v name="SAXIS">      0.00000000      0.00000000      1.00000000</v>
    <i type="logical" name="LSPIRAL"> F  </i>
    <v name="QSPIRAL">      0.00000000      0.00000000      0.00000000</v>
    <i type="logical" name="LZEROZ"> F  </i>
   </separator>
   <separator name="electronic exchange-correlation" >
    <i type="logical" name="LASPH"> F  </i>
    <i type="logical" name="LMETAGGA"> F  </i>
   </separator>
   <separator name="electronic convergence" >
    <i type="int" name="NELM">    60</i>
    <i type="int" name="NELMDL">    -5</i>
    <i type="int" name="NELMIN">     2</i>
    <i name="ENINI">    280.00000000</i>
    <separator name="electronic convergence detail" >
     <i type="logical" name="LDIAG"> T  </i>
     <i type="logical" name="LSUBROT"> F  </i>
     <i name="WEIMIN">      0.00000000</i>
     <i name="EBREAK">      0.00000001</i>
     <i name="DEPER">      0.30000000</i>
     <i type="int" name="NRMM">     4</i>
     <i name="TIME">      0.40000000</i>
    </separator>
   </separator>
   <separator name="electronic mixer" >
    <i name="AMIX">      0.40000000</i>
    <i name="BMIX">      1.00000000</i>
    <i name="AMIN">      0.10000000</i>
    <i name="AMIX_MAG">      1.60000000</i>
    <i name="BMIX_MAG">      1.00000000</i>
    <separator name="electronic mixer details" >
     <i type="int" name="IMIX">     4</i>
     <i type="logical" name="MIXFIRST"> F  </i>
     <i type="int" name="MAXMIX">   -45</i>
     <i name="WC">    100.00000000</i>
     <i type="int" name="INIMIX">     1</i>
     <i type="int" name="MIXPRE">     1</i>
     <i type="int" name="MREMOVE">     5</i>
    </separator>
   </separator>
   <separator name="electronic dipolcorrection" >
    <i type="logical" name="LDIPOL"> F  </i>
    <i type="logical" name="LMONO"> F  </i>
    <i type="int" name="IDIPOL">     0</i>
    <i name="EPSILON">      1.00000000</i>
    <v name="DIPOL">   -100.00000000   -100.00000000   -100.00000000</v>
    <i name="EFIELD">      0.00000000</i>
   </separator>
  </separator>
  <separator name="grids" >
   <i type="int" name="NGX">    10</i>
   <i type="int" name="NGY">    10</i>
   <i type="int" name="NGZ">    18</i>
   <i type="int" name="NGXF">    20</i>
   <i type="int" name="NGYF">    20</i>
   <i type="int" name="NGZF">    36</i>
   <i type="logical" name="ADDGRID"> F  </i>
  </separator>
  <separator name="ionic" >
   <i type="int" name="NSW">     0</i>
   <i type="int" name="IBRION">    -1</i>
   <i type="int" name="MDALGO">     0</i>
   <i type="int" name="ISIF">     2</i>
   <i name="PSTRESS">      0.00000000</i>
   <i name="EDIFFG">      0.00001000</i>
   <i type="int" name="NFREE">     0</i>
   <i name="POTIM">      0.50000000</i>
   <i name="SMASS">     -3.00000000</i>
   <i name="SCALEE">      1.00000000</i>
  </separator>
  <separator name="ionic md" >
   <i name="TEBEG">      0.00010000</i>
   <i name="TEEND">      0.00010000</i>
   <i type="int" name="NBLOCK">     1</i>
   <i type="int" name="KBLOCK">     1</i>
   <i type="int" name="NPACO">   256</i>
   <i name="APACO">     16.00000000</i>
  </separator>
  <separator name="symmetry" >
   <i type="int" name="ISYM">     2</i>
   <i name="SYMPREC">      0.00001000</i>
  </separator>
  <separator name="dos" >
   <i type="int" name="LORBIT">     0</i>
   <v name="RWIGS">     -1.00000000</v>
   <i type="int" name="NEDOS">   301</i>
   <i name="EMIN">     10.00000000</i>
   <i name="EMAX">    -10.00000000</i>
   <i name="EFERMI">      0.00000000</i>
  </separator>
  <separator name="writing" >
   <i type="int" name="NWRITE">     2</i>
   <i type="logical" name="LWAVE"> T  </i>
   <i type="logical" name="LDOWNSAMPLE"> F  </i>
   <i type="logical" name="LCHARG"> T  </i>
   <i type="logical" name="LPARD"> F  </i>
   <i type="logical" name="LVTOT"> F  </i>
   <i type="logical" name="LVHAR"> F  </i>
   <i type="logical" name="LELF"> F  </i>
   <i type="logical" name="LOPTICS"> F  </i>
   <v name="STM">      0.00000000      0.00000000      0.00000000      0.00000000      0.00000000      0.00000000      0.00000000</v>
  </separator>
  <separator name="performance" >
   <i type="int" name="NPAR">     1</i>
   <i type="int" name="NSIM">     4</i>
   <i type="int" name="NBLK">    -1</i>
   <i type="logical" name="LPLANE"> T  </i>
   <i type="logical" name="LSCALAPACK"> F  </i>
   <i type="logical" name="LSCAAWARE"> F  </i>
   <i type="logical" name="LSCALU"> F  </i>
   <i type="logical" name="LASYNC"> F  </i>
   <i type="logical" name="LORBITALREAL"> F  </i>
  </separator>
  <separator name="miscellaneous" >
   <i type="int" name="IDIOT">     3</i>
   <i type="int" name="PHON_NSTRUCT">    -1</i>
   <i type="logical" name="LMUSIC"> F  </i>
   <v name="POMASS">     55.84700000</v>
   <v name="DARWINR">      0.00000000</v>
   <v name="DARWINV">      1.00000000</v>
   <i type="logical" name="LCORR"> T  </i>
  </separator>
  <i type="logical" name="GGA_COMPAT"> T  </i>
  <i type="logical" name="LBERRY"> F  </i>
  <i type="int" name="ICORELEVEL">     0</i>
  <i type="logical" name="LDAU"> F  </i>
  <i type="int" name="I_CONSTRAINED_M">     0</i>
  <separator name="electronic exchange-correlation" >
   <i type="string" name="GGA">PE</i>
   <i type="int" name="VOSKOWN">     0</i>
   <i type="logical" name="LHFCALC"> F  </i>
   <i type="string" name="PRECFOCK"></i>
   <i type="logical" name="LSYMGRAD"> F  </i>
   <i type="logical" name="LHFONE"> F  </i>
   <i type="logical" name="LRHFCALC"> F  </i>
   <i type="logical" name="LTHOMAS"> F  </i>
   <i type="logical" name="LMODELHF"> F  </i>
   <i type="logical" name="LFOCKACE"> F  </i>
   <i name="ENCUT4O">     -1.00000000</i>
   <i type="int" name="EXXOEP">     0</i>
   <i type="int" name="FOURORBIT">     0</i>
   <i name="AEXX">      0.00000000</i>
   <i name="HFALPHA">      0.00000000</i>
   <i name="MCALPHA">      0.00000000</i>
   <i name="ALDAX">      1.00000000</i>
   <i name="AGGAX">      1.00000000</i>
   <i name="ALDAC">      1.00000000</i>
   <i name="AGGAC">      1.00000000</i>
   <i type="int" name="NKREDX">     1</i>
   <i type="int" name="NKREDY">     1</i>
   <i type="int" name="NKREDZ">     1</i>
   <i type="logical" name="SHIFTRED"> F  </i>
   <i type="logical" name="ODDONLY"> F  </i>
   <i type="logical" name="EVENONLY"> F  </i>
   <i type="int" name="LMAXFOCK">     0</i>
   <i type="int" name="NMAXFOCKAE">     0</i>
   <i type="logical" name="LFOCKAEDFT"> F  </i>
   <i name="HFSCREEN">      0.00000000</i>
   <i name="HFSCREENC">      0.00000000</i>
   <i type="int" name="NBANDSGWLOW">     0</i>
  </separator>
  <separator name="vdW DFT" >
   <i type="logical" name="LUSE_VDW"> F  </i>
   <i name="Zab_VDW">     -0.84910000</i>
   <i name="PARAM1">      0.12340000</i>
   <i name="PARAM2">      1.00000000</i>
   <i name="PARAM3">      0.00000000</i>
  </separator>
  <separator name="model GW" >
   <i type="int" name="MODEL_GW">     0</i>
   <i name="MODEL_EPS0">      5.83561334</i>
   <i name="MODEL_ALPHA">      1.00000000</i>
  </separator>
  <separator name="linear response parameters" >
   <i type="logical" name="LEPSILON"> F  </i>
   <i type="logical" name="LRPA"> F  </i>
   <i type="logical" name="LNABLA"> F  </i>
   <i type="logical" name="LVEL"> F  </i>
   <i type="int" name="KINTER">     0</i>
   <i name="CSHIFT">      0.10000000</i>
   <i name="OMEGAMAX">     -1.00000000</i>
   <i name="DEG_THRESHOLD">      0.00200000</i>
   <i name="RTIME">     -0.10000000</i>
   <i name="WPLASMAI">      0.00000000</i>
   <v name="DFIELD">      0.00000000      0.00000000      0.00000000</v>
   <v name="WPLASMA">      0.00000000      0.00000000      0.00000000      0.00000000      0.00000000      0.00000000      0.00000000      0.00000000      0.00000000</v>
  </separator>
  <separator name="orbital magnetization" >
   <i type="logical" name="NUCIND"> F  </i>
   <v name="MAGPOS">      0.00000000      0.00000000      0.00000000</v>
   <i type="logical" name="LNICSALL"> T  </i>
   <i type="logical" name="ORBITALMAG"> F  </i>
   <i type="logical" name="LMAGBLOCH"> F  </i>
   <i type="logical" name="LCHIMAG"> F  </i>
   <i type="logical" name="LGAUGE"> T  </i>
   <i type="int" name="MAGATOM">     0</i>
   <v name="MAGDIPOL">      0.00000000      0.00000000      0.00000000</v>
   <v name="AVECCONST">      0.00000000      0.00000000      0.00000000</v>
  </separator>
  <separator name="response functions" >
   <i type="logical" name="LFINITE_TEMPERATURE"> F  </i>
   <i type="logical" name="LADDER"> F  </i>
   <i type="logical" name="LRPAFORCE"> F  </i>
   <i type="logical" name="LFXC"> F  </i>
   <i type="logical" name="LHARTREE"> T  </i>
   <i type="int" name="IBSE">     0</i>
   <v type="int" name="KPOINT">    -1     0     0     0</v>
   <i type="logical" name="LTCTC"> F  </i>
   <i type="logical" name="LTCTE"> F  </i>
   <i type="logical" name="LTETE"> F  </i>
   <i type="logical" name="LTRIPLET"> F  </i>
   <i type="logical" name="LFXCEPS"> F  </i>
   <i type="logical" name="LFXHEG"> F  </i>
   <i type="int" name="NATURALO">     2</i>
   <i type="logical" name="LHOLEGF"> F  </i>
   <i type="logical" name="L2ORDER"> F  </i>
   <i type="logical" name="LDMP1"> F  </i>
   <i type="logical" name="LMP2LT"> F  </i>
   <i type="logical" name="LSMP2LT"> F  </i>
   <i type="logical" name="LGWLF"> F  </i>
   <i name="ENCUTGW">     -2.00000000</i>
   <i name="ENCUTGWSOFT">     -2.00000000</i>
   <i name="ENCUTLF">     -1.00000000</i>
   <i type="logical" name="LESF_SPLINES"> F  </i>
   <i type="int" name="LMAXMP2">    -1</i>
   <i name="SCISSOR">      0.00000000</i>
   <i type="int" name="NOMEGA">     0</i>
   <i type="int" name="NOMEGAR">     0</i>
   <i type="int" name="NBANDSGW">    -1</i>
   <i type="int" name="NBANDSO">    -1</i>
   <i type="int" name="NBANDSV">    -1</i>
   <i type="int" name="NELM">     1</i>
   <i type="int" name="NELMHF">     1</i>
   <i type="int" name="DIM">     3</i>
   <i type="int" name="IESPILON">     4</i>
   <i type="int" name="ANTIRES">     0</i>
   <i name="OMEGAMAX">    -30.00000000</i>
   <i name="OMEGAMIN">    -30.00000000</i>
   <i name="OMEGATL">   -200.00000000</i>
   <i type="int" name="OMEGAGRID">     0</i>
   <i name="CSHIFT">     -0.10000000</i>
   <i type="logical" name="LSELFENERGY"> F  </i>
   <i type="logical" name="LSPECTRAL"> F  </i>
   <i type="logical" name="LSPECTRALGW"> F  </i>
   <i type="logical" name="LSINGLES"> F  </i>
   <i type="logical" name="LFERMIGW"> F  </i>
   <i type="logical" name="ODDONLYGW"> F  </i>
   <i type="logical" name="EVENONLYGW"> F  </i>
   <i type="int" name="NKREDLFX">     1</i>
   <i type="int" name="NKREDLFY">     1</i>
   <i type="int" name="NKREDLFZ">     1</i>
   <i type="int" name="MAXMEM">  2800</i>
   <i type="int" name="TELESCOPE">     0</i>
   <i type="int" name="NTAUPAR">    -1</i>
   <i type="int" name="NOMEGAPAR">    -1</i>
   <i name="DAMP_NEWTON">      0.80000001</i>
   <i name="LAMBDA">      1.00000000</i>
  </separator>
  <separator name="External order field" >
   <i name="OFIELD_KAPPA">      0.00000000</i>
   <v name="OFIELD_K">      0.00000000      0.00000000      0.00000000</v>
   <i name="OFIELD_Q6_NEAR">      0.00000000</i>
   <i name="OFIELD_Q6_FAR">      0.00000000</i>
   <i name="OFIELD_A">      0.00000000</i>
  </separator>
 </parameters>
 <atominfo>
  <atoms>       2 </atoms>
  <types>       1 </types>
  <array name="atoms" >
   <dimension dim="1">ion</dimension>
   <field type="string">element</field>
   <field type="int">atomtype</field>
   <set>
    <rc><c>Fe</c><c>   1</c></rc>
    <rc><c>Fe</c><c>   1</c></rc>
   </set>
  </array>
  <array name="atomtypes" >
   <dimension dim="1">type</dimension>
   <field type="int">atomspertype</field>
   <field type="string">element</field>
   <field>mass</field>
   <field>valence</field>
   <field type="string">pseudopotential</field>
   <set>
    <rc><c>   2</c><c>Fe</c><c>     55.84700000</c><c>      8.00000000</c><c>  PAW_PBE Fe 06Sep2000                  </c></rc>
   </set>
  </array>
 </atominfo>
 <structure name="initialpos" >
  <crystal>
   <varray name="basis" >
    <v>       2.30670000       0.00000000       0.00000000 </v>
    <v>      -1.15335000       1.99766080       0.00000000 </v>
    <v>       0.00000000       0.00000000       4.22136000 </v>
   </varray>
   <i name="volume">     19.45204446 </i>
   <varray name="rec_basis" >
    <v>       0.43351975       0.25029274       0.00000000 </v>
    <v>       0.00000000       0.50058549       0.00000000 </v>
    <v>       0.00000000       0.00000000       0.23689048 </v>
   </varray>
  </crystal>
  <varray name="positions" >
   <v>       0.00000000       0.00000000       0.00000000 </v>
   <v>       0.33333333       0.66666667       0.50000000 </v>
  </varray>
 </structure>
 <calculation>
  <scstep>
   <time name="dav">    0.86    0.88</time>
   <time name="total">    0.87    0.89</time>
   <energy>
    <i name="alphaZ">    142.12136136 </i>
    <i name="ewald">  -1244.42180880 </i>
    <i name="hartreedc">   -201.63941703 </i>
    <i name="XCdc">      8.80520700 </i>
    <i name="pawpsdc">   1109.69170683 </i>
    <i name="pawaedc">  -1125.09647265 </i>
    <i name="eentropy">      0.00287570 </i>
    <i name="bandstr">    183.02241047 </i>
    <i name="atom">   1188.57490811 </i>
    <i name="e_fr_energy">     61.06077098 </i>
    <i name="e_wo_entrp">     61.05789529 </i>
    <i name="e_0_energy">     61.05981242 </i>
   </energy>
  </scstep>
  <scstep>
   <time name="dav">    0.69    0.69</time>
   <time name="total">    0.69    0.69</time>
   <energy>
    <i name="e_fr_energy">    -14.40287367 </i>
    <i name="e_wo_entrp">    -14.40396858 </i>
    <i name="e_0_energy">    -14.40323864 </i>
   </energy>
  </scstep>
  <scstep>
   <time name="dav">    0.79    0.79</time>
   <time name="total">    0.80    0.80</time>
   <energy>
    <i name="e_fr_energy">    -18.73904218 </i>
    <i name="e_wo_entrp">    -18.73877764 </i>
    <i name="e_0_energy">    -18.73895400 </i>
   </energy>
  </scstep>
  <scstep>
   <time name="dav">    0.75    0.75</time>
   <time name="total">    0.76    0.76</time>
   <energy>
    <i name="e_fr_energy">    -18.75668738 </i>
    <i name="e_wo_entrp">    -18.75638026 </i>
    <i name="e_0_energy">    -18.75658501 </i>
   </energy>
  </scstep>
  <scstep>
   <time name="dav">    0.77    0.77</time>
   <time name="total">    0.80    0.80</time>
   <energy>
    <i name="e_fr_energy">    -18.75670428 </i>
    <i name="e_wo_entrp">    -18.75639713 </i>
    <i name="e_0_energy">    -18.75660190 </i>
   </energy>
  </scstep>
  <scstep>
   <time name="dav">    0.90    0.90</time>
   <time name="total">    0.93    0.93</time>
   <energy>
    <i name="e_fr_energy">    -16.04220029 </i>
    <i name="e_wo_entrp">    -16.04402687 </i>
    <i name="e_0_energy">    -16.04280915 </i>
   </energy>
  </scstep>
  <scstep>
   <time name="dav">    0.82    0.82</time>
   <time name="total">    0.85    0.85</time>
   <energy>
    <i name="e_fr_energy">    -15.88445813 </i>
    <i name="e_wo_entrp">    -15.88618225 </i>
    <i name="e_0_energy">    -15.88503284 </i>
   </energy>
  </scstep>
  <scstep>
   <time name="dav">    0.83    0.83</time>
   <time name="total">    0.86    0.86</time>
   <energy>
    <i name="e_fr_energy">    -15.85395415 </i>
    <i name="e_wo_entrp">    -15.85577094 </i>
    <i name="e_0_energy">    -15.85455975 </i>
   </energy>
  </scstep>
  <scstep>
   <time name="dav">    0.87    0.87</time>
   <time name="total">    0.90    0.90</time>
   <energy>
    <i name="e_fr_energy">    -15.84521399 </i>
    <i name="e_wo_entrp">    -15.84705585 </i>
    <i name="e_0_energy">    -15.84582794 </i>
   </energy>
  </scstep>
  <scstep>
   <time name="dav">    0.73    0.73</time>
   <time name="total">    0.76    0.76</time>
   <energy>
    <i name="e_fr_energy">    -15.84525016 </i>
    <i name="e_wo_entrp">    -15.84709288 </i>
    <i name="e_0_energy">    -15.84586440 </i>
   </energy>
  </scstep>
  <scstep>
   <time name="dav">    0.75    0.75</time>
   <time name="total">    0.78    0.78</time>
   <energy>
    <i name="e_fr_energy">    -15.84523848 </i>
    <i name="e_wo_entrp">    -15.84708077 </i>
    <i name="e_0_energy">    -15.84585258 </i>
   </energy>
  </scstep>
  <scstep>
   <time name="dav">    0.59    0.59</time>
   <time name="total">    0.62    0.62</time>
   <energy>
    <i name="e_fr_energy">    -15.84523729 </i>
    <i name="e_wo_entrp">    -15.84707956 </i>
    <i name="e_0_energy">    -15.84585138 </i>
   </energy>
  </scstep>
  <scstep>
   <time name="dav">    0.54    0.54</time>
   <time name="total">    0.55    0.55</time>
   <energy>
    <i name="alphaZ">    142.12136136 </i>
    <i name="ewald">  -1244.42180880 </i>
    <i name="hartreedc">   -168.08160309 </i>
    <i name="XCdc">      7.23607771 </i>
    <i name="pawpsdc">   1540.45097638 </i>
    <i name="pawaedc">  -1558.50992041 </i>
    <i name="eentropy">      0.00184224 </i>
    <i name="bandstr">     76.78292886 </i>
    <i name="atom">   1188.57490811 </i>
    <i name="e_fr_energy">    -15.84523763 </i>
    <i name="e_wo_entrp">    -15.84707987 </i>
    <i name="e_0_energy">    -15.84585171 </i>
   </energy>
  </scstep>
  <structure>
   <crystal>
    <varray name="basis" >
     <v>       2.30670000       0.00000000       0.00000000 </v>
     <v>      -1.15335000       1.99766080       0.00000000 </v>
     <v>       0.00000000       0.00000000       4.22136000 </v>
    </varray>
    <i name="volume">     19.45204446 </i>
    <varray name="rec_basis" >
     <v>       0.43351975       0.25029274       0.00000000 </v>
     <v>       0.00000000       0.50058549       0.00000000 </v>
     <v>       0.00000000       0.00000000       0.23689048 </v>
    </varray>
   </crystal>
   <varray name="positions" >
    <v>       0.00000000       0.00000000       0.00000000 </v>
    <v>       0.33333333       0.66666667       0.50000000 </v>
   </varray>
  </structure>
  <varray name="forces" >
   <v>       0.00000000      -0.00000000       0.00000000 </v>
   <v>      -0.00000000       0.00000000      -0.00000000 </v>
  </varray>
  <varray name="stress" >
   <v>     432.14643954      -0.00000000       0.00000000 </v>
   <v>      -0.00000000     432.14643954      -0.00000000 </v>
   <v>       0.00000000       0.00000000    -295.10282192 </v>
  </varray>
  <energy>
   <i name="e_fr_energy">    -15.84523763 </i>
   <i name="e_wo_entrp">    -15.84707987 </i>
   <i name="e_0_energy">    -15.84585171 </i>
  </energy>
  <time name="totalsc">   10.48   10.49</time>
  <eigenvalues>
   <array>
    <dimension dim="1">band</dimension>
    <dimension dim="2">kpoint</dimension>
    <dimension dim="3">spin</dimension>
    <field>eigene</field>
    <field>occ</field>
    <set>
     <set comment="spin 1">
      <set comment="kpoint 1">
       <r>   -1.7164    1.0000 </r>
       <r>    2.1206    1.0000 </r>
       <r>    4.8454    1.0000 </r>
       <r>    5.7755    1.0000 </r>
       <r>    5.7756    1.0000 </r>
       <r>    6.0541    1.0000 </r>
       <r>    6.0542    1.0000 </r>
       <r>    6.2916    1.0000 </r>
       <r>    7.2977    0.9978 </r>
       <r>    7.2977    0.9978 </r>
       <r>    8.2707   -0.0000 </r>
       <r>    8.2707   -0.0000 </r>
       <r>   14.6383    0.0000 </r>
       <r>   30.2013    0.0000 </r>
       <r>   31.8412    0.0000 </r>
       <r>   34.6888    0.0000 </r>
       <r>   37.2919    0.0000 </r>
       <r>   37.8762    0.0000 </r>
       <r>   37.8762    0.0000 </r>
       <r>   38.6049    0.0000 </r>
       <r>   38.6050    0.0000 </r>
       <r>   40.9530    0.0000 </r>
       <r>   40.9530    0.0000 </r>
       <r>   41.9148    0.0000 </r>
       <r>   44.6005    0.0000 </r>
       <r>   44.6005    0.0000 </r>
       <r>   45.0039    0.0000 </r>
       <r>   48.8278    0.0000 </r>
       <r>   48.8282    0.0000 </r>
       <r>   50.7141    0.0000 </r>
       <r>   50.7142    0.0000 </r>
       <r>   52.7443    0.0000 </r>
       <r>   60.0785    0.0000 </r>
       <r>   62.5497    0.0000 </r>
       <r>   62.5505    0.0000 </r>
       <r>   62.6504    0.0000 </r>
       <r>   63.4565    0.0000 </r>
       <r>   64.8030    0.0000 </r>
       <r>   64.9461    0.0000 </r>
       <r>   64.9470    0.0000 </r>
      </set>
      <set comment="kpoint 2">
       <r>   -1.3640    1.0000 </r>
       <r>    2.3980    1.0000 </r>
       <r>    4.9231    1.0000 </r>
       <r>    5.5561    1.0000 </r>
       <r>    5.6533    1.0000 </r>
       <r>    5.9205    1.0000 </r>
       <r>    5.9899    1.0000 </r>
       <r>    6.2573    1.0000 </r>
       <r>    7.1011    1.0139 </r>
       <r>    7.1798    1.0309 </r>
       <r>    8.2945   -0.0000 </r>
       <r>    9.2873   -0.0000 </r>
       <r>   14.6654    0.0000 </r>
       <r>   30.6423    0.0000 </r>
       <r>   30.6691    0.0000 </r>
       <r>   33.2696    0.0000 </r>
       <r>   34.9517    0.0000 </r>
       <r>   36.6349    0.0000 </r>
       <r>   36.9339    0.0000 </r>
       <r>   37.2548    0.0000 </r>
       <r>   40.2663    0.0000 </r>
       <r>   40.8532    0.0000 </r>
       <r>   41.7106    0.0000 </r>
       <r>   42.2874    0.0000 </r>
       <r>   45.8955    0.0000 </r>
       <r>   46.1506    0.0000 </r>
       <r>   46.2926    0.0000 </r>
       <r>   46.4961    0.0000 </r>
       <r>   49.8074    0.0000 </r>
       <r>   51.9880    0.0000 </r>
       <r>   53.2456    0.0000 </r>
       <r>   54.8800    0.0000 </r>
       <r>   59.2086    0.0000 </r>
       <r>   61.0493    0.0000 </r>
       <r>   61.3722    0.0000 </r>
       <r>   62.1325    0.0000 </r>
       <r>   62.1903    0.0000 </r>
       <r>   65.0008    0.0000 </r>
       <r>   65.7535    0.0000 </r>
       <r>   65.8749    0.0000 </r>
      </set>
      <set comment="kpoint 3">
       <r>   -0.3721    1.0000 </r>
       <r>    3.0465    1.0000 </r>
       <r>    4.5281    1.0000 </r>
       <r>    4.8928    1.0000 </r>
       <r>    5.3781    1.0000 </r>
       <r>    5.9749    1.0000 </r>
       <r>    6.5844    1.0000 </r>
       <r>    6.6406    1.0000 </r>
       <r>    6.8157    1.0000 </r>
       <r>    6.9028    1.0003 </r>
       <r>    8.3288   -0.0000 </r>
       <r>   11.0979   -0.0000 </r>
       <r>   14.7755    0.0000 </r>
       <r>   26.8945    0.0000 </r>
       <r>   31.5907    0.0000 </r>
       <r>   31.9629    0.0000 </r>
       <r>   31.9844    0.0000 </r>
       <r>   32.3286    0.0000 </r>
       <r>   36.6364    0.0000 </r>
       <r>   37.8611    0.0000 </r>
       <r>   38.1266    0.0000 </r>
       <r>   39.2739    0.0000 </r>
       <r>   42.4134    0.0000 </r>
       <r>   42.9994    0.0000 </r>
       <r>   46.4502    0.0000 </r>
       <r>   47.4342    0.0000 </r>
       <r>   48.7113    0.0000 </r>
       <r>   50.9086    0.0000 </r>
       <r>   52.6416    0.0000 </r>
       <r>   54.9852    0.0000 </r>
       <r>   55.8886    0.0000 </r>
       <r>   57.8603    0.0000 </r>
       <r>   58.2808    0.0000 </r>
       <r>   58.4402    0.0000 </r>
       <r>   59.6560    0.0000 </r>
       <r>   60.8798    0.0000 </r>
       <r>   63.1670    0.0000 </r>
       <r>   65.5771    0.0000 </r>
       <r>   65.6942    0.0000 </r>
       <r>   66.9886    0.0000 </r>
      </set>
      <set comment="kpoint 4">
       <r>    1.0131    1.0000 </r>
       <r>    3.3197    1.0000 </r>
       <r>    3.7181    1.0000 </r>
       <r>    4.9229    1.0000 </r>
       <r>    5.1900    1.0000 </r>
       <r>    6.0724    1.0000 </r>
       <r>    6.5871    1.0000 </r>
       <r>    6.7938    1.0000 </r>
       <r>    7.4307    0.6394 </r>
       <r>    7.5995    0.0485 </r>
       <r>    8.3342   -0.0000 </r>
       <r>   13.1877    0.0000 </r>
       <r>   15.0392    0.0000 </r>
       <r>   22.7542    0.0000 </r>
       <r>   28.1636    0.0000 </r>
       <r>   29.4596    0.0000 </r>
       <r>   30.1416    0.0000 </r>
       <r>   32.5241    0.0000 </r>
       <r>   35.2584    0.0000 </r>
       <r>   37.3113    0.0000 </r>
       <r>   38.4709    0.0000 </r>
       <r>   38.5424    0.0000 </r>
       <r>   39.8293    0.0000 </r>
       <r>   42.9734    0.0000 </r>
       <r>   50.1674    0.0000 </r>
       <r>   51.1545    0.0000 </r>
       <r>   52.3720    0.0000 </r>
       <r>   52.9993    0.0000 </r>
       <r>   53.0568    0.0000 </r>
       <r>   55.7238    0.0000 </r>
       <r>   56.6428    0.0000 </r>
       <r>   58.6074    0.0000 </r>
       <r>   59.1409    0.0000 </r>
       <r>   59.7857    0.0000 </r>
       <r>   61.0987    0.0000 </r>
       <r>   63.5967    0.0000 </r>
       <r>   64.2674    0.0000 </r>
       <r>   65.6474    0.0000 </r>
       <r>   66.4130    0.0000 </r>
       <r>   67.4534    0.0000 </r>
      </set>
      <set comment="kpoint 5">
       <r>    2.1787    1.0000 </r>
       <r>    3.0065    1.0000 </r>
       <r>    3.1849    1.0000 </r>
       <r>    5.0416    1.0000 </r>
       <r>    5.5676    1.0000 </r>
       <r>    5.7810    1.0000 </r>
       <r>    6.3241    1.0000 </r>
       <r>    8.1715   -0.0000 </r>
       <r>    8.2875   -0.0000 </r>
       <r>    8.3169   -0.0000 </r>
       <r>    8.3872   -0.0000 </r>
       <r>   15.1408    0.0000 </r>
       <r>   15.4435    0.0000 </r>
       <r>   19.5962    0.0000 </r>
       <r>   24.7167    0.0000 </r>
       <r>   27.1077    0.0000 </r>
       <r>   27.5313    0.0000 </r>
       <r>   31.9574    0.0000 </r>
       <r>   34.3946    0.0000 </r>
       <r>   37.6718    0.0000 </r>
       <r>   38.0790    0.0000 </r>
       <r>   39.1069    0.0000 </r>
       <r>   39.2018    0.0000 </r>
       <r>   42.8595    0.0000 </r>
       <r>   49.5788    0.0000 </r>
       <r>   51.8031    0.0000 </r>
       <r>   53.2686    0.0000 </r>
       <r>   56.4127    0.0000 </r>
       <r>   56.5788    0.0000 </r>
       <r>   56.6188    0.0000 </r>
       <r>   57.8492    0.0000 </r>
       <r>   60.3400    0.0000 </r>
       <r>   60.6495    0.0000 </r>
       <r>   61.2620    0.0000 </r>
       <r>   63.3147    0.0000 </r>
       <r>   64.6770    0.0000 </r>
       <r>   65.5834    0.0000 </r>
       <r>   66.6002    0.0000 </r>
       <r>   66.7618    0.0000 </r>
       <r>   68.4687    0.0000 </r>
      </set>
      <set comment="kpoint 6">
       <r>    2.5446    1.0000 </r>
       <r>    2.7664    1.0000 </r>
       <r>    2.9255    1.0000 </r>
       <r>    5.2728    1.0000 </r>
       <r>    5.6802    1.0000 </r>
       <r>    6.0494    1.0000 </r>
       <r>    6.1759    1.0000 </r>
       <r>    8.3007   -0.0000 </r>
       <r>    8.8209   -0.0000 </r>
       <r>    8.9141   -0.0000 </r>
       <r>   10.0005   -0.0000 </r>
       <r>   13.5631    0.0000 </r>
       <r>   17.5934    0.0000 </r>
       <r>   19.2989    0.0000 </r>
       <r>   21.9835    0.0000 </r>
       <r>   24.2457    0.0000 </r>
       <r>   26.4524    0.0000 </r>
       <r>   31.3741    0.0000 </r>
       <r>   34.1039    0.0000 </r>
       <r>   36.4650    0.0000 </r>
       <r>   37.8383    0.0000 </r>
       <r>   40.2439    0.0000 </r>
       <r>   41.7323    0.0000 </r>
       <r>   41.9166    0.0000 </r>
       <r>   46.1612    0.0000 </r>
       <r>   52.1698    0.0000 </r>
       <r>   53.7066    0.0000 </r>
       <r>   57.1109    0.0000 </r>
       <r>   58.9832    0.0000 </r>
       <r>   59.6846    0.0000 </r>
       <r>   60.4543    0.0000 </r>
       <r>   61.5637    0.0000 </r>
       <r>   61.7385    0.0000 </r>
       <r>   63.0091    0.0000 </r>
       <r>   64.4300    0.0000 </r>
       <r>   65.6447    0.0000 </r>
       <r>   66.6595    0.0000 </r>
       <r>   66.9304    0.0000 </r>
       <r>   68.8476    0.0000 </r>
       <r>   69.5705    0.0000 </r>
      </set>
      <set comment="kpoint 7">
       <r>   -0.6885    1.0000 </r>
       <r>    2.8846    1.0000 </r>
       <r>    4.7993    1.0000 </r>
       <r>    4.9004    1.0000 </r>
       <r>    5.6051    1.0000 </r>
       <r>    5.6661    1.0000 </r>
       <r>    6.4263    1.0000 </r>
       <r>    6.6727    1.0000 </r>
       <r>    6.6887    1.0000 </r>
       <r>    7.1107    1.0157 </r>
       <r>    8.2838   -0.0000 </r>
       <r>   10.5898   -0.0000 </r>
       <r>   14.7383    0.0000 </r>
       <r>   28.6594    0.0000 </r>
       <r>   30.0690    0.0000 </r>
       <r>   31.3933    0.0000 </r>
       <r>   33.7292    0.0000 </r>
       <r>   35.6946    0.0000 </r>
       <r>   35.7900    0.0000 </r>
       <r>   36.6810    0.0000 </r>
       <r>   37.1431    0.0000 </r>
       <r>   42.9155    0.0000 </r>
       <r>   43.2613    0.0000 </r>
       <r>   43.9297    0.0000 </r>
       <r>   44.7402    0.0000 </r>
       <r>   45.3269    0.0000 </r>
       <r>   45.7027    0.0000 </r>
       <r>   51.5804    0.0000 </r>
       <r>   53.4669    0.0000 </r>
       <r>   53.7805    0.0000 </r>
       <r>   54.0045    0.0000 </r>
       <r>   57.5934    0.0000 </r>
       <r>   58.2859    0.0000 </r>
       <r>   58.8390    0.0000 </r>
       <r>   60.2098    0.0000 </r>
       <r>   60.9549    0.0000 </r>
       <r>   62.4906    0.0000 </r>
       <r>   65.3362    0.0000 </r>
       <r>   66.1137    0.0000 </r>
       <r>   67.1123    0.0000 </r>
      </set>
      <set comment="kpoint 8">
       <r>    0.5319    1.0000 </r>
       <r>    3.4953    1.0000 </r>
       <r>    4.0116    1.0000 </r>
       <r>    4.6559    1.0000 </r>
       <r>    5.2856    1.0000 </r>
       <r>    6.0707    1.0000 </r>
       <r>    6.1536    1.0000 </r>
       <r>    6.8235    1.0000 </r>
       <r>    7.2063    1.0349 </r>
       <r>    7.4950    0.3712 </r>
       <r>    8.2511   -0.0000 </r>
       <r>   12.4579   -0.0000 </r>
       <r>   14.9706    0.0000 </r>
       <r>   24.8851    0.0000 </r>
       <r>   27.6221    0.0000 </r>
       <r>   30.0779    0.0000 </r>
       <r>   32.0051    0.0000 </r>
       <r>   33.0608    0.0000 </r>
       <r>   35.2188    0.0000 </r>
       <r>   35.9877    0.0000 </r>
       <r>   37.2508    0.0000 </r>
       <r>   41.6543    0.0000 </r>
       <r>   42.2001    0.0000 </r>
       <r>   43.8412    0.0000 </r>
       <r>   46.8314    0.0000 </r>
       <r>   47.6431    0.0000 </r>
       <r>   49.9212    0.0000 </r>
       <r>   53.4404    0.0000 </r>
       <r>   54.7822    0.0000 </r>
       <r>   55.9839    0.0000 </r>
       <r>   56.4387    0.0000 </r>
       <r>   58.3771    0.0000 </r>
       <r>   59.0481    0.0000 </r>
       <r>   59.2549    0.0000 </r>
       <r>   60.7328    0.0000 </r>
       <r>   61.0276    0.0000 </r>
       <r>   63.4426    0.0000 </r>
       <r>   65.8677    0.0000 </r>
       <r>   66.6468    0.0000 </r>
       <r>   67.7166    0.0000 </r>
      </set>
      <set comment="kpoint 9">
       <r>    1.9176    1.0000 </r>
       <r>    3.3835    1.0000 </r>
       <r>    3.4280    1.0000 </r>
       <r>    4.7673    1.0000 </r>
       <r>    5.4039    1.0000 </r>
       <r>    5.6883    1.0000 </r>
       <r>    6.4331    1.0000 </r>
       <r>    6.9559    1.0010 </r>
       <r>    8.0518   -0.0001 </r>
       <r>    8.2110   -0.0000 </r>
       <r>    8.5389   -0.0000 </r>
       <r>   14.6099    0.0000 </r>
       <r>   15.4083    0.0000 </r>
       <r>   21.0159    0.0000 </r>
       <r>   25.8593    0.0000 </r>
       <r>   26.5267    0.0000 </r>
       <r>   29.5545    0.0000 </r>
       <r>   31.0965    0.0000 </r>
       <r>   35.2888    0.0000 </r>
       <r>   36.6893    0.0000 </r>
       <r>   36.7360    0.0000 </r>
       <r>   40.7032    0.0000 </r>
       <r>   41.4317    0.0000 </r>
       <r>   44.5844    0.0000 </r>
       <r>   48.7850    0.0000 </r>
       <r>   51.0651    0.0000 </r>
       <r>   52.1637    0.0000 </r>
       <r>   52.1813    0.0000 </r>
       <r>   55.0387    0.0000 </r>
       <r>   56.8779    0.0000 </r>
       <r>   57.2241    0.0000 </r>
       <r>   60.1366    0.0000 </r>
       <r>   61.2563    0.0000 </r>
       <r>   61.2568    0.0000 </r>
       <r>   62.4296    0.0000 </r>
       <r>   64.1981    0.0000 </r>
       <r>   65.8253    0.0000 </r>
       <r>   66.7022    0.0000 </r>
       <r>   66.8779    0.0000 </r>
       <r>   67.2640    0.0000 </r>
      </set>
      <set comment="kpoint 10">
       <r>    2.6887    1.0000 </r>
       <r>    3.0443    1.0000 </r>
       <r>    3.0875    1.0000 </r>
       <r>    5.2292    1.0000 </r>
       <r>    5.3642    1.0000 </r>
       <r>    5.8749    1.0000 </r>
       <r>    6.1193    1.0000 </r>
       <r>    8.0191   -0.0003 </r>
       <r>    8.1743   -0.0000 </r>
       <r>    8.6181   -0.0000 </r>
       <r>    9.8366   -0.0000 </r>
       <r>   14.9510    0.0000 </r>
       <r>   16.8920    0.0000 </r>
       <r>   19.1691    0.0000 </r>
       <r>   23.3974    0.0000 </r>
       <r>   24.3974    0.0000 </r>
       <r>   26.2493    0.0000 </r>
       <r>   30.2116    0.0000 </r>
       <r>   34.4169    0.0000 </r>
       <r>   36.2781    0.0000 </r>
       <r>   38.5688    0.0000 </r>
       <r>   40.8850    0.0000 </r>
       <r>   41.6968    0.0000 </r>
       <r>   43.6375    0.0000 </r>
       <r>   48.2217    0.0000 </r>
       <r>   51.3297    0.0000 </r>
       <r>   52.5153    0.0000 </r>
       <r>   54.4569    0.0000 </r>
       <r>   56.5298    0.0000 </r>
       <r>   58.2708    0.0000 </r>
       <r>   59.8174    0.0000 </r>
       <r>   61.2475    0.0000 </r>
       <r>   61.8863    0.0000 </r>
       <r>   64.0470    0.0000 </r>
       <r>   64.4929    0.0000 </r>
       <r>   65.6148    0.0000 </r>
       <r>   65.8053    0.0000 </r>
       <r>   67.4604    0.0000 </r>
       <r>   67.5901    0.0000 </r>
       <r>   69.3179    0.0000 </r>
      </set>
      <set comment="kpoint 11">
       <r>    2.7610    1.0000 </r>
       <r>    2.9593    1.0000 </r>
       <r>    2.9779    1.0000 </r>
       <r>    5.2474    1.0000 </r>
       <r>    5.7355    1.0000 </r>
       <r>    5.9381    1.0000 </r>
       <r>    6.0020    1.0000 </r>
       <r>    8.1600   -0.0000 </r>
       <r>    8.6430   -0.0000 </r>
       <r>    8.6765   -0.0000 </r>
       <r>   11.1137   -0.0000 </r>
       <r>   13.3551    0.0000 </r>
       <r>   18.4569    0.0000 </r>
       <r>   19.7464    0.0000 </r>
       <r>   21.5557    0.0000 </r>
       <r>   23.2696    0.0000 </r>
       <r>   24.9506    0.0000 </r>
       <r>   29.8989    0.0000 </r>
       <r>   34.0272    0.0000 </r>
       <r>   36.1456    0.0000 </r>
       <r>   39.1155    0.0000 </r>
       <r>   41.5080    0.0000 </r>
       <r>   42.5793    0.0000 </r>
       <r>   42.9817    0.0000 </r>
       <r>   46.0572    0.0000 </r>
       <r>   52.2188    0.0000 </r>
       <r>   52.6756    0.0000 </r>
       <r>   54.7218    0.0000 </r>
       <r>   58.9422    0.0000 </r>
       <r>   59.1511    0.0000 </r>
       <r>   61.7628    0.0000 </r>
       <r>   62.0048    0.0000 </r>
       <r>   62.1003    0.0000 </r>
       <r>   62.8542    0.0000 </r>
       <r>   63.7488    0.0000 </r>
       <r>   66.4525    0.0000 </r>
       <r>   67.7371    0.0000 </r>
       <r>   67.7889    0.0000 </r>
       <r>   67.7944    0.0000 </r>
       <r>   68.9303    0.0000 </r>
      </set>
      <set comment="kpoint 12">
       <r>    1.8488    1.0000 </r>
       <r>    3.5736    1.0000 </r>
       <r>    4.0084    1.0000 </r>
       <r>    4.1687    1.0000 </r>
       <r>    5.3582    1.0000 </r>
       <r>    5.6587    1.0000 </r>
       <r>    6.3255    1.0000 </r>
       <r>    6.5427    1.0000 </r>
       <r>    8.0226   -0.0003 </r>
       <r>    8.0906   -0.0000 </r>
       <r>    8.6233   -0.0000 </r>
       <r>   14.3530    0.0000 </r>
       <r>   15.5322    0.0000 </r>
       <r>   22.8331    0.0000 </r>
       <r>   23.6658    0.0000 </r>
       <r>   28.1487    0.0000 </r>
       <r>   29.5799    0.0000 </r>
       <r>   32.0092    0.0000 </r>
       <r>   32.5092    0.0000 </r>
       <r>   36.0244    0.0000 </r>
       <r>   38.6910    0.0000 </r>
       <r>   42.9148    0.0000 </r>
       <r>   43.8482    0.0000 </r>
       <r>   45.5761    0.0000 </r>
       <r>   46.6136    0.0000 </r>
       <r>   48.5597    0.0000 </r>
       <r>   49.2749    0.0000 </r>
       <r>   53.2677    0.0000 </r>
       <r>   55.6795    0.0000 </r>
       <r>   55.9680    0.0000 </r>
       <r>   56.3155    0.0000 </r>
       <r>   60.5842    0.0000 </r>
       <r>   60.8682    0.0000 </r>
       <r>   63.0888    0.0000 </r>
       <r>   63.4354    0.0000 </r>
       <r>   63.8863    0.0000 </r>
       <r>   64.1949    0.0000 </r>
       <r>   66.3674    0.0000 </r>
       <r>   66.9234    0.0000 </r>
       <r>   68.2313    0.0000 </r>
      </set>
      <set comment="kpoint 13">
       <r>    3.0666    1.0000 </r>
       <r>    3.3144    1.0000 </r>
       <r>    3.6442    1.0000 </r>
       <r>    4.4600    1.0000 </r>
       <r>    5.3441    1.0000 </r>
       <r>    5.6859    1.0000 </r>
       <r>    6.0889    1.0000 </r>
       <r>    6.9800    1.0016 </r>
       <r>    7.9523   -0.0015 </r>
       <r>    8.5211   -0.0000 </r>
       <r>   10.0298   -0.0000 </r>
       <r>   16.3161    0.0000 </r>
       <r>   16.5677    0.0000 </r>
       <r>   19.7276    0.0000 </r>
       <r>   21.9587    0.0000 </r>
       <r>   25.3947    0.0000 </r>
       <r>   27.9445    0.0000 </r>
       <r>   28.3284    0.0000 </r>
       <r>   31.2584    0.0000 </r>
       <r>   38.3833    0.0000 </r>
       <r>   39.1563    0.0000 </r>
       <r>   42.7661    0.0000 </r>
       <r>   44.9054    0.0000 </r>
       <r>   46.6892    0.0000 </r>
       <r>   47.2859    0.0000 </r>
       <r>   49.3481    0.0000 </r>
       <r>   50.5332    0.0000 </r>
       <r>   51.4245    0.0000 </r>
       <r>   54.7887    0.0000 </r>
       <r>   56.2189    0.0000 </r>
       <r>   58.9556    0.0000 </r>
       <r>   61.4688    0.0000 </r>
       <r>   62.3782    0.0000 </r>
       <r>   64.0317    0.0000 </r>
       <r>   65.5402    0.0000 </r>
       <r>   65.6074    0.0000 </r>
       <r>   67.1114    0.0000 </r>
       <r>   67.1705    0.0000 </r>
       <r>   68.7830    0.0000 </r>
       <r>   69.2969    0.0000 </r>
      </set>
      <set comment="kpoint 14">
       <r>    3.2119    1.0000 </r>
       <r>    3.3223    1.0000 </r>
       <r>    3.4923    1.0000 </r>
       <r>    5.0552    1.0000 </r>
       <r>    5.2580    1.0000 </r>
       <r>    5.6927    1.0000 </r>
       <r>    5.9918    1.0000 </r>
       <r>    7.7914   -0.0214 </r>
       <r>    7.8745   -0.0067 </r>
       <r>    8.4731   -0.0000 </r>
       <r>   11.7376   -0.0000 </r>
       <r>   14.8903    0.0000 </r>
       <r>   18.8527    0.0000 </r>
       <r>   19.8137    0.0000 </r>
       <r>   20.9886    0.0000 </r>
       <r>   22.6154    0.0000 </r>
       <r>   25.2437    0.0000 </r>
       <r>   27.3241    0.0000 </r>
       <r>   30.6046    0.0000 </r>
       <r>   39.2925    0.0000 </r>
       <r>   40.8287    0.0000 </r>
       <r>   42.8080    0.0000 </r>
       <r>   43.8168    0.0000 </r>
       <r>   45.1186    0.0000 </r>
       <r>   48.8382    0.0000 </r>
       <r>   49.6565    0.0000 </r>
       <r>   51.0731    0.0000 </r>
       <r>   52.7737    0.0000 </r>
       <r>   56.4016    0.0000 </r>
       <r>   57.6180    0.0000 </r>
       <r>   58.6607    0.0000 </r>
       <r>   61.2552    0.0000 </r>
       <r>   62.2846    0.0000 </r>
       <r>   62.2966    0.0000 </r>
       <r>   66.4520    0.0000 </r>
       <r>   67.1110    0.0000 </r>
       <r>   68.2135    0.0000 </r>
       <r>   68.3983    0.0000 </r>
       <r>   68.6325    0.0000 </r>
       <r>   69.2169    0.0000 </r>
      </set>
      <set comment="kpoint 15">
       <r>    3.3755    1.0000 </r>
       <r>    3.8184    1.0000 </r>
       <r>    4.1549    1.0000 </r>
       <r>    4.1746    1.0000 </r>
       <r>    5.1728    1.0000 </r>
       <r>    5.6105    1.0000 </r>
       <r>    6.0073    1.0000 </r>
       <r>    7.2679    1.0231 </r>
       <r>    7.7233   -0.0348 </r>
       <r>    8.4228   -0.0000 </r>
       <r>   11.8993   -0.0000 </r>
       <r>   17.0330    0.0000 </r>
       <r>   17.7741    0.0000 </r>
       <r>   18.8955    0.0000 </r>
       <r>   20.5156    0.0000 </r>
       <r>   24.7114    0.0000 </r>
       <r>   24.8018    0.0000 </r>
       <r>   27.0806    0.0000 </r>
       <r>   27.8965    0.0000 </r>
       <r>   40.1916    0.0000 </r>
       <r>   41.0333    0.0000 </r>
       <r>   45.7726    0.0000 </r>
       <r>   46.3553    0.0000 </r>
       <r>   46.6079    0.0000 </r>
       <r>   47.2052    0.0000 </r>
       <r>   47.6949    0.0000 </r>
       <r>   50.4408    0.0000 </r>
       <r>   52.8789    0.0000 </r>
       <r>   53.1010    0.0000 </r>
       <r>   57.7266    0.0000 </r>
       <r>   57.9417    0.0000 </r>
       <r>   60.3403    0.0000 </r>
       <r>   62.2126    0.0000 </r>
       <r>   62.4223    0.0000 </r>
       <r>   66.5796    0.0000 </r>
       <r>   67.4768    0.0000 </r>
       <r>   67.6837    0.0000 </r>
       <r>   68.3139    0.0000 </r>
       <r>   68.4761    0.0000 </r>
       <r>   70.7834    0.0000 </r>
      </set>
      <set comment="kpoint 16">
       <r>    3.4454    1.0000 </r>
       <r>    3.9286    1.0000 </r>
       <r>    4.0388    1.0000 </r>
       <r>    4.5699    1.0000 </r>
       <r>    5.2376    1.0000 </r>
       <r>    5.2587    1.0000 </r>
       <r>    6.1567    1.0000 </r>
       <r>    7.6347   -0.0024 </r>
       <r>    7.6922   -0.0342 </r>
       <r>    8.0408   -0.0002 </r>
       <r>   13.7491    0.0000 </r>
       <r>   15.1261    0.0000 </r>
       <r>   17.3837    0.0000 </r>
       <r>   20.9354    0.0000 </r>
       <r>   21.4744    0.0000 </r>
       <r>   22.4405    0.0000 </r>
       <r>   24.5302    0.0000 </r>
       <r>   25.2665    0.0000 </r>
       <r>   27.2962    0.0000 </r>
       <r>   40.5394    0.0000 </r>
       <r>   43.7665    0.0000 </r>
       <r>   44.2537    0.0000 </r>
       <r>   45.8557    0.0000 </r>
       <r>   45.9166    0.0000 </r>
       <r>   47.4774    0.0000 </r>
       <r>   48.9802    0.0000 </r>
       <r>   52.3426    0.0000 </r>
       <r>   53.2448    0.0000 </r>
       <r>   53.4052    0.0000 </r>
       <r>   56.7172    0.0000 </r>
       <r>   57.7742    0.0000 </r>
       <r>   58.4712    0.0000 </r>
       <r>   61.4038    0.0000 </r>
       <r>   61.7392    0.0000 </r>
       <r>   66.4263    0.0000 </r>
       <r>   67.7535    0.0000 </r>
       <r>   68.3723    0.0000 </r>
       <r>   68.4240    0.0000 </r>
       <r>   69.5375    0.0000 </r>
       <r>   70.2818    0.0000 </r>
      </set>
      <set comment="kpoint 17">
       <r>   -1.6382    1.0000 </r>
       <r>    2.0847    1.0000 </r>
       <r>    4.8267    1.0000 </r>
       <r>    5.7707    1.0000 </r>
       <r>    5.7708    1.0000 </r>
       <r>    6.0405    1.0000 </r>
       <r>    6.0406    1.0000 </r>
       <r>    6.0942    1.0000 </r>
       <r>    7.3276    0.9537 </r>
       <r>    7.3276    0.9537 </r>
       <r>    8.2572   -0.0000 </r>
       <r>    8.2572   -0.0000 </r>
       <r>   14.9929    0.0000 </r>
       <r>   29.5429    0.0000 </r>
       <r>   31.9430    0.0000 </r>
       <r>   34.5355    0.0000 </r>
       <r>   37.8239    0.0000 </r>
       <r>   37.9148    0.0000 </r>
       <r>   37.9148    0.0000 </r>
       <r>   38.5995    0.0000 </r>
       <r>   38.5996    0.0000 </r>
       <r>   40.8959    0.0000 </r>
       <r>   40.8959    0.0000 </r>
       <r>   42.1610    0.0000 </r>
       <r>   44.3018    0.0000 </r>
       <r>   44.3018    0.0000 </r>
       <r>   45.1835    0.0000 </r>
       <r>   49.0537    0.0000 </r>
       <r>   49.0540    0.0000 </r>
       <r>   51.0819    0.0000 </r>
       <r>   51.0820    0.0000 </r>
       <r>   52.5421    0.0000 </r>
       <r>   59.2802    0.0000 </r>
       <r>   62.3274    0.0000 </r>
       <r>   62.3282    0.0000 </r>
       <r>   62.7498    0.0000 </r>
       <r>   63.2688    0.0000 </r>
       <r>   63.3909    0.0000 </r>
       <r>   63.3913    0.0000 </r>
       <r>   64.3228    0.0000 </r>
      </set>
      <set comment="kpoint 18">
       <r>   -1.2876    1.0000 </r>
       <r>    2.3656    1.0000 </r>
       <r>    4.9080    1.0000 </r>
       <r>    5.4189    1.0000 </r>
       <r>    5.6365    1.0000 </r>
       <r>    5.9349    1.0000 </r>
       <r>    5.9833    1.0000 </r>
       <r>    6.2426    1.0000 </r>
       <r>    7.1407    1.0223 </r>
       <r>    7.2161    1.0354 </r>
       <r>    8.2818   -0.0000 </r>
       <r>    9.1491   -0.0000 </r>
       <r>   15.0573    0.0000 </r>
       <r>   29.9049    0.0000 </r>
       <r>   30.8080    0.0000 </r>
       <r>   33.2258    0.0000 </r>
       <r>   35.0167    0.0000 </r>
       <r>   36.1342    0.0000 </r>
       <r>   37.3729    0.0000 </r>
       <r>   37.7512    0.0000 </r>
       <r>   40.0282    0.0000 </r>
       <r>   40.9616    0.0000 </r>
       <r>   41.7620    0.0000 </r>
       <r>   42.4438    0.0000 </r>
       <r>   45.5873    0.0000 </r>
       <r>   45.7744    0.0000 </r>
       <r>   46.9356    0.0000 </r>
       <r>   46.9552    0.0000 </r>
       <r>   49.6684    0.0000 </r>
       <r>   52.1707    0.0000 </r>
       <r>   53.5115    0.0000 </r>
       <r>   54.7296    0.0000 </r>
       <r>   57.9659    0.0000 </r>
       <r>   60.8977    0.0000 </r>
       <r>   61.6128    0.0000 </r>
       <r>   62.1598    0.0000 </r>
       <r>   62.6229    0.0000 </r>
       <r>   63.6382    0.0000 </r>
       <r>   64.5666    0.0000 </r>
       <r>   65.8785    0.0000 </r>
      </set>
      <set comment="kpoint 19">
       <r>   -0.3035    1.0000 </r>
       <r>    3.0256    1.0000 </r>
       <r>    4.4591    1.0000 </r>
       <r>    4.9040    1.0000 </r>
       <r>    5.3504    1.0000 </r>
       <r>    5.9202    1.0000 </r>
       <r>    6.5588    1.0000 </r>
       <r>    6.7327    1.0000 </r>
       <r>    6.7827    1.0000 </r>
       <r>    6.9792    1.0016 </r>
       <r>    8.3092   -0.0000 </r>
       <r>   10.7557   -0.0000 </r>
       <r>   15.2993    0.0000 </r>
       <r>   26.9478    0.0000 </r>
       <r>   30.7805    0.0000 </r>
       <r>   31.7441    0.0000 </r>
       <r>   32.0685    0.0000 </r>
       <r>   32.5601    0.0000 </r>
       <r>   36.4297    0.0000 </r>
       <r>   38.2524    0.0000 </r>
       <r>   38.5779    0.0000 </r>
       <r>   38.8451    0.0000 </r>
       <r>   42.7651    0.0000 </r>
       <r>   43.4029    0.0000 </r>
       <r>   46.6542    0.0000 </r>
       <r>   47.3399    0.0000 </r>
       <r>   48.5151    0.0000 </r>
       <r>   50.9189    0.0000 </r>
       <r>   52.3030    0.0000 </r>
       <r>   55.1398    0.0000 </r>
       <r>   56.1803    0.0000 </r>
       <r>   56.7226    0.0000 </r>
       <r>   57.7593    0.0000 </r>
       <r>   59.1576    0.0000 </r>
       <r>   59.6096    0.0000 </r>
       <r>   61.2844    0.0000 </r>
       <r>   63.0421    0.0000 </r>
       <r>   64.6311    0.0000 </r>
       <r>   65.4530    0.0000 </r>
       <r>   67.4698    0.0000 </r>
      </set>
      <set comment="kpoint 20">
       <r>    1.0586    1.0000 </r>
       <r>    3.3029    1.0000 </r>
       <r>    3.7099    1.0000 </r>
       <r>    4.9020    1.0000 </r>
       <r>    5.1790    1.0000 </r>
       <r>    6.0856    1.0000 </r>
       <r>    6.6071    1.0000 </r>
       <r>    6.8379    1.0000 </r>
       <r>    7.4380    0.6094 </r>
       <r>    7.5878    0.0719 </r>
       <r>    8.3124   -0.0000 </r>
       <r>   12.4790   -0.0000 </r>
       <r>   15.8761    0.0000 </r>
       <r>   22.8148    0.0000 </r>
       <r>   27.8020    0.0000 </r>
       <r>   29.5632    0.0000 </r>
       <r>   30.3275    0.0000 </r>
       <r>   32.2445    0.0000 </r>
       <r>   34.9638    0.0000 </r>
       <r>   36.9874    0.0000 </r>
       <r>   37.6596    0.0000 </r>
       <r>   39.3644    0.0000 </r>
       <r>   40.7278    0.0000 </r>
       <r>   43.4559    0.0000 </r>
       <r>   50.2470    0.0000 </r>
       <r>   50.3584    0.0000 </r>
       <r>   51.6180    0.0000 </r>
       <r>   51.9906    0.0000 </r>
       <r>   54.8262    0.0000 </r>
       <r>   55.8801    0.0000 </r>
       <r>   56.8961    0.0000 </r>
       <r>   58.4584    0.0000 </r>
       <r>   58.7813    0.0000 </r>
       <r>   59.5866    0.0000 </r>
       <r>   61.5285    0.0000 </r>
       <r>   62.9483    0.0000 </r>
       <r>   64.6858    0.0000 </r>
       <r>   65.5554    0.0000 </r>
       <r>   65.8015    0.0000 </r>
       <r>   67.9553    0.0000 </r>
      </set>
      <set comment="kpoint 21">
       <r>    2.1636    1.0000 </r>
       <r>    2.9552    1.0000 </r>
       <r>    3.2881    1.0000 </r>
       <r>    4.8046    1.0000 </r>
       <r>    5.7048    1.0000 </r>
       <r>    5.9570    1.0000 </r>
       <r>    6.3569    1.0000 </r>
       <r>    8.1336   -0.0000 </r>
       <r>    8.2226   -0.0000 </r>
       <r>    8.2991   -0.0000 </r>
       <r>    8.4280   -0.0000 </r>
       <r>   13.9058    0.0000 </r>
       <r>   16.7207    0.0000 </r>
       <r>   19.6741    0.0000 </r>
       <r>   24.3927    0.0000 </r>
       <r>   27.4530    0.0000 </r>
       <r>   27.6481    0.0000 </r>
       <r>   31.9192    0.0000 </r>
       <r>   34.2940    0.0000 </r>
       <r>   36.4079    0.0000 </r>
       <r>   37.4856    0.0000 </r>
       <r>   39.3849    0.0000 </r>
       <r>   40.6819    0.0000 </r>
       <r>   43.2777    0.0000 </r>
       <r>   48.5736    0.0000 </r>
       <r>   52.9031    0.0000 </r>
       <r>   52.9291    0.0000 </r>
       <r>   55.5799    0.0000 </r>
       <r>   55.6409    0.0000 </r>
       <r>   57.8412    0.0000 </r>
       <r>   58.1731    0.0000 </r>
       <r>   60.1706    0.0000 </r>
       <r>   61.1110    0.0000 </r>
       <r>   61.1955    0.0000 </r>
       <r>   63.3656    0.0000 </r>
       <r>   64.6010    0.0000 </r>
       <r>   65.3809    0.0000 </r>
       <r>   65.8406    0.0000 </r>
       <r>   67.9468    0.0000 </r>
       <r>   68.4567    0.0000 </r>
      </set>
      <set comment="kpoint 22">
       <r>    2.4892    1.0000 </r>
       <r>    2.6425    1.0000 </r>
       <r>    3.1512    1.0000 </r>
       <r>    4.8657    1.0000 </r>
       <r>    5.8783    1.0000 </r>
       <r>    6.2130    1.0000 </r>
       <r>    6.3641    1.0000 </r>
       <r>    8.2471   -0.0000 </r>
       <r>    8.8250   -0.0000 </r>
       <r>    8.9142   -0.0000 </r>
       <r>    9.9077   -0.0000 </r>
       <r>   13.3502    0.0000 </r>
       <r>   17.5567    0.0000 </r>
       <r>   19.3220    0.0000 </r>
       <r>   22.0803    0.0000 </r>
       <r>   24.5749    0.0000 </r>
       <r>   26.5758    0.0000 </r>
       <r>   31.3818    0.0000 </r>
       <r>   34.0578    0.0000 </r>
       <r>   35.5187    0.0000 </r>
       <r>   38.8418    0.0000 </r>
       <r>   39.0756    0.0000 </r>
       <r>   40.9332    0.0000 </r>
       <r>   43.6726    0.0000 </r>
       <r>   46.1598    0.0000 </r>
       <r>   52.8064    0.0000 </r>
       <r>   53.1686    0.0000 </r>
       <r>   56.1781    0.0000 </r>
       <r>   58.9042    0.0000 </r>
       <r>   60.0022    0.0000 </r>
       <r>   61.1373    0.0000 </r>
       <r>   61.6257    0.0000 </r>
       <r>   61.6594    0.0000 </r>
       <r>   63.0368    0.0000 </r>
       <r>   64.6637    0.0000 </r>
       <r>   65.7659    0.0000 </r>
       <r>   66.3598    0.0000 </r>
       <r>   67.5149    0.0000 </r>
       <r>   68.8432    0.0000 </r>
       <r>   68.8880    0.0000 </r>
      </set>
      <set comment="kpoint 23">
       <r>   -0.6168    1.0000 </r>
       <r>    2.8602    1.0000 </r>
       <r>    4.7125    1.0000 </r>
       <r>    4.9076    1.0000 </r>
       <r>    5.5409    1.0000 </r>
       <r>    5.6815    1.0000 </r>
       <r>    6.4091    1.0000 </r>
       <r>    6.6352    1.0000 </r>
       <r>    6.7904    1.0000 </r>
       <r>    7.1465    1.0236 </r>
       <r>    8.2680   -0.0000 </r>
       <r>   10.3131   -0.0000 </r>
       <r>   15.2147    0.0000 </r>
       <r>   28.6954    0.0000 </r>
       <r>   30.1169    0.0000 </r>
       <r>   30.7216    0.0000 </r>
       <r>   33.3731    0.0000 </r>
       <r>   35.8321    0.0000 </r>
       <r>   36.1394    0.0000 </r>
       <r>   36.1908    0.0000 </r>
       <r>   37.9629    0.0000 </r>
       <r>   42.8946    0.0000 </r>
       <r>   43.2043    0.0000 </r>
       <r>   44.0966    0.0000 </r>
       <r>   44.3520    0.0000 </r>
       <r>   45.8471    0.0000 </r>
       <r>   46.1142    0.0000 </r>
       <r>   51.4132    0.0000 </r>
       <r>   53.0043    0.0000 </r>
       <r>   54.0944    0.0000 </r>
       <r>   54.3201    0.0000 </r>
       <r>   56.7095    0.0000 </r>
       <r>   57.2193    0.0000 </r>
       <r>   59.8608    0.0000 </r>
       <r>   60.2586    0.0000 </r>
       <r>   61.4387    0.0000 </r>
       <r>   62.4564    0.0000 </r>
       <r>   63.9635    0.0000 </r>
       <r>   65.7187    0.0000 </r>
       <r>   67.4827    0.0000 </r>
      </set>
      <set comment="kpoint 24">
       <r>    0.5897    1.0000 </r>
       <r>    3.4836    1.0000 </r>
       <r>    3.9689    1.0000 </r>
       <r>    4.6766    1.0000 </r>
       <r>    5.2603    1.0000 </r>
       <r>    5.8763    1.0000 </r>
       <r>    6.3870    1.0000 </r>
       <r>    6.7920    1.0000 </r>
       <r>    7.2575    1.0282 </r>
       <r>    7.4768    0.4464 </r>
       <r>    8.2353   -0.0000 </r>
       <r>   11.9147   -0.0000 </r>
       <r>   15.6619    0.0000 </r>
       <r>   24.9431    0.0000 </r>
       <r>   27.6766    0.0000 </r>
       <r>   29.7960    0.0000 </r>
       <r>   31.4324    0.0000 </r>
       <r>   33.3686    0.0000 </r>
       <r>   34.4134    0.0000 </r>
       <r>   36.5547    0.0000 </r>
       <r>   37.6981    0.0000 </r>
       <r>   41.7558    0.0000 </r>
       <r>   42.1700    0.0000 </r>
       <r>   44.3467    0.0000 </r>
       <r>   46.6694    0.0000 </r>
       <r>   47.5915    0.0000 </r>
       <r>   50.0663    0.0000 </r>
       <r>   52.5438    0.0000 </r>
       <r>   54.9545    0.0000 </r>
       <r>   55.5476    0.0000 </r>
       <r>   57.1478    0.0000 </r>
       <r>   58.3230    0.0000 </r>
       <r>   58.4844    0.0000 </r>
       <r>   59.7042    0.0000 </r>
       <r>   60.4140    0.0000 </r>
       <r>   61.5346    0.0000 </r>
       <r>   63.5486    0.0000 </r>
       <r>   64.8970    0.0000 </r>
       <r>   66.2904    0.0000 </r>
       <r>   67.5874    0.0000 </r>
      </set>
      <set comment="kpoint 25">
       <r>    1.9361    1.0000 </r>
       <r>    3.3255    1.0000 </r>
       <r>    3.4918    1.0000 </r>
       <r>    4.7227    1.0000 </r>
       <r>    5.3741    1.0000 </r>
       <r>    5.7947    1.0000 </r>
       <r>    6.4447    1.0000 </r>
       <r>    6.9738    1.0014 </r>
       <r>    8.0611   -0.0001 </r>
       <r>    8.1468   -0.0000 </r>
       <r>    8.5664   -0.0000 </r>
       <r>   13.5643    0.0000 </r>
       <r>   16.5537    0.0000 </r>
       <r>   21.0819    0.0000 </r>
       <r>   25.8189    0.0000 </r>
       <r>   26.3554    0.0000 </r>
       <r>   29.7857    0.0000 </r>
       <r>   30.9438    0.0000 </r>
       <r>   35.0468    0.0000 </r>
       <r>   35.8762    0.0000 </r>
       <r>   37.2829    0.0000 </r>
       <r>   40.9857    0.0000 </r>
       <r>   41.7693    0.0000 </r>
       <r>   45.0373    0.0000 </r>
       <r>   48.3559    0.0000 </r>
       <r>   49.8210    0.0000 </r>
       <r>   52.0271    0.0000 </r>
       <r>   53.5877    0.0000 </r>
       <r>   55.1180    0.0000 </r>
       <r>   56.3354    0.0000 </r>
       <r>   57.7418    0.0000 </r>
       <r>   60.1683    0.0000 </r>
       <r>   60.6617    0.0000 </r>
       <r>   61.7559    0.0000 </r>
       <r>   62.7339    0.0000 </r>
       <r>   64.0858    0.0000 </r>
       <r>   65.1150    0.0000 </r>
       <r>   66.2233    0.0000 </r>
       <r>   67.1042    0.0000 </r>
       <r>   67.6796    0.0000 </r>
      </set>
      <set comment="kpoint 26">
       <r>    2.6175    1.0000 </r>
       <r>    2.9521    1.0000 </r>
       <r>    3.2963    1.0000 </r>
       <r>    4.8108    1.0000 </r>
       <r>    5.7634    1.0000 </r>
       <r>    5.8950    1.0000 </r>
       <r>    6.2104    1.0000 </r>
       <r>    8.0057   -0.0004 </r>
       <r>    8.1151   -0.0000 </r>
       <r>    8.6299   -0.0000 </r>
       <r>    9.8194   -0.0000 </r>
       <r>   14.4046    0.0000 </r>
       <r>   17.2801    0.0000 </r>
       <r>   19.3774    0.0000 </r>
       <r>   23.0989    0.0000 </r>
       <r>   24.6291    0.0000 </r>
       <r>   26.5607    0.0000 </r>
       <r>   30.0284    0.0000 </r>
       <r>   34.6093    0.0000 </r>
       <r>   36.0706    0.0000 </r>
       <r>   37.8048    0.0000 </r>
       <r>   40.3504    0.0000 </r>
       <r>   42.7891    0.0000 </r>
       <r>   43.9826    0.0000 </r>
       <r>   47.8929    0.0000 </r>
       <r>   50.8845    0.0000 </r>
       <r>   52.7391    0.0000 </r>
       <r>   55.0180    0.0000 </r>
       <r>   56.8634    0.0000 </r>
       <r>   58.0322    0.0000 </r>
       <r>   59.6749    0.0000 </r>
       <r>   61.1492    0.0000 </r>
       <r>   61.8613    0.0000 </r>
       <r>   63.6680    0.0000 </r>
       <r>   65.0645    0.0000 </r>
       <r>   65.4105    0.0000 </r>
       <r>   66.1336    0.0000 </r>
       <r>   66.8272    0.0000 </r>
       <r>   67.8319    0.0000 </r>
       <r>   69.4428    0.0000 </r>
      </set>
      <set comment="kpoint 27">
       <r>    2.7029    1.0000 </r>
       <r>    2.7729    1.0000 </r>
       <r>    3.2783    1.0000 </r>
       <r>    4.8608    1.0000 </r>
       <r>    5.8274    1.0000 </r>
       <r>    6.1614    1.0000 </r>
       <r>    6.1708    1.0000 </r>
       <r>    8.0996   -0.0000 </r>
       <r>    8.6373   -0.0000 </r>
       <r>    8.6715   -0.0000 </r>
       <r>   11.0473   -0.0000 </r>
       <r>   13.2657    0.0000 </r>
       <r>   18.3470    0.0000 </r>
       <r>   19.3586    0.0000 </r>
       <r>   22.0954    0.0000 </r>
       <r>   23.4940    0.0000 </r>
       <r>   25.1142    0.0000 </r>
       <r>   29.7107    0.0000 </r>
       <r>   34.2096    0.0000 </r>
       <r>   36.0591    0.0000 </r>
       <r>   38.6845    0.0000 </r>
       <r>   39.9319    0.0000 </r>
       <r>   42.8275    0.0000 </r>
       <r>   44.7856    0.0000 </r>
       <r>   45.9471    0.0000 </r>
       <r>   51.1886    0.0000 </r>
       <r>   53.1996    0.0000 </r>
       <r>   55.4573    0.0000 </r>
       <r>   58.9779    0.0000 </r>
       <r>   59.0765    0.0000 </r>
       <r>   61.5467    0.0000 </r>
       <r>   61.7174    0.0000 </r>
       <r>   61.8466    0.0000 </r>
       <r>   63.2005    0.0000 </r>
       <r>   63.5121    0.0000 </r>
       <r>   67.1140    0.0000 </r>
       <r>   67.3758    0.0000 </r>
       <r>   67.9196    0.0000 </r>
       <r>   68.1602    0.0000 </r>
       <r>   68.8054    0.0000 </r>
      </set>
      <set comment="kpoint 28">
       <r>    1.8816    1.0000 </r>
       <r>    3.5313    1.0000 </r>
       <r>    4.0382    1.0000 </r>
       <r>    4.1867    1.0000 </r>
       <r>    5.3527    1.0000 </r>
       <r>    5.5893    1.0000 </r>
       <r>    6.4394    1.0000 </r>
       <r>    6.5240    1.0000 </r>
       <r>    8.0178   -0.0003 </r>
       <r>    8.0558   -0.0001 </r>
       <r>    8.6505   -0.0000 </r>
       <r>   13.4495    0.0000 </r>
       <r>   16.5465    0.0000 </r>
       <r>   22.8972    0.0000 </r>
       <r>   23.7396    0.0000 </r>
       <r>   27.8731    0.0000 </r>
       <r>   29.2153    0.0000 </r>
       <r>   32.3956    0.0000 </r>
       <r>   32.5867    0.0000 </r>
       <r>   35.3146    0.0000 </r>
       <r>   39.3818    0.0000 </r>
       <r>   43.3738    0.0000 </r>
       <r>   43.7723    0.0000 </r>
       <r>   45.3072    0.0000 </r>
       <r>   45.9293    0.0000 </r>
       <r>   49.1030    0.0000 </r>
       <r>   49.2202    0.0000 </r>
       <r>   53.4732    0.0000 </r>
       <r>   54.2702    0.0000 </r>
       <r>   56.2711    0.0000 </r>
       <r>   57.7098    0.0000 </r>
       <r>   60.5425    0.0000 </r>
       <r>   60.8268    0.0000 </r>
       <r>   62.6931    0.0000 </r>
       <r>   62.7746    0.0000 </r>
       <r>   64.3927    0.0000 </r>
       <r>   64.6256    0.0000 </r>
       <r>   65.7252    0.0000 </r>
       <r>   66.8387    0.0000 </r>
       <r>   66.9232    0.0000 </r>
      </set>
      <set comment="kpoint 29">
       <r>    3.0133    1.0000 </r>
       <r>    3.3494    1.0000 </r>
       <r>    3.6697    1.0000 </r>
       <r>    4.4460    1.0000 </r>
       <r>    5.3725    1.0000 </r>
       <r>    5.6808    1.0000 </r>
       <r>    6.1141    1.0000 </r>
       <r>    7.0144    1.0033 </r>
       <r>    7.8878   -0.0054 </r>
       <r>    8.5476   -0.0000 </r>
       <r>   10.0436   -0.0000 </r>
       <r>   15.1027    0.0000 </r>
       <r>   17.8205    0.0000 </r>
       <r>   19.8339    0.0000 </r>
       <r>   22.0245    0.0000 </r>
       <r>   25.0745    0.0000 </r>
       <r>   27.5993    0.0000 </r>
       <r>   28.7446    0.0000 </r>
       <r>   31.6361    0.0000 </r>
       <r>   36.9057    0.0000 </r>
       <r>   40.1529    0.0000 </r>
       <r>   43.0554    0.0000 </r>
       <r>   44.3605    0.0000 </r>
       <r>   46.9036    0.0000 </r>
       <r>   47.1812    0.0000 </r>
       <r>   48.4827    0.0000 </r>
       <r>   51.5695    0.0000 </r>
       <r>   51.7129    0.0000 </r>
       <r>   54.4947    0.0000 </r>
       <r>   56.8313    0.0000 </r>
       <r>   59.0277    0.0000 </r>
       <r>   61.4696    0.0000 </r>
       <r>   62.3203    0.0000 </r>
       <r>   63.9667    0.0000 </r>
       <r>   65.4358    0.0000 </r>
       <r>   65.6713    0.0000 </r>
       <r>   66.1868    0.0000 </r>
       <r>   67.4674    0.0000 </r>
       <r>   68.1087    0.0000 </r>
       <r>   68.9084    0.0000 </r>
      </set>
      <set comment="kpoint 30">
       <r>    3.0903    1.0000 </r>
       <r>    3.3458    1.0000 </r>
       <r>    3.6555    1.0000 </r>
       <r>    4.7463    1.0000 </r>
       <r>    5.5117    1.0000 </r>
       <r>    5.6140    1.0000 </r>
       <r>    6.1354    1.0000 </r>
       <r>    7.7962   -0.0203 </r>
       <r>    7.8088   -0.0175 </r>
       <r>    8.4898   -0.0000 </r>
       <r>   11.7505   -0.0000 </r>
       <r>   14.7715    0.0000 </r>
       <r>   18.4689    0.0000 </r>
       <r>   20.1703    0.0000 </r>
       <r>   20.9271    0.0000 </r>
       <r>   22.7759    0.0000 </r>
       <r>   25.6188    0.0000 </r>
       <r>   26.9773    0.0000 </r>
       <r>   31.0513    0.0000 </r>
       <r>   38.4141    0.0000 </r>
       <r>   40.4521    0.0000 </r>
       <r>   42.1313    0.0000 </r>
       <r>   44.6640    0.0000 </r>
       <r>   45.9167    0.0000 </r>
       <r>   48.4707    0.0000 </r>
       <r>   48.7456    0.0000 </r>
       <r>   52.1152    0.0000 </r>
       <r>   53.3980    0.0000 </r>
       <r>   56.6102    0.0000 </r>
       <r>   57.4466    0.0000 </r>
       <r>   58.7597    0.0000 </r>
       <r>   61.2671    0.0000 </r>
       <r>   61.7676    0.0000 </r>
       <r>   62.8046    0.0000 </r>
       <r>   65.8890    0.0000 </r>
       <r>   66.8009    0.0000 </r>
       <r>   67.8130    0.0000 </r>
       <r>   68.2533    0.0000 </r>
       <r>   68.3608    0.0000 </r>
       <r>   69.4076    0.0000 </r>
      </set>
      <set comment="kpoint 31">
       <r>    3.3674    1.0000 </r>
       <r>    3.8335    1.0000 </r>
       <r>    4.0892    1.0000 </r>
       <r>    4.2251    1.0000 </r>
       <r>    5.2360    1.0000 </r>
       <r>    5.5244    1.0000 </r>
       <r>    6.0509    1.0000 </r>
       <r>    7.3126    0.9784 </r>
       <r>    7.6553   -0.0199 </r>
       <r>    8.4489   -0.0000 </r>
       <r>   11.9347   -0.0000 </r>
       <r>   16.5831    0.0000 </r>
       <r>   17.8432    0.0000 </r>
       <r>   19.0693    0.0000 </r>
       <r>   20.8348    0.0000 </r>
       <r>   24.4140    0.0000 </r>
       <r>   24.4329    0.0000 </r>
       <r>   27.6084    0.0000 </r>
       <r>   28.3463    0.0000 </r>
       <r>   38.6208    0.0000 </r>
       <r>   41.9615    0.0000 </r>
       <r>   44.8622    0.0000 </r>
       <r>   44.9493    0.0000 </r>
       <r>   47.5257    0.0000 </r>
       <r>   47.7675    0.0000 </r>
       <r>   48.5083    0.0000 </r>
       <r>   51.2034    0.0000 </r>
       <r>   52.7293    0.0000 </r>
       <r>   53.0526    0.0000 </r>
       <r>   58.0185    0.0000 </r>
       <r>   58.0437    0.0000 </r>
       <r>   60.3993    0.0000 </r>
       <r>   61.7359    0.0000 </r>
       <r>   62.8667    0.0000 </r>
       <r>   66.4906    0.0000 </r>
       <r>   67.3520    0.0000 </r>
       <r>   67.4375    0.0000 </r>
       <r>   68.5248    0.0000 </r>
       <r>   68.5691    0.0000 </r>
       <r>   69.9801    0.0000 </r>
      </set>
      <set comment="kpoint 32">
       <r>    3.4450    1.0000 </r>
       <r>    3.9470    1.0000 </r>
       <r>    4.0774    1.0000 </r>
       <r>    4.5008    1.0000 </r>
       <r>    5.2204    1.0000 </r>
       <r>    5.2659    1.0000 </r>
       <r>    6.1834    1.0000 </r>
       <r>    7.5649    0.1278 </r>
       <r>    7.7251   -0.0346 </r>
       <r>    8.0733   -0.0001 </r>
       <r>   13.8153    0.0000 </r>
       <r>   15.1153    0.0000 </r>
       <r>   17.3788    0.0000 </r>
       <r>   20.7636    0.0000 </r>
       <r>   20.7928    0.0000 </r>
       <r>   22.9837    0.0000 </r>
       <r>   24.3993    0.0000 </r>
       <r>   25.6432    0.0000 </r>
       <r>   27.7950    0.0000 </r>
       <r>   39.5290    0.0000 </r>
       <r>   42.4383    0.0000 </r>
       <r>   44.5540    0.0000 </r>
       <r>   45.0375    0.0000 </r>
       <r>   47.2079    0.0000 </r>
       <r>   48.1183    0.0000 </r>
       <r>   49.9357    0.0000 </r>
       <r>   52.0450    0.0000 </r>
       <r>   53.4669    0.0000 </r>
       <r>   53.6245    0.0000 </r>
       <r>   56.4994    0.0000 </r>
       <r>   57.6353    0.0000 </r>
       <r>   58.7176    0.0000 </r>
       <r>   61.4902    0.0000 </r>
       <r>   61.7732    0.0000 </r>
       <r>   66.3244    0.0000 </r>
       <r>   67.6443    0.0000 </r>
       <r>   68.1219    0.0000 </r>
       <r>   68.5886    0.0000 </r>
       <r>   69.4588    0.0000 </r>
       <r>   70.3381    0.0000 </r>
      </set>
      <set comment="kpoint 33">
       <r>   -1.4067    1.0000 </r>
       <r>    1.9580    1.0000 </r>
       <r>    4.7746    1.0000 </r>
       <r>    5.6255    1.0000 </r>
       <r>    5.7618    1.0000 </r>
       <r>    5.7619    1.0000 </r>
       <r>    6.0032    1.0000 </r>
       <r>    6.0033    1.0000 </r>
       <r>    7.4127    0.7097 </r>
       <r>    7.4128    0.7096 </r>
       <r>    8.2235   -0.0000 </r>
       <r>    8.2235   -0.0000 </r>
       <r>   15.9524    0.0000 </r>
[...]
       <r>   23.0571    0.0000 </r>
       <r>   23.7702    0.0000 </r>
       <r>   27.2953    0.0000 </r>
       <r>   28.3664    0.0000 </r>
       <r>   33.2186    0.0000 </r>
       <r>   34.2621    0.0000 </r>
       <r>   36.8844    0.0000 </r>
       <r>   38.4391    0.0000 </r>
       <r>   44.0014    0.0000 </r>
       <r>   44.4123    0.0000 </r>
       <r>   53.3715    0.0000 </r>
       <r>   54.2727    0.0000 </r>
       <r>   54.6409    0.0000 </r>
       <r>   55.5629    0.0000 </r>
       <r>   57.4189    0.0000 </r>
       <r>   58.8623    0.0000 </r>
       <r>   58.9292    0.0000 </r>
       <r>   59.6216    0.0000 </r>
       <r>   61.3789    0.0000 </r>
       <r>   61.9922    0.0000 </r>
       <r>   64.0801    0.0000 </r>
       <r>   64.7922    0.0000 </r>
       <r>   66.7657    0.0000 </r>
       <r>   66.9250    0.0000 </r>
       <r>   67.7352    0.0000 </r>
       <r>   68.2341    0.0000 </r>
      </set>
      <set comment="kpoint 95">
       <r>    3.3916    1.0000 </r>
       <r>    3.4618    1.0000 </r>
       <r>    4.3868    1.0000 </r>
       <r>    4.5985    1.0000 </r>
       <r>    5.0645    1.0000 </r>
       <r>    5.2647    1.0000 </r>
       <r>    6.4670    1.0000 </r>
       <r>    6.6647    1.0000 </r>
       <r>    8.2567   -0.0000 </r>
       <r>    8.4618   -0.0000 </r>
       <r>   12.7924   -0.0000 </r>
       <r>   13.2957    0.0000 </r>
       <r>   19.2711    0.0000 </r>
       <r>   19.6915    0.0000 </r>
       <r>   21.1061    0.0000 </r>
       <r>   21.5075    0.0000 </r>
       <r>   27.4888    0.0000 </r>
       <r>   29.0319    0.0000 </r>
       <r>   33.3146    0.0000 </r>
       <r>   34.6438    0.0000 </r>
       <r>   36.4868    0.0000 </r>
       <r>   37.5680    0.0000 </r>
       <r>   46.6299    0.0000 </r>
       <r>   47.0765    0.0000 </r>
       <r>   50.8727    0.0000 </r>
       <r>   50.9424    0.0000 </r>
       <r>   55.4784    0.0000 </r>
       <r>   57.6189    0.0000 </r>
       <r>   57.6435    0.0000 </r>
       <r>   58.4938    0.0000 </r>
       <r>   60.2331    0.0000 </r>
       <r>   60.3312    0.0000 </r>
       <r>   60.6179    0.0000 </r>
       <r>   60.7767    0.0000 </r>
       <r>   62.6348    0.0000 </r>
       <r>   63.0922    0.0000 </r>
       <r>   66.4706    0.0000 </r>
       <r>   66.8046    0.0000 </r>
       <r>   67.7576    0.0000 </r>
       <r>   67.8054    0.0000 </r>
      </set>
      <set comment="kpoint 96">
       <r>    3.6187    1.0000 </r>
       <r>    3.7510    1.0000 </r>
       <r>    4.3460    1.0000 </r>
       <r>    4.4518    1.0000 </r>
       <r>    5.0260    1.0000 </r>
       <r>    5.1747    1.0000 </r>
       <r>    6.5005    1.0000 </r>
       <r>    6.6468    1.0000 </r>
       <r>    8.2443   -0.0000 </r>
       <r>    8.3167   -0.0000 </r>
       <r>   14.7024    0.0000 </r>
       <r>   14.8538    0.0000 </r>
       <r>   17.5007    0.0000 </r>
       <r>   17.8242    0.0000 </r>
       <r>   20.4455    0.0000 </r>
       <r>   20.8797    0.0000 </r>
       <r>   29.2546    0.0000 </r>
       <r>   29.9733    0.0000 </r>
       <r>   32.2837    0.0000 </r>
       <r>   32.5647    0.0000 </r>
       <r>   36.1728    0.0000 </r>
       <r>   36.9759    0.0000 </r>
       <r>   47.8198    0.0000 </r>
       <r>   48.4510    0.0000 </r>
       <r>   52.6334    0.0000 </r>
       <r>   53.1217    0.0000 </r>
       <r>   55.1783    0.0000 </r>
       <r>   55.6459    0.0000 </r>
       <r>   57.4413    0.0000 </r>
       <r>   57.7148    0.0000 </r>
       <r>   59.7433    0.0000 </r>
       <r>   60.3920    0.0000 </r>
       <r>   60.4451    0.0000 </r>
       <r>   60.9883    0.0000 </r>
       <r>   62.6193    0.0000 </r>
       <r>   63.7465    0.0000 </r>
       <r>   65.2989    0.0000 </r>
       <r>   65.3790    0.0000 </r>
       <r>   69.0534    0.0000 </r>
       <r>   69.2297    0.0000 </r>
      </set>
     </set>
    </set>
   </array>
  </eigenvalues>
  <separator name="orbital magnetization" >
   <v name="MAGDIPOLOUT">      0.00000000      0.00000000      0.00000000</v>
  </separator>
  <dos>
   <i name="efermi">      7.46412832 </i>
   <total>
    <array>
     <dimension dim="1">gridpoints</dimension>
     <dimension dim="2">spin</dimension>
     <field>energy</field>
     <field>total</field>
     <field>integrated</field>
     <set>
      <set comment="spin 1">
       <r>    -5.3414     0.0000     0.0000 </r>
       <r>    -5.0756     0.0000     0.0000 </r>
       <r>    -4.8097     0.0000     0.0000 </r>
       <r>    -4.5439     0.0000     0.0000 </r>
       <r>    -4.2781     0.0000     0.0000 </r>
       <r>    -4.0123     0.0000     0.0000 </r>
       <r>    -3.7464     0.0000     0.0000 </r>
       <r>    -3.4806    -0.0000    -0.0000 </r>
       <r>    -3.2148    -0.0000    -0.0000 </r>
       <r>    -2.9489    -0.0000    -0.0000 </r>
       <r>    -2.6831    -0.0000    -0.0000 </r>
       <r>    -2.4173    -0.0000    -0.0000 </r>
       <r>    -2.1514    -0.0000    -0.0000 </r>
       <r>    -1.8856    -0.0004    -0.0001 </r>
       <r>    -1.6198     0.0089     0.0023 </r>
       <r>    -1.3539     0.0491     0.0153 </r>
       <r>    -1.0881     0.1039     0.0429 </r>
       <r>    -0.8223     0.0540     0.0573 </r>
       <r>    -0.5564     0.1429     0.0953 </r>
       <r>    -0.2906     0.1697     0.1404 </r>
       <r>    -0.0248     0.2009     0.1938 </r>
       <r>     0.2411     0.0878     0.2171 </r>
       <r>     0.5069     0.2008     0.2705 </r>
       <r>     0.7727     0.3044     0.3514 </r>
       <r>     1.0386     0.3090     0.4336 </r>
       <r>     1.3044     0.3051     0.5147 </r>
       <r>     1.5702     0.2676     0.5858 </r>
       <r>     1.8361     0.3221     0.6714 </r>
       <r>     2.1019     0.8512     0.8977 </r>
       <r>     2.3677     1.3928     1.2680 </r>
       <r>     2.6336     1.8083     1.7487 </r>
       <r>     2.8994     2.2986     2.3597 </r>
       <r>     3.1652     2.5375     3.0343 </r>
       <r>     3.4311     2.6620     3.7419 </r>
       <r>     3.6969     2.3567     4.3684 </r>
       <r>     3.9627     2.7420     5.0973 </r>
       <r>     4.2286     2.9379     5.8783 </r>
       <r>     4.4944     3.3185     6.7605 </r>
       <r>     4.7602     2.5526     7.4390 </r>
       <r>     5.0261     2.1729     8.0166 </r>
       <r>     5.2919     2.8592     8.7767 </r>
       <r>     5.5577     3.7534     9.7745 </r>
       <r>     5.8236     3.4159    10.6825 </r>
       <r>     6.0894     3.4575    11.6017 </r>
       <r>     6.3552     2.8323    12.3546 </r>
       <r>     6.6211     3.3413    13.2428 </r>
       <r>     6.8869     3.3974    14.1460 </r>
       <r>     7.1527     3.2989    15.0229 </r>
       <r>     7.4185     3.1679    15.8650 </r>
       <r>     7.6844     2.9984    16.6621 </r>
       <r>     7.9502     3.7143    17.6495 </r>
       <r>     8.2160     4.5377    18.8558 </r>
       <r>     8.4819     3.9107    19.8954 </r>
       <r>     8.7477     3.7516    20.8927 </r>
       <r>     9.0135     1.2963    21.2373 </r>
       <r>     9.2794     0.3739    21.3367 </r>
       <r>     9.5452     0.4443    21.4548 </r>
       <r>     9.8110     0.5130    21.5911 </r>
       <r>    10.0769     0.8317    21.8122 </r>
       <r>    10.3427     0.8247    22.0315 </r>
       <r>    10.6085     0.3585    22.1268 </r>
       <r>    10.8744     0.3512    22.2201 </r>
       <r>    11.1402     0.5386    22.3633 </r>
       <r>    11.4060     0.3753    22.4631 </r>
       <r>    11.6719     0.2551    22.5309 </r>
       <r>    11.9377     0.6748    22.7103 </r>
       <r>    12.2035     0.5206    22.8487 </r>
       <r>    12.4694     0.5545    22.9961 </r>
       <r>    12.7352     0.4090    23.1048 </r>
       <r>    13.0010     0.2838    23.1803 </r>
       <r>    13.2669     0.1865    23.2298 </r>
       <r>    13.5327     0.5002    23.3628 </r>
       <r>    13.7985     0.2475    23.4286 </r>
       <r>    14.0644     0.4294    23.5427 </r>
       <r>    14.3302     0.1437    23.5809 </r>
       <r>    14.5960     0.3569    23.6758 </r>
       <r>    14.8619     0.4471    23.7946 </r>
       <r>    15.1277     0.6685    23.9723 </r>
       <r>    15.3935     0.3303    24.0602 </r>
       <r>    15.6594     0.1832    24.1089 </r>
       <r>    15.9252     0.1753    24.1555 </r>
       <r>    16.1910     0.0806    24.1769 </r>
       <r>    16.4569     0.1838    24.2258 </r>
       <r>    16.7227     0.3968    24.3312 </r>
       <r>    16.9885     0.1354    24.3672 </r>
       <r>    17.2544     0.2295    24.4282 </r>
       <r>    17.5202     0.5803    24.5825 </r>
       <r>    17.7860     0.7009    24.7688 </r>
       <r>    18.0519     1.0688    25.0529 </r>
       <r>    18.3177     0.7912    25.2633 </r>
       <r>    18.5835     0.5499    25.4094 </r>
       <r>    18.8493     0.4304    25.5239 </r>
       <r>    19.1152     0.7021    25.7105 </r>
       <r>    19.3810     0.6410    25.8809 </r>
       <r>    19.6468     0.5850    26.0364 </r>
       <r>    19.9127     1.1055    26.3303 </r>
       <r>    20.1785     0.6201    26.4951 </r>
       <r>    20.4443     0.6443    26.6664 </r>
       <r>    20.7102     0.3041    26.7472 </r>
       <r>    20.9760     0.7069    26.9352 </r>
       <r>    21.2418     0.7469    27.1337 </r>
       <r>    21.5077     0.7456    27.3319 </r>
       <r>    21.7735     0.4617    27.4547 </r>
       <r>    22.0393     0.4393    27.5714 </r>
       <r>    22.3052     0.7085    27.7598 </r>
       <r>    22.5710     0.5338    27.9017 </r>
       <r>    22.8368     0.6485    28.0741 </r>
       <r>    23.1027     0.7922    28.2847 </r>
       <r>    23.3685     0.5857    28.4404 </r>
       <r>    23.6343     0.6112    28.6028 </r>
       <r>    23.9002     0.5778    28.7564 </r>
       <r>    24.1660     0.5742    28.9091 </r>
       <r>    24.4318     1.0557    29.1897 </r>
       <r>    24.6977     1.0829    29.4776 </r>
       <r>    24.9635     0.6819    29.6589 </r>
       <r>    25.2293     0.6978    29.8443 </r>
       <r>    25.4952     1.0108    30.1131 </r>
       <r>    25.7610     0.9484    30.3652 </r>
       <r>    26.0268     0.6773    30.5452 </r>
       <r>    26.2927     0.8598    30.7738 </r>
       <r>    26.5585     1.0913    31.0639 </r>
       <r>    26.8243     0.8291    31.2843 </r>
       <r>    27.0902     0.7505    31.4838 </r>
       <r>    27.3560     0.9351    31.7324 </r>
       <r>    27.6218     1.3104    32.0807 </r>
       <r>    27.8877     1.2948    32.4249 </r>
       <r>    28.1535     0.6662    32.6020 </r>
       <r>    28.4193     0.6169    32.7660 </r>
       <r>    28.6852     0.7822    32.9739 </r>
       <r>    28.9510     0.8321    33.1951 </r>
       <r>    29.2168     0.7581    33.3967 </r>
       <r>    29.4827     0.7562    33.5977 </r>
       <r>    29.7485     0.8622    33.8269 </r>
       <r>    30.0143     0.8247    34.0461 </r>
       <r>    30.2801     1.1738    34.3581 </r>
       <r>    30.5460     0.4966    34.4902 </r>
       <r>    30.8118     0.3395    34.5804 </r>
       <r>    31.0776     0.7303    34.7746 </r>
       <r>    31.3435     0.5170    34.9120 </r>
       <r>    31.6093     0.7162    35.1024 </r>
       <r>    31.8751     0.7340    35.2975 </r>
       <r>    32.1410     0.7674    35.5015 </r>
       <r>    32.4068     0.7378    35.6976 </r>
       <r>    32.6726     0.6422    35.8684 </r>
       <r>    32.9385     0.7940    36.0794 </r>
       <r>    33.2043     0.6880    36.2623 </r>
       <r>    33.4701     1.2368    36.5911 </r>
       <r>    33.7360     0.6212    36.7562 </r>
       <r>    34.0018     0.5284    36.8967 </r>
       <r>    34.2676     0.7758    37.1029 </r>
       <r>    34.5335     0.7479    37.3017 </r>
       <r>    34.7993     0.4862    37.4310 </r>
       <r>    35.0651     1.0554    37.7115 </r>
       <r>    35.3310     1.3170    38.0616 </r>
       <r>    35.5968     0.5112    38.1975 </r>
       <r>    35.8626     0.6117    38.3601 </r>
       <r>    36.1285     1.0318    38.6344 </r>
       <r>    36.3943     1.1423    38.9381 </r>
       <r>    36.6601     0.9603    39.1934 </r>
       <r>    36.9260     1.0954    39.4846 </r>
       <r>    37.1918     0.9836    39.7460 </r>
       <r>    37.4576     1.0146    40.0157 </r>
       <r>    37.7235     1.3458    40.3735 </r>
       <r>    37.9893     1.1848    40.6885 </r>
       <r>    38.2551     0.6242    40.8544 </r>
       <r>    38.5210     0.9769    41.1141 </r>
       <r>    38.7868     0.9949    41.3786 </r>
       <r>    39.0526     0.4650    41.5022 </r>
       <r>    39.3185     0.6968    41.6874 </r>
       <r>    39.5843     0.8040    41.9011 </r>
       <r>    39.8501     0.4148    42.0114 </r>
       <r>    40.1160     0.5002    42.1444 </r>
       <r>    40.3818     0.8528    42.3711 </r>
       <r>    40.6476     1.1073    42.6655 </r>
       <r>    40.9135     0.9288    42.9124 </r>
       <r>    41.1793     0.7941    43.1235 </r>
       <r>    41.4451     0.5680    43.2745 </r>
       <r>    41.7109     0.7781    43.4813 </r>
       <r>    41.9768     0.7014    43.6678 </r>
       <r>    42.2426     0.8510    43.8940 </r>
       <r>    42.5084     0.6243    44.0599 </r>
       <r>    42.7743     0.8579    44.2880 </r>
       <r>    43.0401     1.2374    44.6169 </r>
       <r>    43.3059     1.1016    44.9098 </r>
       <r>    43.5718     1.1938    45.2271 </r>
       <r>    43.8376     0.8341    45.4489 </r>
       <r>    44.1034     1.3792    45.8155 </r>
       <r>    44.3693     0.7621    46.0181 </r>
       <r>    44.6351     1.2370    46.3469 </r>
       <r>    44.9009     1.2512    46.6795 </r>
       <r>    45.1668     1.0378    46.9554 </r>
       <r>    45.4326     0.8290    47.1758 </r>
       <r>    45.6984     0.9577    47.4304 </r>
       <r>    45.9643     1.2573    47.7646 </r>
       <r>    46.2301     1.0435    48.0420 </r>
       <r>    46.4959     0.7227    48.2341 </r>
       <r>    46.7618     0.6630    48.4104 </r>
       <r>    47.0276     0.8850    48.6456 </r>
       <r>    47.2934     1.0795    48.9326 </r>
       <r>    47.5593     1.0556    49.2132 </r>
       <r>    47.8251     1.1164    49.5100 </r>
       <r>    48.0909     0.8882    49.7461 </r>
       <r>    48.3568     0.6997    49.9321 </r>
       <r>    48.6226     1.3779    50.2984 </r>
       <r>    48.8884     1.2064    50.6191 </r>
       <r>    49.1543     0.4892    50.7491 </r>
       <r>    49.4201     0.7204    50.9406 </r>
       <r>    49.6859     1.1527    51.2470 </r>
       <r>    49.9518     1.1923    51.5640 </r>
       <r>    50.2176     0.8508    51.7902 </r>
       <r>    50.4834     0.8574    52.0181 </r>
       <r>    50.7493     0.6893    52.2013 </r>
       <r>    51.0151     0.8811    52.4356 </r>
       <r>    51.2809     1.2522    52.7684 </r>
       <r>    51.5468     0.9633    53.0245 </r>
       <r>    51.8126     1.3174    53.3747 </r>
       <r>    52.0784     1.4432    53.7584 </r>
       <r>    52.3443     1.3330    54.1127 </r>
       <r>    52.6101     1.0601    54.3945 </r>
       <r>    52.8759     1.1061    54.6886 </r>
       <r>    53.1417     1.2189    55.0126 </r>
       <r>    53.4076     1.1764    55.3253 </r>
       <r>    53.6734     0.9920    55.5890 </r>
       <r>    53.9392     0.9100    55.8310 </r>
       <r>    54.2051     0.9156    56.0743 </r>
       <r>    54.4709     0.9055    56.3151 </r>
       <r>    54.7367     1.0659    56.5984 </r>
       <r>    55.0026     1.1928    56.9155 </r>
       <r>    55.2684     1.2638    57.2514 </r>
       <r>    55.5342     1.1995    57.5703 </r>
       <r>    55.8001     1.3013    57.9162 </r>
       <r>    56.0659     1.0333    58.1909 </r>
       <r>    56.3317     1.6020    58.6168 </r>
       <r>    56.5976     1.2889    58.9594 </r>
       <r>    56.8634     1.4559    59.3464 </r>
       <r>    57.1292     1.6546    59.7863 </r>
       <r>    57.3951     0.8256    60.0058 </r>
       <r>    57.6609     1.3144    60.3552 </r>
       <r>    57.9267     1.2112    60.6772 </r>
       <r>    58.1926     1.2784    61.0170 </r>
       <r>    58.4584     1.7813    61.4905 </r>
       <r>    58.7242     1.3938    61.8611 </r>
       <r>    58.9901     1.6936    62.3113 </r>
       <r>    59.2559     1.4042    62.6845 </r>
       <r>    59.5217     1.4348    63.0660 </r>
       <r>    59.7876     1.6543    63.5057 </r>
       <r>    60.0534     1.4780    63.8986 </r>
       <r>    60.3192     1.5939    64.3223 </r>
       <r>    60.5851     2.1218    64.8864 </r>
       <r>    60.8509     2.0461    65.4303 </r>
       <r>    61.1167     1.9431    65.9469 </r>
       <r>    61.3826     1.8436    66.4369 </r>
       <r>    61.6484     1.9363    66.9517 </r>
       <r>    61.9142     2.4494    67.6028 </r>
       <r>    62.1801     1.8362    68.0909 </r>
       <r>    62.4459     1.8438    68.5811 </r>
       <r>    62.7117     1.4265    68.9603 </r>
       <r>    62.9776     1.2501    69.2926 </r>
       <r>    63.2434     1.9260    69.8046 </r>
       <r>    63.5092     1.2524    70.1375 </r>
       <r>    63.7751     1.7721    70.6086 </r>
       <r>    64.0409     1.5602    71.0233 </r>
       <r>    64.3067     1.7556    71.4900 </r>
       <r>    64.5725     1.5063    71.8904 </r>
       <r>    64.8384     1.6297    72.3237 </r>
       <r>    65.1042     1.4481    72.7086 </r>
       <r>    65.3700     1.1999    73.0276 </r>
       <r>    65.6359     1.5241    73.4327 </r>
       <r>    65.9017     1.9308    73.9460 </r>
       <r>    66.1675     1.5988    74.3710 </r>
       <r>    66.4334     2.0781    74.9234 </r>
       <r>    66.6992     1.6762    75.3690 </r>
       <r>    66.9650     1.6249    75.8009 </r>
       <r>    67.2309     2.1362    76.3688 </r>
       <r>    67.4967     1.5835    76.7898 </r>
       <r>    67.7625     1.5256    77.1953 </r>
       <r>    68.0284     1.5262    77.6010 </r>
       <r>    68.2942     1.3784    77.9675 </r>
       <r>    68.5600     1.7059    78.4209 </r>
       <r>    68.8259     1.1095    78.7159 </r>
       <r>    69.0917     1.6273    79.1485 </r>
       <r>    69.3575     1.2129    79.4709 </r>
       <r>    69.6234     0.9949    79.7354 </r>
       <r>    69.8892     0.5115    79.8714 </r>
       <r>    70.1550     0.2173    79.9291 </r>
       <r>    70.4209     0.1745    79.9755 </r>
       <r>    70.6867     0.0664    79.9932 </r>
       <r>    70.9525     0.0258    80.0000 </r>
       <r>    71.2184    -0.0000    80.0000 </r>
       <r>    71.4842    -0.0001    80.0000 </r>
       <r>    71.7500    -0.0000    80.0000 </r>
       <r>    72.0159    -0.0000    80.0000 </r>
       <r>    72.2817     0.0000    80.0000 </r>
       <r>    72.5475     0.0000    80.0000 </r>
       <r>    72.8134     0.0000    80.0000 </r>
       <r>    73.0792     0.0000    80.0000 </r>
       <r>    73.3450     0.0000    80.0000 </r>
       <r>    73.6109     0.0000    80.0000 </r>
       <r>    73.8767     0.0000    80.0000 </r>
       <r>    74.1425     0.0000    80.0000 </r>
       <r>    74.4084     0.0000    80.0000 </r>
      </set>
     </set>
    </array>
   </total>
  </dos>
 </calculation>
 <structure name="finalpos" >
  <crystal>
   <varray name="basis" >
    <v>       2.30670000       0.00000000       0.00000000 </v>
    <v>      -1.15335000       1.99766080       0.00000000 </v>
    <v>       0.00000000       0.00000000       4.22136000 </v>
   </varray>
   <i name="volume">     19.45204446 </i>
   <varray name="rec_basis" >
    <v>       0.43351975       0.25029274       0.00000000 </v>
    <v>       0.00000000       0.50058549       0.00000000 </v>
    <v>       0.00000000       0.00000000       0.23689048 </v>
   </varray>
  </crystal>
  <varray name="positions" >
   <v>       0.00000000       0.00000000       0.00000000 </v>
   <v>       0.33333333       0.66666667       0.50000000 </v>
  </varray>
 </structure>
</modeling>
