 vasp.6.2.0 18Jan21 (build Mar 17 2021 09:06:54) complex                        
  
 POSCAR found type information on POSCAR Fe
 POSCAR found :  1 types and       2 ions
 LDA part: xc-table for Pade appr. of Perdew
 POSCAR, INCAR and KPOINTS ok, starting setup
 FFT: planning ...
 WAVECAR not read
 WARNING: chargedensity file is incomplete
 entering main loop
       N       E                     dE             d eps       ncg     rms          rms(c)
DAV:   1     0.610607709825E+02    0.61061E+02   -0.25785E+03  9352   0.327E+02
DAV:   2    -0.144028736684E+02   -0.75464E+02   -0.63958E+02  7888   0.965E+01
DAV:   3    -0.187390421771E+02   -0.43362E+01   -0.41340E+01  9592   0.241E+01
DAV:   4    -0.187566873813E+02   -0.17645E-01   -0.17635E-01  9112   0.160E+00
DAV:   5    -0.187567042814E+02   -0.16900E-04   -0.16899E-04  9344   0.474E-02    0.178E+01
DAV:   6    -0.160422002851E+02    0.27145E+01   -0.16903E+00 11232   0.236E+01    0.200E+00
DAV:   7    -0.158844581348E+02    0.15774E+00   -0.96418E-02 10024   0.468E+00    0.128E+00
DAV:   8    -0.158539541545E+02    0.30504E-01   -0.31284E-03 10200   0.376E-01    0.536E-01
DAV:   9    -0.158452139886E+02    0.87402E-02   -0.83898E-04 10760   0.155E-01    0.535E-02
DAV:  10    -0.158452501641E+02   -0.36175E-04   -0.32967E-05  8832   0.250E-02    0.270E-02
DAV:  11    -0.158452384820E+02    0.11682E-04   -0.53727E-07  8920   0.598E-03    0.205E-03
DAV:  12    -0.158452372868E+02    0.11952E-05   -0.54607E-08  6264   0.110E-03    0.116E-03
DAV:  13    -0.158452376313E+02   -0.34452E-06   -0.48919E-09  5464   0.344E-04
   1 F= -.15845238E+02 E0= -.15845852E+02  d E =0.184224E-02
 writing wavefunctions
