    4    4    1    1
  0.1260789E+02  0.3694601E-09  0.3694601E-09  0.3694601E-09  0.5000000E-15
  1.000000000000000E-004
  CAR 
 unknown system                          
     44     35     30
 
  0.0000000E+00  0.0000000E+00  0.0000000E+00  0.1371742E-02
    1       -2.064370   1.000000
    2        2.296307   1.000000
    3        2.296307   1.000000
    4        2.296307   1.000000
    5        2.712365   1.000000
    6        2.712365   1.000000
    7        2.712365   1.000000
    8        3.970922   1.000000
    9        3.970922   1.000000
   10        3.970922   1.000000
   11        4.717541   1.000000
   12        4.717541   1.000000
   13        5.214565   1.000000
   14        5.214565   1.000000
   15        5.214565   1.000000
   16        5.355916   1.000000
   17        5.355916   1.000000
   18        5.355916   1.000000
   19        5.355916   1.000000
   20        5.355916   1.000000
   21        5.355916   1.000000
   22        8.347780  -0.000000
   23        8.347780  -0.000000
   24        8.347780  -0.000000
   25       13.470984   0.000000
   26       13.470984   0.000000
   27       13.470984   0.000000
   28       19.383762   0.000000
   29       19.383762   0.000000
   30       19.383762   0.000000
 
  0.1111111E+00  0.0000000E+00  0.0000000E+00  0.8230453E-02
    1       -1.921246   1.000000
    2        2.290553   1.000000
    3        2.360586   1.000000
    4        2.360586   1.000000
    5        2.748642   1.000000
    6        2.750799   1.000000
    7        2.750799   1.000000
    8        3.931073   1.000000
    9        4.003108   1.000000
   10        4.003108   1.000000
   11        4.681509   1.000000
   12        4.732203   1.000000
   13        5.135438   1.000000
   14        5.135438   1.000000
   15        5.167982   1.000000
   16        5.167982   1.000000
   17        5.199310   1.000000
   18        5.300962   1.000000
   19        5.300962   1.000000
   20        5.356046   1.000000
   21        5.356046   1.000000
   22        7.497203  -0.000001
   23        8.698252  -0.000000
   24        8.698252  -0.000000
   25       13.527618   0.000000
   26       13.527618   0.000000
   27       14.612058   0.000000
   28       18.494810   0.000000
   29       18.494843   0.000000
   30       18.774277   0.000000
 
  0.2222222E+00  0.0000000E+00  0.0000000E+00  0.8230453E-02
    1       -1.497080   1.000000
    2        2.217809   1.000000
    3        2.536928   1.000000
    4        2.536928   1.000000
    5        2.853174   1.000000
    6        2.866845   1.000000
    7        2.866845   1.000000
    8        3.816998   1.000000
    9        4.098316   1.000000
   10        4.098316   1.000000
   11        4.581209   1.000000
   12        4.664404   1.000000
   13        4.664404   1.000000
   14        4.774542   1.000000
   15        5.036511   1.000000
   16        5.036511   1.000000
   17        5.148929   1.000000
   18        5.148929   1.000000
   19        5.155483   1.000000
   20        5.356280   1.000000
   21        5.356280   1.000000
   22        6.013475   1.000001
   23        9.557651  -0.000000
   24        9.557651  -0.000000
   25       13.706754   0.000000
   26       13.706754   0.000000
   27       16.851751   0.000000
   28       16.851751   0.000000
   29       17.011957   0.000000
   30       17.547318   0.000000
 
  0.3333333E+00  0.0000000E+00  0.0000000E+00  0.8230453E-02
    1       -0.810689   1.000000
    2        1.877442   1.000000
    3        2.769536   1.000000
    4        2.769536   1.000000
    5        3.015097   1.000000
    6        3.064039   1.000000
    7        3.064039   1.000000
    8        3.644321   1.000000
    9        4.162116   1.000000
   10        4.162116   1.000000
   11        4.252027   1.000000
   12        4.252027   1.000000
   13        4.441993   1.000000
   14        4.839750   1.000000
   15        4.850004   1.000000
   16        4.854319   1.000000
   17        4.854319   1.000000
   18        4.932215   1.000000
   19        4.932215   1.000000
   20        5.088138   1.000000
   21        5.356475   1.000000
   22        5.356475   1.000000
   23       10.702166  -0.000000
   24       10.702166  -0.000000
   25       14.034771   0.000000
   26       14.034771   0.000000
   27       15.147637   0.000000
   28       15.147637   0.000000
   29       16.326980   0.000000
   30       16.326980   0.000000
 
  0.4444444E+00  0.0000000E+00  0.0000000E+00  0.8230453E-02
    1        0.091242   1.000000
    2        1.085674   1.000000
    3        2.951222   1.000000
    4        2.951222   1.000000
    5        3.216901   1.000000
    6        3.346018   1.000000
    7        3.346018   1.000000
    8        3.435376   1.000000
    9        3.713794   1.000000
   10        3.713794   1.000000
   11        4.322767   1.000000
   12        4.359182   1.000000
   13        4.454241   1.000000
   14        4.454241   1.000000
   15        4.689389   1.000000
   16        4.689389   1.000000
   17        4.705237   1.000000
   18        4.705237   1.000000
   19        4.920199   1.000000
   20        5.006472   1.000000
   21        5.356608   1.000000
   22        5.356608   1.000000
   23       12.038676  -0.000000
   24       12.038676  -0.000000
   25       13.529154   0.000000
   26       13.529154   0.000000
   27       14.545573   0.000000
   28       14.545573   0.000000
   29       15.328359   0.000000
   30       15.328359   0.000000
 
  0.1111111E+00  0.1111111E+00  0.0000000E+00  0.1646091E-01
    1       -1.779135   1.000000
    2        2.357641   1.000000
    3        2.357641   1.000000
    4        2.422058   1.000000
    5        2.785679   1.000000
    6        2.785679   1.000000
    7        2.786817   1.000000
    8        3.909796   1.000000
    9        4.018178   1.000000
   10        4.029421   1.000000
   11        4.672356   1.000000
   12        4.725905   1.000000
   13        4.986354   1.000000
   14        5.033062   1.000000
   15        5.033062   1.000000
   16        5.124957   1.000000
   17        5.182074   1.000000
   18        5.182074   1.000000
   19        5.300806   1.000000
   20        5.300806   1.000000
   21        5.320506   1.000000
   22        7.838087  -0.000000
   23        7.838087  -0.000000
   24        9.013355  -0.000000
   25       13.585728   0.000000
   26       14.696363   0.000000
   27       14.696363   0.000000
   28       16.848917   0.000000
   29       18.683050   0.000000
   30       18.683430   0.000000
 
  0.2222222E+00  0.1111111E+00  0.0000000E+00  0.3292181E-01
    1       -1.358171   1.000000
    2        2.294229   1.000000
    3        2.542379   1.000000
    4        2.590255   1.000000
    5        2.886495   1.000000
    6        2.895274   1.000000
    7        2.897836   1.000000
    8        3.809636   1.000000
    9        4.103820   1.000000
   10        4.104600   1.000000
   11        4.560044   1.000000
   12        4.589314   1.000000
   13        4.590518   1.000000
   14        4.770054   1.000000
   15        4.798912   1.000000
   16        5.002553   1.000000
   17        5.046395   1.000000
   18        5.141506   1.000000
   19        5.148235   1.000000
   20        5.300279   1.000000
   21        5.301729   1.000000
   22        6.411707   1.018449
   23        8.619671  -0.000000
   24        9.818770  -0.000000
   25       13.764427   0.000000
   26       14.959402   0.000000
   27       15.082626   0.000000
   28       17.027968   0.000000
   29       17.116078   0.000000
   30       17.710548   0.000000
 
  0.3333333E+00  0.1111111E+00  0.0000000E+00  0.3292181E-01
    1       -0.677712   1.000000
    2        1.969349   1.000000
    3        2.789627   1.000000
    4        2.817366   1.000000
    5        3.042586   1.000000
    6        3.072132   1.000000
    7        3.087973   1.000000
    8        3.646093   1.000000
    9        4.070717   1.000000
   10        4.130996   1.000000
   11        4.198368   1.000000
   12        4.254125   1.000000
   13        4.433029   1.000000
   14        4.495099   1.000000
   15        4.832393   1.000000
   16        4.851341   1.000000
   17        4.865128   1.000000
   18        4.931357   1.000000
   19        5.027730   1.000000
   20        5.297665   1.000000
   21        5.299380   1.000000
   22        5.433620   1.000000
   23        9.609466  -0.000000
   24       10.925068  -0.000000
   25       13.420756   0.000000
   26       14.150507   0.000000
   27       15.323907   0.000000
   28       15.427013   0.000000
   29       16.467141   0.000000
   30       18.235169   0.000000
 
  0.4444444E+00  0.1111111E+00  0.0000000E+00  0.3292181E-01
    1        0.214578   1.000000
    2        1.194706   1.000000
    3        2.991003   1.000000
    4        3.002924   1.000000
    5        3.236764   1.000000
    6        3.312272   1.000000
    7        3.358827   1.000000
    8        3.446440   1.000000
    9        3.645222   1.000000
   10        3.709671   1.000000
   11        4.191857   1.000000
   12        4.194945   1.000000
   13        4.454811   1.000000
   14        4.558354   1.000000
   15        4.688932   1.000000
   16        4.697153   1.000000
   17        4.710690   1.000000
   18        4.785853   1.000000
   19        4.956831   1.000000
   20        5.094377   1.000000
   21        5.297469   1.000000
   22        5.298342   1.000000
   23       10.739295  -0.000000
   24       12.006672  -0.000000
   25       12.237401   0.000000
   26       13.713042   0.000000
   27       14.666299   0.000000
   28       15.433635   0.000000
   29       16.136914   0.000000
   30       17.084936   0.000000
 
  0.2222222E+00  0.2222222E+00  0.0000000E+00  0.1646091E-01
    1       -0.947434   1.000000
    2        2.506749   1.000000
    3        2.506749   1.000000
    4        2.735730   1.000000
    5        2.980987   1.000000
    6        2.987203   1.000000
    7        2.987203   1.000000
    8        3.757807   1.000000
    9        4.123802   1.000000
   10        4.152607   1.000000
   11        4.307026   1.000000
   12        4.307026   1.000000
   13        4.360287   1.000000
   14        4.562842   1.000000
   15        4.815773   1.000000
   16        4.903989   1.000000
   17        5.024106   1.000000
   18        5.024106   1.000000
   19        5.146542   1.000000
   20        5.146542   1.000000
   21        5.215683   1.000000
   22        7.135208  -0.010411
   23        7.135208  -0.010411
   24       10.526207  -0.000000
   25       13.147939   0.000000
   26       14.025755   0.000000
   27       17.431870   0.000000
   28       17.431870   0.000000
   29       17.540538   0.000000
   30       17.540538   0.000000
 
  0.3333333E+00  0.2222222E+00  0.0000000E+00  0.3292181E-01
    1       -0.286256   1.000000
    2        2.226168   1.000000
    3        2.799628   1.000000
    4        2.937297   1.000000
    5        3.108771   1.000000
    6        3.124797   1.000000
    7        3.156626   1.000000
    8        3.638350   1.000000
    9        3.862520   1.000000
   10        4.032065   1.000000
   11        4.040407   1.000000
   12        4.130729   1.000000
   13        4.276695   1.000000
   14        4.508409   1.000000
   15        4.764086   1.000000
   16        4.853581   1.000000
   17        4.921406   1.000000
   18        4.929841   1.000000
   19        4.945050   1.000000
   20        5.144696   1.000000
   21        5.167995   1.000000
   22        6.018772   1.000001
   23        7.986351  -0.000000
   24       11.523755  -0.000000
   25       11.550988  -0.000000
   26       14.384064   0.000000
   27       15.836255   0.000000
   28       16.878292   0.000000
   29       17.983159   0.000000
   30       18.349375   0.000000
 
  0.4444444E+00  0.2222222E+00  0.0000000E+00  0.3292181E-01
    1        0.573738   1.000000
    2        1.505281   1.000000
    3        3.066802   1.000000
    4        3.147635   1.000000
    5        3.218769   1.000000
    6        3.294167   1.000000
    7        3.393951   1.000000
    8        3.473908   1.000000
    9        3.492423   1.000000
   10        3.692765   1.000000
   11        3.969393   1.000000
   12        4.057064   1.000000
   13        4.463460   1.000000
   14        4.565574   1.000000
   15        4.659270   1.000000
   16        4.690442   1.000000
   17        4.696272   1.000000
   18        4.739325   1.000000
   19        5.133560   1.000000
   20        5.144367   1.000000
   21        5.149551   1.000000
   22        5.426616   1.000000
   23        8.971198  -0.000000
   24       10.134751  -0.000000
   25       12.806358   0.000000
   26       14.245018   0.000000
   27       14.965414   0.000000
   28       15.791850   0.000000
   29       18.756119   0.000000
   30       19.407273   0.000000
 
  0.3333333E+00  0.3333333E+00  0.0000000E+00  0.1646091E-01
    1        0.337125   1.000000
    2        2.584695   1.000000
    3        2.584695   1.000000
    4        3.042730   1.000000
    5        3.214795   1.000000
    6        3.259788   1.000000
    7        3.259788   1.000000
    8        3.593182   1.000000
    9        3.725118   1.000000
   10        3.725118   1.000000
   11        3.863982   1.000000
   12        4.074060   1.000000
   13        4.353629   1.000000
   14        4.452029   1.000000
   15        4.656422   1.000000
   16        4.764569   1.000000
   17        4.764569   1.000000
   18        4.931156   1.000000
   19        4.931156   1.000000
   20        5.048576   1.000000
   21        5.147291   1.000000
   22        6.693613   0.736360
   23        6.693613   0.736360
   24        9.886407  -0.000000
   25       12.494988   0.000000
   26       14.819767   0.000000
   27       16.644897   0.000000
   28       16.644897   0.000000
   29       17.557600   0.000000
   30       17.557600   0.000000
 
  0.4444444E+00  0.3333333E+00  0.0000000E+00  0.3292181E-01
    1        1.130817   1.000000
    2        1.961150   1.000000
    3        2.919664   1.000000
    4        3.069605   1.000000
    5        3.349803   1.000000
    6        3.382191   1.000000
    7        3.441579   1.000000
    8        3.496707   1.000000
    9        3.501626   1.000000
   10        3.653339   1.000000
   11        3.802168   1.000000
   12        3.962388   1.000000
   13        4.469323   1.000000
   14        4.500812   1.000000
   15        4.572581   1.000000
   16        4.605518   1.000000
   17        4.615648   1.000000
   18        4.703489   1.000000
   19        4.942423   1.000000
   20        4.975901   1.000000
   21        5.436262   1.000000
   22        5.886957   1.000000
   23        7.512293  -0.000001
   24        8.554791  -0.000000
   25       13.686285   0.000000
   26       15.079517   0.000000
   27       15.477595   0.000000
   28       16.386500   0.000000
   29       17.706082   0.000000
   30       18.489578   0.000000
 
  0.4444444E+00  0.4444444E+00  0.0000000E+00  0.1646091E-01
    1        1.803098   1.000000
    2        2.449513   1.000000
    3        2.449513   1.000000
    4        2.832228   1.000000
    5        3.485446   1.000000
    6        3.485446   1.000000
    7        3.508683   1.000000
    8        3.547937   1.000000
    9        3.582580   1.000000
   10        3.684940   1.000000
   11        3.684940   1.000000
   12        3.861006   1.000000
   13        4.408030   1.000000
   14        4.475294   1.000000
   15        4.482616   1.000000
   16        4.482616   1.000000
   17        4.591333   1.000000
   18        4.744608   1.000000
   19        4.744608   1.000000
   20        4.832966   1.000000
   21        5.853048   1.000000
   22        6.490093   1.034456
   23        6.490093   1.034456
   24        7.344482  -0.000116
   25       14.820547   0.000000
   26       16.169203   0.000000
   27       16.169203   0.000000
   28       16.225177   0.000000
   29       17.227459   0.000000
   30       17.227459   0.000000
 
  0.1111111E+00  0.1111111E+00  0.1111111E+00  0.1097394E-01
    1       -1.638147   1.000000
    2        2.421041   1.000000
    3        2.421041   1.000000
    4        2.421041   1.000000
    5        2.820678   1.000000
    6        2.820678   1.000000
    7        2.820678   1.000000
    8        3.891471   1.000000
    9        4.040772   1.000000
   10        4.040772   1.000000
   11        4.694431   1.000000
   12        4.694431   1.000000
   13        4.901842   1.000000
   14        4.901842   1.000000
   15        4.901842   1.000000
   16        5.073846   1.000000
   17        5.073846   1.000000
   18        5.073846   1.000000
   19        5.307657   1.000000
   20        5.307657   1.000000
   21        5.307657   1.000000
   22        8.129709  -0.000000
   23        8.129709  -0.000000
   24        8.129709  -0.000000
   25       14.782627   0.000000
   26       14.782627   0.000000
   27       14.782627   0.000000
   28       17.024659   0.000000
   29       17.024659   0.000000
   30       17.024659   0.000000
 
  0.2222222E+00  0.1111111E+00  0.1111111E+00  0.3292181E-01
    1       -1.220839   1.000000
    2        2.364412   1.000000
    3        2.595219   1.000000
    4        2.595219   1.000000
    5        2.919160   1.000000
    6        2.925937   1.000000
    7        2.925937   1.000000
    8        3.803890   1.000000
    9        4.104632   1.000000
   10        4.108902   1.000000
   11        4.496809   1.000000
   12        4.496809   1.000000
   13        4.614340   1.000000
   14        4.649738   1.000000
   15        4.757205   1.000000
   16        4.940292   1.000000
   17        4.966918   1.000000
   18        4.966918   1.000000
   19        5.262365   1.000000
   20        5.286976   1.000000
   21        5.286976   1.000000
   22        6.687185   0.759510
   23        8.843980  -0.000000
   24        8.843980  -0.000000
   25       15.035377   0.000000
   26       15.035377   0.000000
   27       15.263625   0.000000
   28       15.263625   0.000000
   29       17.217516   0.000000
   30       17.540792   0.000000
 
  0.3333333E+00  0.1111111E+00  0.1111111E+00  0.3292181E-01
    1       -0.547219   1.000000
    2        2.052281   1.000000
    3        2.832332   1.000000
    4        2.832332   1.000000
    5        3.071500   1.000000
    6        3.094540   1.000000
    7        3.094540   1.000000
    8        3.651529   1.000000
    9        4.054860   1.000000
   10        4.054860   1.000000
   11        4.179009   1.000000
   12        4.222253   1.000000
   13        4.297230   1.000000
   14        4.558921   1.000000
   15        4.758784   1.000000
   16        4.817216   1.000000
   17        4.817216   1.000000
   18        4.851326   1.000000
   19        5.183081   1.000000
   20        5.268514   1.000000
   21        5.268514   1.000000
   22        5.615609   1.000000
   23        9.785066  -0.000000
   24        9.785066  -0.000000
   25       13.630179   0.000000
   26       13.630179   0.000000
   27       15.536936   0.000000
   28       15.536936   0.000000
   29       18.343055   0.000000
   30       18.386100   0.000000
 
  0.4444444E+00  0.1111111E+00  0.1111111E+00  0.3292181E-01
    1        0.333636   1.000000
    2        1.296468   1.000000
    3        3.041769   1.000000
    4        3.041769   1.000000
    5        3.259950   1.000000
    6        3.288946   1.000000
    7        3.288946   1.000000
    8        3.461554   1.000000
    9        3.686318   1.000000
   10        3.686318   1.000000
   11        4.114012   1.000000
   12        4.145023   1.000000
   13        4.376657   1.000000
   14        4.561805   1.000000
   15        4.684249   1.000000
   16        4.684249   1.000000
   17        4.692379   1.000000
   18        4.963436   1.000000
   19        5.024945   1.000000
   20        5.079031   1.000000
   21        5.260479   1.000000
   22        5.260479   1.000000
   23       10.850437  -0.000000
   24       10.850437  -0.000000
   25       12.242181   0.000000
   26       12.242181   0.000000
   27       16.253308   0.000000
   28       16.253308   0.000000
   29       17.218878   0.000000
   30       17.218878   0.000000
 
  0.2222222E+00  0.2222222E+00  0.1111111E+00  0.3292181E-01
    1       -0.815244   1.000000
    2        2.556017   1.000000
    3        2.556017   1.000000
    4        2.735839   1.000000
    5        3.012359   1.000000
    6        3.017614   1.000000
    7        3.017614   1.000000
    8        3.761461   1.000000
    9        4.121266   1.000000
   10        4.136889   1.000000
   11        4.261353   1.000000
   12        4.261353   1.000000
   13        4.290373   1.000000
   14        4.616868   1.000000
   15        4.792604   1.000000
   16        4.827184   1.000000
   17        4.848541   1.000000
   18        4.848541   1.000000
   19        5.244370   1.000000
   20        5.244370   1.000000
   21        5.245186   1.000000
   22        7.313565  -0.000264
   23        7.313565  -0.000264
   24        9.434882  -0.000000
   25       13.372288   0.000000
   26       15.349536   0.000000
   27       15.737370   0.000000
   28       15.737370   0.000000
   29       17.545290   0.000000
   30       17.545290   0.000000
 
  0.3333333E+00  0.2222222E+00  0.1111111E+00  0.6584362E-01
    1       -0.164085   1.000000
    2        2.277733   1.000000
    3        2.812843   1.000000
    4        2.922064   1.000000
    5        3.139955   1.000000
    6        3.160919   1.000000
    7        3.173801   1.000000
    8        3.656155   1.000000
    9        3.883215   1.000000
   10        3.998399   1.000000
   11        4.016300   1.000000
   12        4.125056   1.000000
   13        4.212364   1.000000
   14        4.607183   1.000000
   15        4.671223   1.000000
   16        4.698502   1.000000
   17        4.740979   1.000000
   18        4.923412   1.000000
   19        5.157038   1.000000
   20        5.195545   1.000000
   21        5.195933   1.000000
   22        6.112964   1.000030
   23        8.114565  -0.000000
   24       10.214674  -0.000000
   25       11.813909  -0.000000
   26       14.118155   0.000000
   27       15.859372   0.000000
   28       16.516520   0.000000
   29       18.092550   0.000000
   30       18.835768   0.000000
 
  0.4444444E+00  0.2222222E+00  0.1111111E+00  0.6584362E-01
    1        0.678349   1.000000
    2        1.582273   1.000000
    3        3.055817   1.000000
    4        3.116866   1.000000
    5        3.209199   1.000000
    6        3.283014   1.000000
    7        3.331709   1.000000
    8        3.504445   1.000000
    9        3.655472   1.000000
   10        3.745872   1.000000
   11        3.957991   1.000000
   12        4.048033   1.000000
   13        4.327272   1.000000
   14        4.485235   1.000000
   15        4.603145   1.000000
   16        4.624952   1.000000
   17        4.748224   1.000000
   18        4.989027   1.000000
   19        5.105476   1.000000
   20        5.166186   1.000000
   21        5.166397   1.000000
   22        5.418403   1.000000
   23        9.059831  -0.000000
   24       10.117301  -0.000000
   25       11.577794  -0.000000
   26       12.712843   0.000000
   27       16.613754   0.000000
   28       17.545719   0.000000
   29       17.617550   0.000000
   30       18.799727   0.000000
 
  0.3333333E+00  0.3333333E+00  0.1111111E+00  0.3292181E-01
    1        0.442432   1.000000
    2        2.571197   1.000000
    3        2.571197   1.000000
    4        2.967673   1.000000
    5        3.266583   1.000000
    6        3.312454   1.000000
    7        3.312454   1.000000
    8        3.632772   1.000000
    9        3.766646   1.000000
   10        3.766646   1.000000
   11        3.896460   1.000000
   12        4.074659   1.000000
   13        4.228787   1.000000
   14        4.567876   1.000000
   15        4.592253   1.000000
   16        4.592253   1.000000
   17        4.604195   1.000000
   18        5.081677   1.000000
   19        5.081677   1.000000
   20        5.110651   1.000000
   21        5.118373   1.000000
   22        6.755879   0.484270
   23        6.755879   0.484270
   24        9.815419  -0.000000
   25       11.362334  -0.000000
   26       14.879882   0.000000
   27       14.879882   0.000000
   28       16.415740   0.000000
   29       18.586632   0.000000
   30       19.550018   0.000000
 
  0.4444444E+00  0.3333333E+00  0.1111111E+00  0.6584362E-01
    1        1.205240   1.000000
    2        1.986713   1.000000
    3        2.819456   1.000000
    4        2.945939   1.000000
    5        3.396239   1.000000
    6        3.450947   1.000000
    7        3.455710   1.000000
    8        3.564646   1.000000
    9        3.657817   1.000000
   10        3.772677   1.000000
   11        3.822558   1.000000
   12        3.969173   1.000000
   13        4.290396   1.000000
   14        4.422186   1.000000
   15        4.482265   1.000000
   16        4.503648   1.000000
   17        4.705930   1.000000
   18        4.904631   1.000000
   19        5.034067   1.000000
   20        5.045804   1.000000
   21        5.404088   1.000000
   22        5.879058   1.000000
   23        7.557912  -0.000000
   24        8.581575  -0.000000
   25       12.268328   0.000000
   26       13.461956   0.000000
   27       15.889454   0.000000
   28       17.127741   0.000000
   29       17.222503   0.000000
   30       18.280168   0.000000
 
  0.4444444E+00  0.4444444E+00  0.1111111E+00  0.3292181E-01
    1        1.823356   1.000000
    2        2.396568   1.000000
    3        2.396568   1.000000
    4        2.716038   1.000000
    5        3.585641   1.000000
    6        3.613309   1.000000
    7        3.613309   1.000000
    8        3.615941   1.000000
    9        3.723596   1.000000
   10        3.723596   1.000000
   11        3.742838   1.000000
   12        3.878916   1.000000
   13        4.277097   1.000000
   14        4.360578   1.000000
   15        4.360578   1.000000
   16        4.374406   1.000000
   17        4.734926   1.000000
   18        4.870821   1.000000
   19        4.870821   1.000000
   20        4.928282   1.000000
   21        5.822506   1.000000
   22        6.485252   1.033865
   23        6.485252   1.033865
   24        7.355356  -0.000085
   25       13.247467   0.000000
   26       14.456059   0.000000
   27       14.456059   0.000000
   28       15.679231   0.000000
   29       18.085643   0.000000
   30       19.198264   0.000000
 
  0.2222222E+00  0.2222222E+00  0.2222222E+00  0.1097394E-01
    1       -0.426430   1.000000
    2        2.677309   1.000000
    3        2.677309   1.000000
    4        2.677309   1.000000
    5        3.114902   1.000000
    6        3.114902   1.000000
    7        3.114902   1.000000
    8        3.754966   1.000000
    9        4.113547   1.000000
   10        4.113547   1.000000
   11        4.113547   1.000000
   12        4.120380   1.000000
   13        4.120380   1.000000
   14        4.666128   1.000000
   15        4.666128   1.000000
   16        4.666128   1.000000
   17        4.744381   1.000000
   18        4.744381   1.000000
   19        5.272073   1.000000
   20        5.272073   1.000000
   21        5.272073   1.000000
   22        7.788146  -0.000000
   23        7.788146  -0.000000
   24        7.788146  -0.000000
   25       13.868451   0.000000
   26       13.868451   0.000000
   27       13.868451   0.000000
   28       17.876762   0.000000
   29       17.876762   0.000000
   30       17.876762   0.000000
 
  0.3333333E+00  0.2222222E+00  0.2222222E+00  0.3292181E-01
    1        0.191386   1.000000
    2        2.401038   1.000000
    3        2.810996   1.000000
    4        2.810996   1.000000
    5        3.262695   1.000000
    6        3.262695   1.000000
    7        3.278624   1.000000
    8        3.705118   1.000000
    9        3.927848   1.000000
   10        3.927848   1.000000
   11        3.945986   1.000000
   12        4.104787   1.000000
   13        4.140139   1.000000
   14        4.488979   1.000000
   15        4.551734   1.000000
   16        4.551734   1.000000
   17        4.760136   1.000000
   18        4.898643   1.000000
   19        5.230317   1.000000
   20        5.230317   1.000000
   21        5.249103   1.000000
   22        6.427248   1.021934
   23        8.452166  -0.000000
   24        8.452166  -0.000000
   25       12.279849   0.000000
   26       12.279849   0.000000
   27       14.634833   0.000000
   28       18.353353   0.000000
   29       18.440867   0.000000
   30       18.440867   0.000000
 
  0.4444444E+00  0.2222222E+00  0.2222222E+00  0.3292181E-01
    1        0.974396   1.000000
    2        1.786281   1.000000
    3        2.905925   1.000000
    4        2.905925   1.000000
    5        3.354042   1.000000
    6        3.354042   1.000000
    7        3.456270   1.000000
    8        3.603064   1.000000
    9        3.842869   1.000000
   10        3.842869   1.000000
   11        3.924407   1.000000
   12        4.019727   1.000000
   13        4.210122   1.000000
   14        4.330015   1.000000
   15        4.471441   1.000000
   16        4.471441   1.000000
   17        4.985161   1.000000
   18        5.048525   1.000000
   19        5.171209   1.000000
   20        5.184341   1.000000
   21        5.184341   1.000000
   22        5.508986   1.000000
   23        9.148080  -0.000000
   24        9.148080  -0.000000
   25       11.118750  -0.000000
   26       11.118750  -0.000000
   27       15.648418   0.000000
   28       16.890394   0.000000
   29       19.239712   0.000000
   30       19.239712   0.000000
 
  0.3333333E+00  0.3333333E+00  0.2222222E+00  0.3292181E-01
    1        0.741509   1.000000
    2        2.529529   1.000000
    3        2.529529   1.000000
    4        2.766729   1.000000
    5        3.414192   1.000000
    6        3.461214   1.000000
    7        3.461214   1.000000