 vasp.6.2.0 18Jan21 (build Mar 17 2021 09:06:54) complex                        
  
 executed on             LinuxIFC date 2021.08.03  10:21:50
 serial version


--------------------------------------------------------------------------------------------------------


 INCAR:
   ENCUT = 320.000000
   SIGMA = 0.200000
   EDIFF = 1.00e-06
   GGA = PE
   PREC = normal
   IBRION = 1
   ICHARG = 1
   ISIF = 4
   ISMEAR = 1
   KPAR = 1
   NBANDS = 30
   NSW = 0
   NCORE = 1
   LCHARG = .TRUE.

 POTCAR:    PAW_PBE Cu 22Jun2005                  
 POTCAR:    PAW_PBE Cu 22Jun2005                  
   SHA256 =  0e71e558f37a4e8407882b4609ceaae59938afaad9ced71dfe8490308a0ab630 Cu/POTCAR             
   COPYR  = (c) Copyright 22Jun2005 Georg Kresse                                                    
   COPYR  = This file is part of the software VASP. Any use, copying, and all other rights are regul
   COPYR  = If you do not have a valid VASP license, you may not use, copy or distribute this file. 
   VRHFIN =Cu: d10 p1                                                                               
   LEXCH  = PE                                                                                      
   EATOM  =  1390.9808 eV,  102.2342 Ry                                                             
                                                                                                    
   TITEL  = PAW_PBE Cu 22Jun2005                                                                    
   LULTRA =        F    use ultrasoft PP ?                                                          
   IUNSCR =        1    unscreen: 0-lin 1-nonlin 2-no                                               
   RPACOR =    2.000    partial core radius                                                         
   POMASS =   63.546; ZVAL   =   11.000    mass and valenz                                          
   RCORE  =    2.300    outmost cutoff radius                                                       
   RWIGS  =    2.200; RWIGS  =    1.164    wigner-seitz radius (au A)                               
   ENMAX  =  295.446; ENMIN  =  221.585 eV                                                          
   ICORE  =        3    local potential                                                             
   LCOR   =        T    correct aug charges                                                         
   LPAW   =        T    paw PP                                                                      
   EAUG   =  586.980                                                                                
   DEXC   =    0.000                                                                                
   RMAX   =    2.344    core radius for proj-oper                                                   
   RAUG   =    1.300    factor for augmentation sphere                                              
   RDEP   =    2.302    radius for radial grids                                                     
   RDEPT  =    1.771    core radius for aug-charge                                                  
                                                                                                    
   Atomic configuration                                                                             
    9 entries                                                                                       
     n  l   j            E        occ.                                                              
     1  0  0.50     -8850.2468   2.0000                                                             
     2  0  0.50     -1062.3498   2.0000                                                             
     2  1  1.50      -916.8226   6.0000                                                             
     3  0  0.50      -114.6929   2.0000                                                             
     3  1  1.50       -72.1325   6.0000                                                             
     3  2  2.50        -5.0394  10.0000                                                             
     4  0  0.50        -4.6097   1.0000                                                             
     4  1  0.50        -4.0817   0.0000                                                             
     4  3  2.50        -1.3606   0.0000                                                             
   Description                                                                                      
     l       E           TYP  RCUT    TYP  RCUT                                                     
     2     -5.0393973     23  2.200                                                                 
     2     10.8846608     23  2.200                                                                 
     0     -4.6097109     23  2.200                                                                 
     0      8.2520465     23  2.200                                                                 
     1     -2.7211652     23  2.200                                                                 
     1     21.7055443     23  2.200                                                                 
     3      2.7211652     23  2.300                                                                 
  local pseudopotential read in
  partial core-charges read in
  partial kinetic energy density read in
  atomic valenz-charges read in
  non local Contribution for L=           2  read in
    real space projection operators read in
  non local Contribution for L=           2  read in
    real space projection operators read in
  non local Contribution for L=           0  read in
    real space projection operators read in
  non local Contribution for L=           0  read in
    real space projection operators read in
  non local Contribution for L=           1  read in
    real space projection operators read in
  non local Contribution for L=           1  read in
    real space projection operators read in
    PAW grid and wavefunctions read in
 
   number of l-projection  operators is LMAX  =           6
   number of lm-projection operators is LMMAX =          18
 
  PAW_PBE Cu 22Jun2005                  :
 energy of atom  1       EATOM=-1390.9808
 kinetic energy error for atom=    0.0368 (will be added to EATOM!!)
 
 
 POSCAR: Cu
  positions in cartesian coordinates
  No initial velocities read in
 exchange correlation table for  LEXCH =        8
   RHO(1)=    0.500       N(1)  =     2000
   RHO(2)=  100.500       N(2)  =     4000
 


--------------------------------------------------------------------------------------------------------


 ion  position               nearest neighbor table
   1  0.000  0.000  0.000-   2 2.61   3 2.61   4 2.61   3 2.61   4 2.61   2 2.61   4 2.61   4 2.61
                             2 2.61   3 2.61   3 2.61   2 2.61
   2  0.500  0.500  0.000-   1 2.61   3 2.61   4 2.61   3 2.61   4 2.61   1 2.61   3 2.61   3 2.61
                             1 2.61   4 2.61   4 2.61   1 2.61
   3  0.500  0.000  0.500-   1 2.61   2 2.61   4 2.61   1 2.61   2 2.61   2 2.61   4 2.61   2 2.61
                             1 2.61   4 2.61   1 2.61   4 2.61
   4  0.000  0.500  0.500-   1 2.61   2 2.61   3 2.61   1 2.61   2 2.61   1 2.61   3 2.61   1 2.61
                             2 2.61   3 2.61   2 2.61   3 2.61
 
  LATTYP: Found a simple cubic cell.
 ALAT       =     3.6946007570
  
  Lattice vectors:
  
 A1 = (   3.6946007570,   0.0000000000,   0.0000000000)
 A2 = (   0.0000000000,   3.6946007570,   0.0000000000)
 A3 = (   0.0000000000,   0.0000000000,   3.6946007570)


Analysis of symmetry for initial positions (statically):
=====================================================================
 Subroutine PRICEL returns following result:
 
  LATTYP: Found a face centered cubic cell.
 ALAT       =     3.6946007570
  
  Lattice vectors:
  
 A1 = (   1.8473003785,  -1.8473003785,   0.0000000000)
 A2 = (   1.8473003785,   0.0000000000,   1.8473003785)
 A3 = (   0.0000000000,  -1.8473003785,   1.8473003785)
 
   4 primitive cells build up your supercell.
 

 Routine SETGRP: Setting up the symmetry group for a 
 simple cubic supercell.


 Subroutine GETGRP returns: Found 48 space group operations
 (whereof 48 operations were pure point group operations)
 out of a pool of 48 trial point group operations.


The static configuration has the point symmetry O_h .


Analysis of symmetry for dynamics (positions and initial velocities):
=====================================================================
 Subroutine PRICEL returns following result:
 
  LATTYP: Found a face centered cubic cell.
 ALAT       =     3.6946007570
  
  Lattice vectors:
  
 A1 = (   1.8473003785,  -1.8473003785,   0.0000000000)
 A2 = (   1.8473003785,   0.0000000000,   1.8473003785)
 A3 = (   0.0000000000,  -1.8473003785,   1.8473003785)
 
   4 primitive cells build up your supercell.
 

 Routine SETGRP: Setting up the symmetry group for a 
 simple cubic supercell.


 Subroutine GETGRP returns: Found 48 space group operations
 (whereof 48 operations were pure point group operations)
 out of a pool of 48 trial point group operations.


The dynamic configuration has the point symmetry O_h .


 Subroutine INISYM returns: Found 48 space group operations
 (whereof 48 operations are pure point group operations),
 and found     4 'primitive' translations


----------------------------------------------------------------------------------------

                                     Primitive cell                                     

  volume of cell :      12.6079

  direct lattice vectors                    reciprocal lattice vectors
     1.847300379 -1.847300379  0.000000000     0.270665240 -0.270665240 -0.270665240
     1.847300379  0.000000000  1.847300379     0.270665240  0.270665240  0.270665240
     0.000000000 -1.847300379  1.847300379    -0.270665240 -0.270665240  0.270665240

  length of vectors
     2.612477249  2.612477249  2.612477249     0.468805947  0.468805947  0.468805947

  position of ions in fractional coordinates (direct lattice)
     0.000000000  0.000000000  0.000000000

  ion indices of the primitive-cell ions
   primitive index   ion index
                 1           1

----------------------------------------------------------------------------------------

 
 
 KPOINTS: KPOINTS created by Atomic Simulation Env

Automatic generation of k-mesh.
 Grid dimensions read from file:
 generate k-points for:    9    9    9

 Generating k-lattice:

  Cartesian coordinates                     Fractional coordinates (reciprocal lattice)
     0.030073916  0.000000000  0.000000000     0.111111111  0.000000000  0.000000000
     0.000000000  0.030073916  0.000000000     0.000000000  0.111111111  0.000000000
     0.000000000  0.000000000  0.030073916     0.000000000  0.000000000  0.111111111

  Length of vectors
     0.030073916  0.030073916  0.030073916

  Shift w.r.t. Gamma in fractional coordinates (k-lattice)
     0.000000000  0.000000000  0.000000000

 
 Subroutine IBZKPT returns following result:
 ===========================================
 
 Found     35 irreducible k-points:
 
 Following reciprocal coordinates:
            Coordinates               Weight
  0.000000  0.000000  0.000000      1.000000
  0.111111  0.000000  0.000000      6.000000
  0.222222  0.000000  0.000000      6.000000
  0.333333  0.000000  0.000000      6.000000
  0.444444  0.000000  0.000000      6.000000
  0.111111  0.111111  0.000000     12.000000
  0.222222  0.111111  0.000000     24.000000
  0.333333  0.111111  0.000000     24.000000
  0.444444  0.111111  0.000000     24.000000
  0.222222  0.222222  0.000000     12.000000
  0.333333  0.222222  0.000000     24.000000
  0.444444  0.222222  0.000000     24.000000
  0.333333  0.333333  0.000000     12.000000
  0.444444  0.333333  0.000000     24.000000
  0.444444  0.444444  0.000000     12.000000
  0.111111  0.111111  0.111111      8.000000
  0.222222  0.111111  0.111111     24.000000
  0.333333  0.111111  0.111111     24.000000
  0.444444  0.111111  0.111111     24.000000
  0.222222  0.222222  0.111111     24.000000
  0.333333  0.222222  0.111111     48.000000
  0.444444  0.222222  0.111111     48.000000
  0.333333  0.333333  0.111111     24.000000
  0.444444  0.333333  0.111111     48.000000
  0.444444  0.444444  0.111111     24.000000
  0.222222  0.222222  0.222222      8.000000
  0.333333  0.222222  0.222222     24.000000
  0.444444  0.222222  0.222222     24.000000
  0.333333  0.333333  0.222222     24.000000
  0.444444  0.333333  0.222222     48.000000
  0.444444  0.444444  0.222222     24.000000
  0.333333  0.333333  0.333333      8.000000
  0.444444  0.333333  0.333333     24.000000
  0.444444  0.444444  0.333333     24.000000
  0.444444  0.444444  0.444444      8.000000
 
 Following cartesian coordinates:
            Coordinates               Weight
  0.000000  0.000000  0.000000      1.000000
  0.030074  0.000000  0.000000      6.000000
  0.060148  0.000000  0.000000      6.000000
  0.090222  0.000000  0.000000      6.000000
  0.120296  0.000000  0.000000      6.000000
  0.030074  0.030074  0.000000     12.000000
  0.060148  0.030074  0.000000     24.000000
  0.090222  0.030074  0.000000     24.000000
  0.120296  0.030074  0.000000     24.000000
  0.060148  0.060148  0.000000     12.000000
  0.090222  0.060148  0.000000     24.000000
  0.120296  0.060148  0.000000     24.000000
  0.090222  0.090222  0.000000     12.000000
  0.120296  0.090222  0.000000     24.000000
  0.120296  0.120296  0.000000     12.000000
  0.030074  0.030074  0.030074      8.000000
  0.060148  0.030074  0.030074     24.000000
  0.090222  0.030074  0.030074     24.000000
  0.120296  0.030074  0.030074     24.000000
  0.060148  0.060148  0.030074     24.000000
  0.090222  0.060148  0.030074     48.000000
  0.120296  0.060148  0.030074     48.000000
  0.090222  0.090222  0.030074     24.000000
  0.120296  0.090222  0.030074     48.000000
  0.120296  0.120296  0.030074     24.000000
  0.060148  0.060148  0.060148      8.000000
  0.090222  0.060148  0.060148     24.000000
  0.120296  0.060148  0.060148     24.000000
  0.090222  0.090222  0.060148     24.000000
  0.120296  0.090222  0.060148     48.000000
  0.120296  0.120296  0.060148     24.000000
  0.090222  0.090222  0.090222      8.000000
  0.120296  0.090222  0.090222     24.000000
  0.120296  0.120296  0.090222     24.000000
  0.120296  0.120296  0.120296      8.000000
 


--------------------------------------------------------------------------------------------------------




 Dimension of arrays:
   k-points           NKPTS =     35   k-points in BZ     NKDIM =     35   number of bands    NBANDS=     30
   number of dos      NEDOS =    301   number of ions     NIONS =      4
   non local maximal  LDIM  =      6   non local SUM 2l+1 LMDIM =     18
   total plane-waves  NPLWV =   4096
   max r-space proj   IRMAX =      1   max aug-charges    IRDMAX=   2552
   dimension x,y,z NGX =    16 NGY =   16 NGZ =   16
   dimension x,y,z NGXF=    32 NGYF=   32 NGZF=   32
   support grid    NGXF=    32 NGYF=   32 NGZF=   32
   ions per type =               4
   NGX,Y,Z   is equivalent  to a cutoff of   7.20,  7.20,  7.20 a.u.
   NGXF,Y,Z  is equivalent  to a cutoff of  14.40, 14.40, 14.40 a.u.

 SYSTEM =  unknown system                          
 POSCAR =  Cu                                      

 Startparameter for this run:
   NWRITE =      2    write-flag & timer
   PREC   = normal    normal or accurate (medium, high low for compatibility)
   ISTART =      0    job   : 0-new  1-cont  2-samecut
   ICHARG =      1    charge: 1-file 2-atom 10-const
   ISPIN  =      1    spin polarized calculation?
   LNONCOLLINEAR =      F non collinear calculations
   LSORBIT =      F    spin-orbit coupling
   INIWAV =      1    electr: 0-lowe 1-rand  2-diag
   LASPH  =      F    aspherical Exc in radial PAW
   METAGGA=      F    non-selfconsistent MetaGGA calc.

 Electronic Relaxation 1
   ENCUT  =  320.0 eV  23.52 Ry    4.85 a.u.   5.39  5.39  5.39*2*pi/ulx,y,z
   ENINI  =  320.0     initial cutoff
   ENAUG  =  587.0 eV  augmentation charge cutoff
   NELM   =     60;   NELMIN=  2; NELMDL= -5     # of ELM steps 
   EDIFF  = 0.1E-05   stopping-criterion for ELM
   LREAL  =      F    real-space projection
   NLSPLINE    = F    spline interpolate recip. space projectors
   LCOMPAT=      F    compatible to vasp.4.4
   GGA_COMPAT  = T    GGA compatible to vasp.4.4-vasp.4.6
   LMAXPAW     = -100 max onsite density
   LMAXMIX     =    2 max onsite mixed and CHGCAR
   VOSKOWN=      0    Vosko Wilk Nusair interpolation
   ROPT   =    0.00000
 Ionic relaxation
   EDIFFG = 0.1E-04   stopping-criterion for IOM
   NSW    =      0    number of steps for IOM
   NBLOCK =      1;   KBLOCK =      1    inner block; outer block 
   IBRION =     -1    ionic relax: 0-MD 1-quasi-New 2-CG
   NFREE  =      0    steps in history (QN), initial steepest desc. (CG)
   ISIF   =      4    stress and relaxation
   IWAVPR =      0    prediction:  0-non 1-charg 2-wave 3-comb
   ISYM   =      2    0-nonsym 1-usesym 2-fastsym
   LCORR  =      T    Harris-Foulkes like correction to forces

   POTIM  = 0.5000    time-step for ionic-motion
   TEIN   =    0.0    initial temperature
   TEBEG  =    0.0;   TEEND  =   0.0 temperature during run
   SMASS  =  -3.00    Nose mass-parameter (am)
   estimated Nose-frequenzy (Omega)   =  0.10E-29 period in steps = 0.13E+47 mass=  -0.312E-27a.u.
   SCALEE = 1.0000    scale energy and forces
   NPACO  =    256;   APACO  = 16.0  distance and # of slots for P.C.
   PSTRESS=    0.0 pullay stress

  Mass of Ions in am
   POMASS =  63.55
  Ionic Valenz
   ZVAL   =  11.00
  Atomic Wigner-Seitz radii
   RWIGS  =  -1.00
  virtual crystal weights 
   VCA    =   1.00
   NELECT =      44.0000    total number of electrons
   NUPDOWN=      -1.0000    fix difference up-down

 DOS related values:
   EMIN   =  10.00;   EMAX   =-10.00  energy-range for DOS
   EFERMI =   0.00
   ISMEAR =     1;   SIGMA  =   0.20  broadening in eV -4-tet -1-fermi 0-gaus

 Electronic relaxation 2 (details)
   IALGO  =     38    algorithm
   LDIAG  =      T    sub-space diagonalisation (order eigenvalues)
   LSUBROT=      F    optimize rotation matrix (better conditioning)
   TURBO    =      0    0=normal 1=particle mesh
   IRESTART =      0    0=no restart 2=restart with 2 vectors
   NREBOOT  =      0    no. of reboots
   NMIN     =      0    reboot dimension
   EREF     =   0.00    reference energy to select bands
   IMIX   =      4    mixing-type and parameters
     AMIX     =   0.40;   BMIX     =  1.00
     AMIX_MAG =   1.60;   BMIX_MAG =  1.00
     AMIN     =   0.10
     WC   =   100.;   INIMIX=   1;  MIXPRE=   1;  MAXMIX= -45

 Intra band minimization:
   WEIMIN = 0.0000     energy-eigenvalue tresh-hold
   EBREAK =  0.83E-08  absolut break condition
   DEPER  =   0.30     relativ break condition  

   TIME   =   0.40     timestep for ELM

  volume/ion in A,a.u.               =      12.61        85.08
  Fermi-wavevector in a.u.,A,eV,Ry     =   1.564317  2.956131 33.294666  2.447089
  Thomas-Fermi vector in A             =   2.666959
 
 Write flags
   LWAVE        =      T    write WAVECAR
   LDOWNSAMPLE  =      F    k-point downsampling of WAVECAR
   LCHARG       =      T    write CHGCAR
   LVTOT        =      F    write LOCPOT, total local potential
   LVHAR        =      F    write LOCPOT, Hartree potential only
   LELF         =      F    write electronic localiz. function (ELF)
   LORBIT       =      0    0 simple, 1 ext, 2 COOP (PROOUT), +10 PAW based schemes


 Dipole corrections
   LMONO  =      F    monopole corrections only (constant potential shift)
   LDIPOL =      F    correct potential (dipole corrections)
   IDIPOL =      0    1-x, 2-y, 3-z, 4-all directions 
   EPSILON=  1.0000000 bulk dielectric constant

 Exchange correlation treatment:
   GGA     =    PE    GGA type
   LEXCH   =     8    internal setting for exchange type
   VOSKOWN=      0    Vosko Wilk Nusair interpolation
   LHFCALC =     F    Hartree Fock is set to
   LHFONE  =     F    Hartree Fock one center treatment
   AEXX    =    0.0000 exact exchange contribution

 Linear response parameters
   LEPSILON=     F    determine dielectric tensor
   LRPA    =     F    only Hartree local field effects (RPA)
   LNABLA  =     F    use nabla operator in PAW spheres
   LVEL    =     F    velocity operator in full k-point grid
   LINTERFAST=   F  fast interpolation
   KINTER  =     0    interpolate to denser k-point grid
   CSHIFT  =0.1000    complex shift for real part using Kramers Kronig
   OMEGAMAX=  -1.0    maximum frequency
   DEG_THRESHOLD= 0.2000000E-02 threshold for treating states as degnerate
   RTIME   =   -0.100 relaxation time in fs
  (WPLASMAI=    0.000 imaginary part of plasma frequency in eV, 0.658/RTIME)
   DFIELD  = 0.0000000 0.0000000 0.0000000 field for delta impulse in time
 
 Orbital magnetization related:
   ORBITALMAG=     F  switch on orbital magnetization
   LCHIMAG   =     F  perturbation theory with respect to B field
   DQ        =  0.001000  dq finite difference perturbation B field
   LLRAUG    =     F  two centre corrections for induced B field



--------------------------------------------------------------------------------------------------------


 Static calculation
 charge density and potential will be updated during run
 non-spin polarized calculation
 Variant of blocked Davidson
 Davidson routine will perform the subspace rotation
 perform sub-space diagonalisation
    after iterative eigenvector-optimisation
 modified Broyden-mixing scheme, WC =      100.0
 initial mixing is a Kerker type mixing with AMIX =  0.4000 and BMIX =      1.0000
 Hartree-type preconditioning will be used
 using additional bands            8
 reciprocal scheme for non local part
 use partial core corrections
 calculate Harris-corrections to forces 
   (improved forces if not selfconsistent)
 use gradient corrections 
 use of overlap-Matrix (Vanderbilt PP)
 Methfessel and Paxton  Order N= 1 SIGMA  =   0.20


--------------------------------------------------------------------------------------------------------


  energy-cutoff  :      320.00
  volume of cell :       50.43
      direct lattice vectors                 reciprocal lattice vectors
     3.694600757  0.000000000  0.000000000     0.270665240  0.000000000  0.000000000
     0.000000000  3.694600757  0.000000000     0.000000000  0.270665240  0.000000000
     0.000000000  0.000000000  3.694600757     0.000000000  0.000000000  0.270665240

  length of vectors
     3.694600757  3.694600757  3.694600757     0.270665240  0.270665240  0.270665240


 
 k-points in units of 2pi/SCALE and weight: KPOINTS created by Atomic Simulation Env
   0.00000000  0.00000000  0.00000000       0.001
   0.03007392  0.00000000  0.00000000       0.008
   0.06014783  0.00000000  0.00000000       0.008
   0.09022175  0.00000000  0.00000000       0.008
   0.12029566  0.00000000  0.00000000       0.008
   0.03007392  0.03007392  0.00000000       0.016
   0.06014783  0.03007392  0.00000000       0.033
   0.09022175  0.03007392  0.00000000       0.033
   0.12029566  0.03007392  0.00000000       0.033
   0.06014783  0.06014783  0.00000000       0.016
   0.09022175  0.06014783  0.00000000       0.033
   0.12029566  0.06014783  0.00000000       0.033
   0.09022175  0.09022175  0.00000000       0.016
   0.12029566  0.09022175  0.00000000       0.033
   0.12029566  0.12029566  0.00000000       0.016
   0.03007392  0.03007392  0.03007392       0.011
   0.06014783  0.03007392  0.03007392       0.033
   0.09022175  0.03007392  0.03007392       0.033
   0.12029566  0.03007392  0.03007392       0.033
   0.06014783  0.06014783  0.03007392       0.033
   0.09022175  0.06014783  0.03007392       0.066
   0.12029566  0.06014783  0.03007392       0.066
   0.09022175  0.09022175  0.03007392       0.033
   0.12029566  0.09022175  0.03007392       0.066
   0.12029566  0.12029566  0.03007392       0.033
   0.06014783  0.06014783  0.06014783       0.011
   0.09022175  0.06014783  0.06014783       0.033
   0.12029566  0.06014783  0.06014783       0.033
   0.09022175  0.09022175  0.06014783       0.033
   0.12029566  0.09022175  0.06014783       0.066
   0.12029566  0.12029566  0.06014783       0.033
   0.09022175  0.09022175  0.09022175       0.011
   0.12029566  0.09022175  0.09022175       0.033
   0.12029566  0.12029566  0.09022175       0.033
   0.12029566  0.12029566  0.12029566       0.011
 
 k-points in reciprocal lattice and weights: KPOINTS created by Atomic Simulation Env
   0.00000000  0.00000000  0.00000000       0.001
   0.11111111  0.00000000  0.00000000       0.008
   0.22222222  0.00000000  0.00000000       0.008
   0.33333333  0.00000000  0.00000000       0.008
   0.44444444  0.00000000  0.00000000       0.008
   0.11111111  0.11111111  0.00000000       0.016
   0.22222222  0.11111111  0.00000000       0.033
   0.33333333  0.11111111  0.00000000       0.033
   0.44444444  0.11111111  0.00000000       0.033
   0.22222222  0.22222222  0.00000000       0.016
   0.33333333  0.22222222  0.00000000       0.033
   0.44444444  0.22222222  0.00000000       0.033
   0.33333333  0.33333333  0.00000000       0.016
   0.44444444  0.33333333  0.00000000       0.033
   0.44444444  0.44444444  0.00000000       0.016
   0.11111111  0.11111111  0.11111111       0.011
   0.22222222  0.11111111  0.11111111       0.033
   0.33333333  0.11111111  0.11111111       0.033
   0.44444444  0.11111111  0.11111111       0.033
   0.22222222  0.22222222  0.11111111       0.033
   0.33333333  0.22222222  0.11111111       0.066
   0.44444444  0.22222222  0.11111111       0.066
   0.33333333  0.33333333  0.11111111       0.033
   0.44444444  0.33333333  0.11111111       0.066
   0.44444444  0.44444444  0.11111111       0.033
   0.22222222  0.22222222  0.22222222       0.011
   0.33333333  0.22222222  0.22222222       0.033
   0.44444444  0.22222222  0.22222222       0.033
   0.33333333  0.33333333  0.22222222       0.033
   0.44444444  0.33333333  0.22222222       0.066
   0.44444444  0.44444444  0.22222222       0.033
   0.33333333  0.33333333  0.33333333       0.011
   0.44444444  0.33333333  0.33333333       0.033
   0.44444444  0.44444444  0.33333333       0.033
   0.44444444  0.44444444  0.44444444       0.011
 
 position of ions in fractional coordinates (direct lattice) 
   0.00000000  0.00000000  0.00000000
   0.50000000  0.50000000  0.00000000
   0.50000000  0.00000000  0.50000000
   0.00000000  0.50000000  0.50000000
 
 position of ions in cartesian coordinates  (Angst):
   0.00000000  0.00000000  0.00000000
   1.84730038  1.84730038  0.00000000
   1.84730038  0.00000000  1.84730038
   0.00000000  1.84730038  1.84730038
 


--------------------------------------------------------------------------------------------------------


 k-point   1 :   0.0000 0.0000 0.0000  plane waves:     691
 k-point   2 :   0.1111 0.0000 0.0000  plane waves:     667
 k-point   3 :   0.2222 0.0000 0.0000  plane waves:     655
 k-point   4 :   0.3333 0.0000 0.0000  plane waves:     655
 k-point   5 :   0.4444 0.0000 0.0000  plane waves:     654
 k-point   6 :   0.1111 0.1111 0.0000  plane waves:     663
 k-point   7 :   0.2222 0.1111 0.0000  plane waves:     661
 k-point   8 :   0.3333 0.1111 0.0000  plane waves:     662
 k-point   9 :   0.4444 0.1111 0.0000  plane waves:     652
 k-point  10 :   0.2222 0.2222 0.0000  plane waves:     666
 k-point  11 :   0.3333 0.2222 0.0000  plane waves:     656
 k-point  12 :   0.4444 0.2222 0.0000  plane waves:     655
 k-point  13 :   0.3333 0.3333 0.0000  plane waves:     658
 k-point  14 :   0.4444 0.3333 0.0000  plane waves:     652
 k-point  15 :   0.4444 0.4444 0.0000  plane waves:     656
 k-point  16 :   0.1111 0.1111 0.1111  plane waves:     667
 k-point  17 :   0.2222 0.1111 0.1111  plane waves:     667
 k-point  18 :   0.3333 0.1111 0.1111  plane waves:     655
 k-point  19 :   0.4444 0.1111 0.1111  plane waves:     654
 k-point  20 :   0.2222 0.2222 0.1111  plane waves:     663
 k-point  21 :   0.3333 0.2222 0.1111  plane waves:     653
 k-point  22 :   0.4444 0.2222 0.1111  plane waves:     650
 k-point  23 :   0.3333 0.3333 0.1111  plane waves:     663
 k-point  24 :   0.4444 0.3333 0.1111  plane waves:     655
 k-point  25 :   0.4444 0.4444 0.1111  plane waves:     654
 k-point  26 :   0.2222 0.2222 0.2222  plane waves:     660
 k-point  27 :   0.3333 0.2222 0.2222  plane waves:     654
 k-point  28 :   0.4444 0.2222 0.2222  plane waves:     654
 k-point  29 :   0.3333 0.3333 0.2222  plane waves:     647
 k-point  30 :   0.4444 0.3333 0.2222  plane waves:     650
 k-point  31 :   0.4444 0.4444 0.2222  plane waves:     653
 k-point  32 :   0.3333 0.3333 0.3333  plane waves:     657
 k-point  33 :   0.4444 0.3333 0.3333  plane waves:     653
 k-point  34 :   0.4444 0.4444 0.3333  plane waves:     655
 k-point  35 :   0.4444 0.4444 0.4444  plane waves:     654

 maximum number of plane-waves:       691
 maximum index in each direction: 
   IXMAX=    5   IYMAX=    5   IZMAX=    5
   IXMIN=   -5   IYMIN=   -5   IZMIN=   -5


 total amount of memory used by VASP MPI-rank0    48212. kBytes
=======================================================================

   base      :      30000. kBytes
   nonl-proj :       3526. kBytes
   grid      :       1806. kBytes
   one-center:         62. kBytes
   wavefun   :      12818. kBytes
 
     INWAV:  cpu time    0.0000: real time    0.0000
 Broyden mixing: mesh for mixing (old mesh)
   NGX = 11   NGY = 11   NGZ = 11
  (NGX  = 32   NGY  = 32   NGZ  = 32)
  gives a total of   1331 points

 initial charge density was supplied:
 charge density of overlapping atoms calculated
 number of electron      44.0000000 magnetization 
 keeping initial charge density in first step


--------------------------------------------------------------------------------------------------------


 Maximum index for augmentation-charges         2301 (set IRDMAX)


--------------------------------------------------------------------------------------------------------


 First call to EWALD:  gamma=   0.480
 Maximum number of real-space cells 3x 3x 3
 Maximum number of reciprocal cells 3x 3x 3

    FEWALD:  cpu time    0.0009: real time    0.0009


--------------------------------------- Iteration      1(   1)  ---------------------------------------


    POTLOK:  cpu time    0.0077: real time    0.0078
    SETDIJ:  cpu time    0.0038: real time    0.0038
     EDDAV:  cpu time    0.4680: real time    0.4896
       DOS:  cpu time    0.0024: real time    0.0024
    --------------------------------------------
      LOOP:  cpu time    0.4819: real time    0.5035

 eigenvalue-minimisations  :  2188
 total energy-change (2. order) : 0.2904082E+03  (-0.1459367E+04)
 number of electron      44.0000000 magnetization 
 augmentation part       44.0000000 magnetization 

 Free energy of the ion-electron system (eV)
  ---------------------------------------------------
  alpha Z        PSCENC =       232.02226462
  Ewald energy   TEWEN  =     -4324.44327005
  -Hartree energ DENC   =     -1499.29538903
  -exchange      EXHF   =         0.00000000
  -V(xc)+E(xc)   XCENC  =       182.43276841
  PAW double counting   =      4912.82663951    -5336.19386850
  entropy T*S    EENTRO =         0.00112270
  eigenvalues    EBANDS =       559.28184040
  atomic energy  EATOM  =      5563.77610493
  Solvation  Ediel_sol  =         0.00000000
  ---------------------------------------------------
  free energy    TOTEN  =       290.40821297 eV

  energy without entropy =      290.40709027  energy(sigma->0) =      290.40783874


--------------------------------------------------------------------------------------------------------




--------------------------------------- Iteration      1(   2)  ---------------------------------------


     EDDAV:  cpu time    0.4144: real time    0.4145
       DOS:  cpu time    0.0026: real time    0.0026
    --------------------------------------------
      LOOP:  cpu time    0.4171: real time    0.4171

 eigenvalue-minimisations  :  2100
 total energy-change (2. order) :-0.2855934E+03  (-0.2756496E+03)
 number of electron      44.0000000 magnetization 
 augmentation part       44.0000000 magnetization 

 Free energy of the ion-electron system (eV)
  ---------------------------------------------------
  alpha Z        PSCENC =       232.02226462
  Ewald energy   TEWEN  =     -4324.44327005
  -Hartree energ DENC   =     -1499.29538903
  -exchange      EXHF   =         0.00000000
  -V(xc)+E(xc)   XCENC  =       182.43276841
  PAW double counting   =      4912.82663951    -5336.19386850
  entropy T*S    EENTRO =        -0.00418560
  eigenvalues    EBANDS =       273.69370370
  atomic energy  EATOM  =      5563.77610493
  Solvation  Ediel_sol  =         0.00000000
  ---------------------------------------------------
  free energy    TOTEN  =         4.81476797 eV

  energy without entropy =        4.81895357  energy(sigma->0) =        4.81616317


--------------------------------------------------------------------------------------------------------




--------------------------------------- Iteration      1(   3)  ---------------------------------------


     EDDAV:  cpu time    0.4439: real time    0.4439
       DOS:  cpu time    0.0028: real time    0.0028
    --------------------------------------------
      LOOP:  cpu time    0.4467: real time    0.4467

 eigenvalue-minimisations  :  2316
 total energy-change (2. order) :-0.2271922E+02  (-0.2173259E+02)
 number of electron      44.0000000 magnetization 
 augmentation part       44.0000000 magnetization 

 Free energy of the ion-electron system (eV)
  ---------------------------------------------------
  alpha Z        PSCENC =       232.02226462
  Ewald energy   TEWEN  =     -4324.44327005
  -Hartree energ DENC   =     -1499.29538903
  -exchange      EXHF   =         0.00000000
  -V(xc)+E(xc)   XCENC  =       182.43276841
  PAW double counting   =      4912.82663951    -5336.19386850
  entropy T*S    EENTRO =        -0.00313414
  eigenvalues    EBANDS =       250.97343233
  atomic energy  EATOM  =      5563.77610493
  Solvation  Ediel_sol  =         0.00000000
  ---------------------------------------------------
  free energy    TOTEN  =       -17.90445194 eV

  energy without entropy =      -17.90131780  energy(sigma->0) =      -17.90340723


--------------------------------------------------------------------------------------------------------




--------------------------------------- Iteration      1(   4)  ---------------------------------------


     EDDAV:  cpu time    0.4617: real time    0.4617
       DOS:  cpu time    0.0027: real time    0.0027
    --------------------------------------------
      LOOP:  cpu time    0.4644: real time    0.4644

 eigenvalue-minimisations  :  2432
 total energy-change (2. order) :-0.4559313E+00  (-0.4553915E+00)
 number of electron      44.0000000 magnetization 
 augmentation part       44.0000000 magnetization 

 Free energy of the ion-electron system (eV)
  ---------------------------------------------------
  alpha Z        PSCENC =       232.02226462
  Ewald energy   TEWEN  =     -4324.44327005
  -Hartree energ DENC   =     -1499.29538903
  -exchange      EXHF   =         0.00000000
  -V(xc)+E(xc)   XCENC  =       182.43276841
  PAW double counting   =      4912.82663951    -5336.19386850
  entropy T*S    EENTRO =        -0.00293406
  eigenvalues    EBANDS =       250.51730092
  atomic energy  EATOM  =      5563.77610493
  Solvation  Ediel_sol  =         0.00000000
  ---------------------------------------------------
  free energy    TOTEN  =       -18.36038326 eV

  energy without entropy =      -18.35744920  energy(sigma->0) =      -18.35940524


--------------------------------------------------------------------------------------------------------




--------------------------------------- Iteration      1(   5)  ---------------------------------------


     EDDAV:  cpu time    0.5017: real time    0.5017
       DOS:  cpu time    0.0027: real time    0.0027
    CHARGE:  cpu time    0.0315: real time    0.0315
    MIXING:  cpu time    0.0003: real time    0.0003
    --------------------------------------------
      LOOP:  cpu time    0.5362: real time    0.5362

 eigenvalue-minimisations  :  2730
 total energy-change (2. order) :-0.5393979E-02  (-0.5393847E-02)
 number of electron      44.0001666 magnetization 
 augmentation part       25.9948000 magnetization 

 Broyden mixing:
  rms(total) = 0.15039E+01    rms(broyden)= 0.15037E+01
  rms(prec ) = 0.35084E+01
  weight for this iteration     100.00

 Free energy of the ion-electron system (eV)
  ---------------------------------------------------
  alpha Z        PSCENC =       232.02226462
  Ewald energy   TEWEN  =     -4324.44327005
  -Hartree energ DENC   =     -1499.29538903
  -exchange      EXHF   =         0.00000000
  -V(xc)+E(xc)   XCENC  =       182.43276841
  PAW double counting   =      4912.82663951    -5336.19386850
  entropy T*S    EENTRO =        -0.00293411
  eigenvalues    EBANDS =       250.51190699
  atomic energy  EATOM  =      5563.77610493
  Solvation  Ediel_sol  =         0.00000000
  ---------------------------------------------------
  free energy    TOTEN  =       -18.36577724 eV

  energy without entropy =      -18.36284313  energy(sigma->0) =      -18.36479920


--------------------------------------------------------------------------------------------------------




--------------------------------------- Iteration      1(   6)  ---------------------------------------


    POTLOK:  cpu time    0.0069: real time    0.0069
    SETDIJ:  cpu time    0.0037: real time    0.0037
     EDDAV:  cpu time    0.4266: real time    0.4266
       DOS:  cpu time    0.0026: real time    0.0026
    CHARGE:  cpu time    0.0303: real time    0.0303
    MIXING:  cpu time    0.0003: real time    0.0003
    --------------------------------------------
      LOOP:  cpu time    0.4704: real time    0.4704

 eigenvalue-minimisations  :  2286
 total energy-change (2. order) : 0.1874464E+01  (-0.3059652E+01)
 number of electron      44.0001819 magnetization 
 augmentation part       29.3677163 magnetization 

 Broyden mixing:
  rms(total) = 0.83693E+00    rms(broyden)= 0.83640E+00
  rms(prec ) = 0.17768E+01
  weight for this iteration     100.00

 eigenvalues of (default mixing * dielectric matrix)
  average eigenvalue GAMMA=   0.6431
  0.6431

 Free energy of the ion-electron system (eV)
  ---------------------------------------------------
  alpha Z        PSCENC =       232.02226462
  Ewald energy   TEWEN  =     -4324.44327005
  -Hartree energ DENC   =     -1386.56190864
  -exchange      EXHF   =         0.00000000
  -V(xc)+E(xc)   XCENC  =       176.88470130
  PAW double counting   =      4947.31814867    -5347.94906988
  entropy T*S    EENTRO =         0.00015207
  eigenvalues    EBANDS =       122.46156333
  atomic energy  EATOM  =      5563.77610493
  Solvation  Ediel_sol  =         0.00000000
  ---------------------------------------------------
  free energy    TOTEN  =       -16.49131366 eV

  energy without entropy =      -16.49146573  energy(sigma->0) =      -16.49136435


--------------------------------------------------------------------------------------------------------




--------------------------------------- Iteration      1(   7)  ---------------------------------------


    POTLOK:  cpu time    0.0069: real time    0.0069
    SETDIJ:  cpu time    0.0038: real time    0.0038
     EDDAV:  cpu time    0.4297: real time    0.4297
       DOS:  cpu time    0.0026: real time    0.0026
    CHARGE:  cpu time    0.0305: real time    0.0305
    MIXING:  cpu time    0.0003: real time    0.0003
    --------------------------------------------
      LOOP:  cpu time    0.4738: real time    0.4738

 eigenvalue-minimisations  :  2360
 total energy-change (2. order) : 0.1551994E+01  (-0.5989353E+00)
 number of electron      44.0001757 magnetization 
 augmentation part       28.0658377 magnetization 

 Broyden mixing:
  rms(total) = 0.89228E-01    rms(broyden)= 0.88912E-01
  rms(prec ) = 0.22084E+00
  weight for this iteration     100.00

 eigenvalues of (default mixing * dielectric matrix)
  average eigenvalue GAMMA=   1.2950
  1.9576  0.6324

 Free energy of the ion-electron system (eV)
  ---------------------------------------------------
  alpha Z        PSCENC =       232.02226462
  Ewald energy   TEWEN  =     -4324.44327005
  -Hartree energ DENC   =     -1422.73788945
  -exchange      EXHF   =         0.00000000
  -V(xc)+E(xc)   XCENC  =       178.77006717
  PAW double counting   =      5039.38692288    -5459.10360616
  entropy T*S    EENTRO =         0.00209134
  eigenvalues    EBANDS =       177.38799499
  atomic energy  EATOM  =      5563.77610493
  Solvation  Ediel_sol  =         0.00000000
  ---------------------------------------------------
  free energy    TOTEN  =       -14.93931975 eV

  energy without entropy =      -14.94141108  energy(sigma->0) =      -14.94001686


--------------------------------------------------------------------------------------------------------




--------------------------------------- Iteration      1(   8)  ---------------------------------------


    POTLOK:  cpu time    0.0070: real time    0.0070
    SETDIJ:  cpu time    0.0037: real time    0.0037
     EDDAV:  cpu time    0.4880: real time    0.4881
       DOS:  cpu time    0.0026: real time    0.0026
    CHARGE:  cpu time    0.0302: real time    0.0302
    MIXING:  cpu time    0.0003: real time    0.0003
    --------------------------------------------
      LOOP:  cpu time    0.5318: real time    0.5318

 eigenvalue-minimisations  :  2774
 total energy-change (2. order) : 0.2245502E-01  (-0.8922375E-02)
 number of electron      44.0001752 magnetization 
 augmentation part       27.9861387 magnetization 

 Broyden mixing:
  rms(total) = 0.81542E-01    rms(broyden)= 0.81518E-01
  rms(prec ) = 0.19545E+00
  weight for this iteration     100.00

 eigenvalues of (default mixing * dielectric matrix)
  average eigenvalue GAMMA=   1.2845
  0.6816  0.7935  2.3784

 Free energy of the ion-electron system (eV)
  ---------------------------------------------------
  alpha Z        PSCENC =       232.02226462
  Ewald energy   TEWEN  =     -4324.44327005
  -Hartree energ DENC   =     -1414.67942811
  -exchange      EXHF   =         0.00000000
  -V(xc)+E(xc)   XCENC  =       178.46479315
  PAW double counting   =      5158.31344327    -5587.08514385
  entropy T*S    EENTRO =         0.00216045
  eigenvalues    EBANDS =       178.71221089
  atomic energy  EATOM  =      5563.77610493
  Solvation  Ediel_sol  =         0.00000000
  ---------------------------------------------------
  free energy    TOTEN  =       -14.91686473 eV

  energy without entropy =      -14.91902517  energy(sigma->0) =      -14.91758487


--------------------------------------------------------------------------------------------------------




--------------------------------------- Iteration      1(   9)  ---------------------------------------


    POTLOK:  cpu time    0.0069: real time    0.0069
    SETDIJ:  cpu time    0.0037: real time    0.0037
     EDDAV:  cpu time    0.4736: real time    0.4736
       DOS:  cpu time    0.0025: real time    0.0025
    CHARGE:  cpu time    0.0503: real time    0.0503
    MIXING:  cpu time    0.0004: real time    0.0004
    --------------------------------------------
      LOOP:  cpu time    0.5373: real time    0.5373

 eigenvalue-minimisations  :  2402
 total energy-change (2. order) : 0.1165869E-01  (-0.2907881E-02)
 number of electron      44.0001757 magnetization 
 augmentation part       28.0958627 magnetization 

 Broyden mixing:
  rms(total) = 0.42270E-02    rms(broyden)= 0.41804E-02
  rms(prec ) = 0.78012E-02
  weight for this iteration     100.00

 eigenvalues of (default mixing * dielectric matrix)
  average eigenvalue GAMMA=   1.5339
  0.6638  0.9119  2.6659  1.8942

 Free energy of the ion-electron system (eV)
  ---------------------------------------------------
  alpha Z        PSCENC =       232.02226462
  Ewald energy   TEWEN  =     -4324.44327005
  -Hartree energ DENC   =     -1408.19019927
  -exchange      EXHF   =         0.00000000
  -V(xc)+E(xc)   XCENC  =       178.17222287
  PAW double counting   =      5188.26654934    -5618.53984249
  entropy T*S    EENTRO =         0.00200429
  eigenvalues    EBANDS =       174.02895973
  atomic energy  EATOM  =      5563.77610493
  Solvation  Ediel_sol  =         0.00000000
  ---------------------------------------------------
  free energy    TOTEN  =       -14.90520603 eV

  energy without entropy =      -14.90721033  energy(sigma->0) =      -14.90587413


--------------------------------------------------------------------------------------------------------




--------------------------------------- Iteration      1(  10)  ---------------------------------------


    POTLOK:  cpu time    0.0069: real time    0.0069
    SETDIJ:  cpu time    0.0037: real time    0.0037
     EDDAV:  cpu time    0.4735: real time    0.4735
       DOS:  cpu time    0.0026: real time    0.0026
    CHARGE:  cpu time    0.0301: real time    0.0301
    MIXING:  cpu time    0.0004: real time    0.0004
    --------------------------------------------
      LOOP:  cpu time    0.5173: real time    0.5173

 eigenvalue-minimisations  :  2690
 total energy-change (2. order) :-0.1060731E-03  (-0.9352635E-04)
 number of electron      44.0001757 magnetization 
 augmentation part       28.0918177 magnetization 

 Broyden mixing:
  rms(total) = 0.12176E-02    rms(broyden)= 0.12166E-02
  rms(prec ) = 0.15088E-02
  weight for this iteration     100.00

 eigenvalues of (default mixing * dielectric matrix)
  average eigenvalue GAMMA=   1.4694
  2.6337  2.3642  0.6607  0.8442  0.8442

 Free energy of the ion-electron system (eV)
  ---------------------------------------------------
  alpha Z        PSCENC =       232.02226462
  Ewald energy   TEWEN  =     -4324.44327005
  -Hartree energ DENC   =     -1408.51839976
  -exchange      EXHF   =         0.00000000
  -V(xc)+E(xc)   XCENC  =       178.18829832
  PAW double counting   =      5183.86775416    -5614.00649217
  entropy T*S    EENTRO =         0.00200833
  eigenvalues    EBANDS =       174.20641953
  atomic energy  EATOM  =      5563.77610493
  Solvation  Ediel_sol  =         0.00000000
  ---------------------------------------------------
  free energy    TOTEN  =       -14.90531211 eV

  energy without entropy =      -14.90732043  energy(sigma->0) =      -14.90598155


--------------------------------------------------------------------------------------------------------




--------------------------------------- Iteration      1(  11)  ---------------------------------------


    POTLOK:  cpu time    0.0069: real time    0.0069
    SETDIJ:  cpu time    0.0037: real time    0.0037
     EDDAV:  cpu time    0.4392: real time    0.4392
       DOS:  cpu time    0.0025: real time    0.0025
    CHARGE:  cpu time    0.0306: real time    0.0306
    MIXING:  cpu time    0.0004: real time    0.0004
    --------------------------------------------
      LOOP:  cpu time    0.4833: real time    0.4833

 eigenvalue-minimisations  :  2420
 total energy-change (2. order) : 0.1707001E-05  (-0.1656293E-05)
 number of electron      44.0001757 magnetization 
 augmentation part       28.0922622 magnetization 

 Broyden mixing:
  rms(total) = 0.75462E-03    rms(broyden)= 0.75443E-03
  rms(prec ) = 0.18446E-02
  weight for this iteration     100.00

 eigenvalues of (default mixing * dielectric matrix)
  average eigenvalue GAMMA=   1.4952
  2.6254  2.4693  0.6627  0.9499  1.1161  1.1478

 Free energy of the ion-electron system (eV)
  ---------------------------------------------------
  alpha Z        PSCENC =       232.02226462
  Ewald energy   TEWEN  =     -4324.44327005
  -Hartree energ DENC   =     -1408.66236919
  -exchange      EXHF   =         0.00000000
  -V(xc)+E(xc)   XCENC  =       178.19471626
  PAW double counting   =      5180.27846120    -5610.27481843
  entropy T*S    EENTRO =         0.00200666
  eigenvalues    EBANDS =       174.20159361
  atomic energy  EATOM  =      5563.77610493
  Solvation  Ediel_sol  =         0.00000000
  ---------------------------------------------------
  free energy    TOTEN  =       -14.90531040 eV

  energy without entropy =      -14.90731706  energy(sigma->0) =      -14.90597929


--------------------------------------------------------------------------------------------------------




--------------------------------------- Iteration      1(  12)  ---------------------------------------


    POTLOK:  cpu time    0.0068: real time    0.0068
    SETDIJ:  cpu time    0.0037: real time    0.0037
     EDDAV:  cpu time    0.3071: real time    0.3071
       DOS:  cpu time    0.0025: real time    0.0025
    CHARGE:  cpu time    0.0303: real time    0.0303
    MIXING:  cpu time    0.0004: real time    0.0004
    --------------------------------------------
      LOOP:  cpu time    0.3508: real time    0.3509

 eigenvalue-minimisations  :  1426
 total energy-change (2. order) :-0.2914971E-05  (-0.8441891E-07)
 number of electron      44.0001757 magnetization 
 augmentation part       28.0929428 magnetization 

 Broyden mixing:
  rms(total) = 0.84040E-04    rms(broyden)= 0.83557E-04
  rms(prec ) = 0.18004E-03
  weight for this iteration     100.00

 eigenvalues of (default mixing * dielectric matrix)
  average eigenvalue GAMMA=   1.5632
  2.6852  2.3495  2.3495  0.6627  0.9511  0.9511  0.9932

 Free energy of the ion-electron system (eV)
  ---------------------------------------------------
  alpha Z        PSCENC =       232.02226462
  Ewald energy   TEWEN  =     -4324.44327005
  -Hartree energ DENC   =     -1408.56169124
  -exchange      EXHF   =         0.00000000
  -V(xc)+E(xc)   XCENC  =       178.19037378
  PAW double counting   =      5181.08573739    -5611.14273806
  entropy T*S    EENTRO =         0.00200573
  eigenvalues    EBANDS =       174.16589960
  atomic energy  EATOM  =      5563.77610493
  Solvation  Ediel_sol  =         0.00000000
  ---------------------------------------------------
  free energy    TOTEN  =       -14.90531331 eV

  energy without entropy =      -14.90731905  energy(sigma->0) =      -14.90598189


--------------------------------------------------------------------------------------------------------




--------------------------------------- Iteration      1(  13)  ---------------------------------------


    POTLOK:  cpu time    0.0070: real time    0.0070
    SETDIJ:  cpu time    0.0037: real time    0.0037
     EDDAV:  cpu time    0.2879: real time    0.2880
       DOS:  cpu time    0.0025: real time    0.0025
    --------------------------------------------
      LOOP:  cpu time    0.3012: real time    0.3012

 eigenvalue-minimisations  :  1266
 total energy-change (2. order) :-0.2927991E-06  (-0.3380133E-07)
 number of electron      44.0001757 magnetization 
 augmentation part       28.0929428 magnetization 

 Free energy of the ion-electron system (eV)
  ---------------------------------------------------
  alpha Z        PSCENC =       232.02226462
  Ewald energy   TEWEN  =     -4324.44327005
  -Hartree energ DENC   =     -1408.56315212
  -exchange      EXHF   =         0.00000000
  -V(xc)+E(xc)   XCENC  =       178.19036493
  PAW double counting   =      5181.05434028    -5611.11173335
  entropy T*S    EENTRO =         0.00200582
  eigenvalues    EBANDS =       174.16776135
  atomic energy  EATOM  =      5563.77610493
  Solvation  Ediel_sol  =         0.00000000
  ---------------------------------------------------
  free energy    TOTEN  =       -14.90531361 eV

  energy without entropy =      -14.90731942  energy(sigma->0) =      -14.90598221


--------------------------------------------------------------------------------------------------------




 average (electrostatic) potential at core
  the test charge radii are     0.9430
  (the norm of the test charge is              1.0000)
       1 -64.3326       2 -64.3326       3 -64.3326       4 -64.3326
 
 
 
 E-fermi :   6.7522     XC(G=0): -12.3519     alpha+bet :-12.5749

 Fermi energy:         6.7521607149

 k-point     1 :       0.0000    0.0000    0.0000
  band No.  band energies     occupation 
      1      -2.0644      2.00000
      2       2.2963      2.00000
      3       2.2963      2.00000
      4       2.2963      2.00000
      5       2.7124      2.00000
      6       2.7124      2.00000
      7       2.7124      2.00000
      8       3.9709      2.00000
      9       3.9709      2.00000
     10       3.9709      2.00000
     11       4.7175      2.00000
     12       4.7175      2.00000
     13       5.2146      2.00000
     14       5.2146      2.00000
     15       5.2146      2.00000
     16       5.3559      2.00000
     17       5.3559      2.00000
     18       5.3559      2.00000
     19       5.3559      2.00000
     20       5.3559      2.00000
     21       5.3559      2.00000
     22       8.3478     -0.00000
     23       8.3478     -0.00000
     24       8.3478     -0.00000
     25      13.4710      0.00000
     26      13.4710      0.00000
     27      13.4710      0.00000
     28      19.3838      0.00000
     29      19.3838      0.00000
     30      19.3838      0.00000

 k-point     2 :       0.1111    0.0000    0.0000
  band No.  band energies     occupation 
      1      -1.9212      2.00000
      2       2.2906      2.00000
      3       2.3606      2.00000
      4       2.3606      2.00000
      5       2.7486      2.00000
      6       2.7508      2.00000
      7       2.7508      2.00000
      8       3.9311      2.00000
      9       4.0031      2.00000
     10       4.0031      2.00000
     11       4.6815      2.00000
     12       4.7322      2.00000
     13       5.1354      2.00000
     14       5.1354      2.00000
     15       5.1680      2.00000
     16       5.1680      2.00000
     17       5.1993      2.00000
     18       5.3010      2.00000
     19       5.3010      2.00000
     20       5.3560      2.00000
     21       5.3560      2.00000
     22       7.4972     -0.00000
     23       8.6983     -0.00000
     24       8.6983     -0.00000
     25      13.5276      0.00000
     26      13.5276      0.00000
     27      14.6121      0.00000
     28      18.4948      0.00000
     29      18.4948      0.00000
     30      18.7743      0.00000

 k-point     3 :       0.2222    0.0000    0.0000
  band No.  band energies     occupation 
      1      -1.4971      2.00000
      2       2.2178      2.00000
      3       2.5369      2.00000
      4       2.5369      2.00000
      5       2.8532      2.00000
      6       2.8668      2.00000
      7       2.8668      2.00000
      8       3.8170      2.00000
      9       4.0983      2.00000
     10       4.0983      2.00000
     11       4.5812      2.00000
     12       4.6644      2.00000
     13       4.6644      2.00000
     14       4.7745      2.00000
     15       5.0365      2.00000
     16       5.0365      2.00000
     17       5.1489      2.00000
     18       5.1489      2.00000
     19       5.1555      2.00000
     20       5.3563      2.00000
     21       5.3563      2.00000
     22       6.0135      2.00000
     23       9.5577     -0.00000
     24       9.5577     -0.00000
     25      13.7068      0.00000
     26      13.7068      0.00000
     27      16.8518      0.00000
     28      16.8518      0.00000
     29      17.0120      0.00000
     30      17.5473      0.00000

 k-point     4 :       0.3333    0.0000    0.0000
  band No.  band energies     occupation 
      1      -0.8107      2.00000
      2       1.8774      2.00000
      3       2.7695      2.00000
      4       2.7695      2.00000
      5       3.0151      2.00000
      6       3.0640      2.00000
      7       3.0640      2.00000
      8       3.6443      2.00000
      9       4.1621      2.00000
     10       4.1621      2.00000
     11       4.2520      2.00000
     12       4.2520      2.00000
     13       4.4420      2.00000
     14       4.8398      2.00000
     15       4.8500      2.00000
     16       4.8543      2.00000
     17       4.8543      2.00000
     18       4.9322      2.00000
     19       4.9322      2.00000
     20       5.0881      2.00000
     21       5.3565      2.00000
     22       5.3565      2.00000
     23      10.7022     -0.00000
     24      10.7022     -0.00000
     25      14.0348      0.00000
     26      14.0348      0.00000
     27      15.1476      0.00000
     28      15.1476      0.00000
     29      16.3270      0.00000
     30      16.3270      0.00000

 k-point     5 :       0.4444    0.0000    0.0000
  band No.  band energies     occupation 
      1       0.0912      2.00000
      2       1.0857      2.00000
      3       2.9512      2.00000
      4       2.9512      2.00000
      5       3.2169      2.00000
      6       3.3460      2.00000
      7       3.3460      2.00000
      8       3.4354      2.00000
      9       3.7138      2.00000
     10       3.7138      2.00000
     11       4.3228      2.00000
     12       4.3592      2.00000
     13       4.4542      2.00000
     14       4.4542      2.00000
     15       4.6894      2.00000
     16       4.6894      2.00000
     17       4.7052      2.00000
     18       4.7052      2.00000
     19       4.9202      2.00000
     20       5.0065      2.00000
     21       5.3566      2.00000
     22       5.3566      2.00000
     23      12.0387     -0.00000
     24      12.0387     -0.00000
     25      13.5292      0.00000
     26      13.5292      0.00000
     27      14.5456      0.00000
     28      14.5456      0.00000
     29      15.3284      0.00000
     30      15.3284      0.00000

 k-point     6 :       0.1111    0.1111    0.0000
  band No.  band energies     occupation 
      1      -1.7791      2.00000
      2       2.3576      2.00000
      3       2.3576      2.00000
      4       2.4221      2.00000
      5       2.7857      2.00000
      6       2.7857      2.00000
      7       2.7868      2.00000
      8       3.9098      2.00000
      9       4.0182      2.00000
     10       4.0294      2.00000
     11       4.6724      2.00000
     12       4.7259      2.00000
     13       4.9864      2.00000
     14       5.0331      2.00000
     15       5.0331      2.00000
     16       5.1250      2.00000
     17       5.1821      2.00000
     18       5.1821      2.00000
     19       5.3008      2.00000
     20       5.3008      2.00000
     21       5.3205      2.00000
     22       7.8381     -0.00000
     23       7.8381     -0.00000
     24       9.0134     -0.00000
     25      13.5857      0.00000
     26      14.6964      0.00000
     27      14.6964      0.00000
     28      16.8489      0.00000
     29      18.6831      0.00000
     30      18.6834      0.00000

 k-point     7 :       0.2222    0.1111    0.0000
  band No.  band energies     occupation 
      1      -1.3582      2.00000
      2       2.2942      2.00000
      3       2.5424      2.00000
      4       2.5903      2.00000
      5       2.8865      2.00000
      6       2.8953      2.00000
      7       2.8978      2.00000
      8       3.8096      2.00000
      9       4.1038      2.00000
     10       4.1046      2.00000
     11       4.5600      2.00000
     12       4.5893      2.00000
     13       4.5905      2.00000
     14       4.7701      2.00000
     15       4.7989      2.00000
     16       5.0026      2.00000
     17       5.0464      2.00000
     18       5.1415      2.00000
     19       5.1482      2.00000
     20       5.3003      2.00000
     21       5.3017      2.00000
     22       6.4117      2.03690
     23       8.6197     -0.00000
     24       9.8188     -0.00000
     25      13.7644      0.00000
     26      14.9594      0.00000
     27      15.0826      0.00000
     28      17.0280      0.00000
     29      17.1161      0.00000
     30      17.7105      0.00000

 k-point     8 :       0.3333    0.1111    0.0000
  band No.  band energies     occupation 
      1      -0.6777      2.00000
      2       1.9693      2.00000
      3       2.7896      2.00000
      4       2.8174      2.00000
      5       3.0426      2.00000
      6       3.0721      2.00000
      7       3.0880      2.00000
      8       3.6461      2.00000
      9       4.0707      2.00000
     10       4.1310      2.00000
     11       4.1984      2.00000
     12       4.2541      2.00000
     13       4.4330      2.00000
     14       4.4951      2.00000
     15       4.8324      2.00000
     16       4.8513      2.00000
     17       4.8651      2.00000
     18       4.9314      2.00000
     19       5.0277      2.00000
     20       5.2977      2.00000
     21       5.2994      2.00000
     22       5.4336      2.00000
     23       9.6095     -0.00000
     24      10.9251     -0.00000
     25      13.4208      0.00000
     26      14.1505      0.00000
     27      15.3239      0.00000
     28      15.4270      0.00000
     29      16.4671      0.00000
     30      18.2352      0.00000

 k-point     9 :       0.4444    0.1111    0.0000
  band No.  band energies     occupation 
      1       0.2146      2.00000
      2       1.1947      2.00000
      3       2.9910      2.00000
      4       3.0029      2.00000
      5       3.2368      2.00000
      6       3.3123      2.00000
      7       3.3588      2.00000
      8       3.4464      2.00000
      9       3.6452      2.00000
     10       3.7097      2.00000
     11       4.1919      2.00000
     12       4.1949      2.00000
     13       4.4548      2.00000
     14       4.5584      2.00000
     15       4.6889      2.00000
     16       4.6972      2.00000
     17       4.7107      2.00000
     18       4.7859      2.00000
     19       4.9568      2.00000
     20       5.0944      2.00000
     21       5.2975      2.00000
     22       5.2983      2.00000
     23      10.7393     -0.00000
     24      12.0067     -0.00000
     25      12.2374      0.00000
     26      13.7130      0.00000
     27      14.6663      0.00000
     28      15.4336      0.00000
     29      16.1369      0.00000
     30      17.0849      0.00000

 k-point    10 :       0.2222    0.2222    0.0000
  band No.  band energies     occupation 
      1      -0.9474      2.00000
      2       2.5067      2.00000
      3       2.5067      2.00000
      4       2.7357      2.00000
      5       2.9810      2.00000
      6       2.9872      2.00000
      7       2.9872      2.00000
      8       3.7578      2.00000
      9       4.1238      2.00000
     10       4.1526      2.00000
     11       4.3070      2.00000
     12       4.3070      2.00000
     13       4.3603      2.00000
     14       4.5628      2.00000
     15       4.8158      2.00000
     16       4.9040      2.00000
     17       5.0241      2.00000
     18       5.0241      2.00000
     19       5.1465      2.00000
     20       5.1465      2.00000
     21       5.2157      2.00000
     22       7.1352     -0.02082
     23       7.1352     -0.02082
     24      10.5262     -0.00000
     25      13.1479      0.00000
     26      14.0258      0.00000
     27      17.4319      0.00000
     28      17.4319      0.00000
     29      17.5405      0.00000
     30      17.5405      0.00000

 k-point    11 :       0.3333    0.2222    0.0000
  band No.  band energies     occupation 
      1      -0.2863      2.00000
      2       2.2262      2.00000
      3       2.7996      2.00000
      4       2.9373      2.00000
      5       3.1088      2.00000
      6       3.1248      2.00000
      7       3.1566      2.00000
      8       3.6384      2.00000
      9       3.8625      2.00000
     10       4.0321      2.00000
     11       4.0404      2.00000
     12       4.1307      2.00000
     13       4.2767      2.00000
     14       4.5084      2.00000
     15       4.7641      2.00000
     16       4.8536      2.00000
     17       4.9214      2.00000
     18       4.9298      2.00000
     19       4.9451      2.00000
     20       5.1447      2.00000
     21       5.1680      2.00000
     22       6.0188      2.00000
     23       7.9864     -0.00000
     24      11.5238     -0.00000
     25      11.5510     -0.00000
     26      14.3841      0.00000
     27      15.8363      0.00000
     28      16.8783      0.00000
     29      17.9832      0.00000
     30      18.3494      0.00000

 k-point    12 :       0.4444    0.2222    0.0000
  band No.  band energies     occupation 
      1       0.5737      2.00000
      2       1.5053      2.00000
      3       3.0668      2.00000
      4       3.1476      2.00000
      5       3.2188      2.00000
      6       3.2942      2.00000
      7       3.3940      2.00000
      8       3.4739      2.00000
      9       3.4924      2.00000
     10       3.6928      2.00000
     11       3.9694      2.00000
     12       4.0571      2.00000
     13       4.4635      2.00000
     14       4.5656      2.00000
     15       4.6593      2.00000
     16       4.6904      2.00000
     17       4.6963      2.00000
     18       4.7393      2.00000
     19       5.1336      2.00000
     20       5.1444      2.00000
     21       5.1496      2.00000
     22       5.4266      2.00000
     23       8.9712     -0.00000
     24      10.1348     -0.00000
     25      12.8064      0.00000
     26      14.2450      0.00000
     27      14.9654      0.00000
     28      15.7919      0.00000
     29      18.7561      0.00000
     30      19.4073      0.00000

 k-point    13 :       0.3333    0.3333    0.0000
  band No.  band energies     occupation 
      1       0.3371      2.00000
      2       2.5847      2.00000
      3       2.5847      2.00000
      4       3.0427      2.00000
      5       3.2148      2.00000
      6       3.2598      2.00000
      7       3.2598      2.00000
      8       3.5932      2.00000
      9       3.7251      2.00000
     10       3.7251      2.00000
     11       3.8640      2.00000
     12       4.0741      2.00000
     13       4.3536      2.00000
     14       4.4520      2.00000
     15       4.6564      2.00000
     16       4.7646      2.00000
     17       4.7646      2.00000
     18       4.9312      2.00000
     19       4.9312      2.00000
     20       5.0486      2.00000
     21       5.1473      2.00000
     22       6.6936      1.47272
     23       6.6936      1.47272
     24       9.8864     -0.00000
     25      12.4950      0.00000
     26      14.8198      0.00000
     27      16.6449      0.00000
     28      16.6449      0.00000
     29      17.5576      0.00000
     30      17.5576      0.00000

 k-point    14 :       0.4444    0.3333    0.0000
  band No.  band energies     occupation 
      1       1.1308      2.00000
      2       1.9612      2.00000
      3       2.9197      2.00000
      4       3.0696      2.00000
      5       3.3498      2.00000
      6       3.3822      2.00000
      7       3.4416      2.00000
      8       3.4967      2.00000
      9       3.5016      2.00000
     10       3.6533      2.00000
     11       3.8022      2.00000
     12       3.9624      2.00000
     13       4.4693      2.00000
     14       4.5008      2.00000
     15       4.5726      2.00000
     16       4.6055      2.00000
     17       4.6156      2.00000
     18       4.7035      2.00000
     19       4.9424      2.00000
     20       4.9759      2.00000
     21       5.4363      2.00000
     22       5.8870      2.00000
     23       7.5123     -0.00000
     24       8.5548     -0.00000
     25      13.6863      0.00000
     26      15.0795      0.00000
     27      15.4776      0.00000
     28      16.3865      0.00000
     29      17.7061      0.00000
     30      18.4896      0.00000

 k-point    15 :       0.4444    0.4444    0.0000
  band No.  band energies     occupation 
      1       1.8031      2.00000
      2       2.4495      2.00000
      3       2.4495      2.00000
      4       2.8322      2.00000
      5       3.4854      2.00000
      6       3.4854      2.00000
      7       3.5087      2.00000
      8       3.5479      2.00000
      9       3.5826      2.00000
     10       3.6849      2.00000
     11       3.6849      2.00000
     12       3.8610      2.00000
     13       4.4080      2.00000
     14       4.4753      2.00000
     15       4.4826      2.00000
     16       4.4826      2.00000
     17       4.5913      2.00000
     18       4.7446      2.00000
     19       4.7446      2.00000
     20       4.8330      2.00000
     21       5.8530      2.00000
     22       6.4901      2.06891
     23       6.4901      2.06891
     24       7.3445     -0.00023
     25      14.8205      0.00000
     26      16.1692      0.00000
     27      16.1692      0.00000
     28      16.2252      0.00000
     29      17.2275      0.00000
     30      17.2275      0.00000

 k-point    16 :       0.1111    0.1111    0.1111
  band No.  band energies     occupation 
      1      -1.6381      2.00000
      2       2.4210      2.00000
      3       2.4210      2.00000
      4       2.4210      2.00000
      5       2.8207      2.00000
      6       2.8207      2.00000
      7       2.8207      2.00000
      8       3.8915      2.00000
      9       4.0408      2.00000
     10       4.0408      2.00000
     11       4.6944      2.00000
     12       4.6944      2.00000
     13       4.9018      2.00000
     14       4.9018      2.00000
     15       4.9018      2.00000
     16       5.0738      2.00000
     17       5.0738      2.00000
     18       5.0738      2.00000
     19       5.3077      2.00000
     20       5.3077      2.00000
     21       5.3077      2.00000
     22       8.1297     -0.00000
     23       8.1297     -0.00000
     24       8.1297     -0.00000
     25      14.7826      0.00000
     26      14.7826      0.00000
     27      14.7826      0.00000
     28      17.0247      0.00000
     29      17.0247      0.00000
     30      17.0247      0.00000

 k-point    17 :       0.2222    0.1111    0.1111
  band No.  band energies     occupation 
      1      -1.2208      2.00000
      2       2.3644      2.00000
      3       2.5952      2.00000
      4       2.5952      2.00000
      5       2.9192      2.00000
      6       2.9259      2.00000
      7       2.9259      2.00000
      8       3.8039      2.00000
      9       4.1046      2.00000
     10       4.1089      2.00000
     11       4.4968      2.00000
     12       4.4968      2.00000
     13       4.6143      2.00000
     14       4.6497      2.00000
     15       4.7572      2.00000
     16       4.9403      2.00000
     17       4.9669      2.00000
     18       4.9669      2.00000
     19       5.2624      2.00000
     20       5.2870      2.00000
     21       5.2870      2.00000
     22       6.6872      1.51902
     23       8.8440     -0.00000
     24       8.8440     -0.00000
     25      15.0354      0.00000
     26      15.0354      0.00000
     27      15.2636      0.00000
     28      15.2636      0.00000
     29      17.2175      0.00000
     30      17.5408      0.00000

 k-point    18 :       0.3333    0.1111    0.1111
  band No.  band energies     occupation 
      1      -0.5472      2.00000
      2       2.0523      2.00000
      3       2.8323      2.00000
      4       2.8323      2.00000
      5       3.0715      2.00000
      6       3.0945      2.00000
      7       3.0945      2.00000
      8       3.6515      2.00000
      9       4.0549      2.00000
     10       4.0549      2.00000
     11       4.1790      2.00000
     12       4.2223      2.00000
     13       4.2972      2.00000
     14       4.5589      2.00000
     15       4.7588      2.00000
     16       4.8172      2.00000
     17       4.8172      2.00000
     18       4.8513      2.00000
     19       5.1831      2.00000
     20       5.2685      2.00000
     21       5.2685      2.00000
     22       5.6156      2.00000
     23       9.7851     -0.00000
     24       9.7851     -0.00000
     25      13.6302      0.00000
     26      13.6302      0.00000
     27      15.5369      0.00000
     28      15.5369      0.00000
     29      18.3431      0.00000
     30      18.3861      0.00000

 k-point    19 :       0.4444    0.1111    0.1111
  band No.  band energies     occupation 
      1       0.3336      2.00000
      2       1.2965      2.00000
      3       3.0418      2.00000
      4       3.0418      2.00000
      5       3.2599      2.00000
      6       3.2889      2.00000
      7       3.2889      2.00000
      8       3.4616      2.00000
      9       3.6863      2.00000
     10       3.6863      2.00000
     11       4.1140      2.00000
     12       4.1450      2.00000
     13       4.3767      2.00000
     14       4.5618      2.00000
     15       4.6842      2.00000
     16       4.6842      2.00000
     17       4.6924      2.00000
     18       4.9634      2.00000
     19       5.0249      2.00000
     20       5.0790      2.00000
     21       5.2605      2.00000
     22       5.2605      2.00000
     23      10.8504     -0.00000
     24      10.8504     -0.00000
     25      12.2422      0.00000
     26      12.2422      0.00000
     27      16.2533      0.00000
     28      16.2533      0.00000
     29      17.2189      0.00000
     30      17.2189      0.00000

 k-point    20 :       0.2222    0.2222    0.1111
  band No.  band energies     occupation 
      1      -0.8152      2.00000
      2       2.5560      2.00000
      3       2.5560      2.00000
      4       2.7358      2.00000
      5       3.0124      2.00000
      6       3.0176      2.00000
      7       3.0176      2.00000
      8       3.7615      2.00000
      9       4.1213      2.00000
     10       4.1369      2.00000
     11       4.2614      2.00000
     12       4.2614      2.00000
     13       4.2904      2.00000
     14       4.6169      2.00000
     15       4.7926      2.00000
     16       4.8272      2.00000
     17       4.8485      2.00000
     18       4.8485      2.00000
     19       5.2444      2.00000
     20       5.2444      2.00000
     21       5.2452      2.00000
     22       7.3136     -0.00053
     23       7.3136     -0.00053
     24       9.4349     -0.00000
     25      13.3723      0.00000
     26      15.3495      0.00000
     27      15.7374      0.00000
     28      15.7374      0.00000
     29      17.5453      0.00000
     30      17.5453      0.00000

 k-point    21 :       0.3333    0.2222    0.1111
  band No.  band energies     occupation 
      1      -0.1641      2.00000
      2       2.2777      2.00000
      3       2.8128      2.00000
      4       2.9221      2.00000
      5       3.1400      2.00000
      6       3.1609      2.00000
      7       3.1738      2.00000
      8       3.6562      2.00000
      9       3.8832      2.00000
     10       3.9984      2.00000
     11       4.0163      2.00000
     12       4.1251      2.00000
     13       4.2124      2.00000
     14       4.6072      2.00000
     15       4.6712      2.00000
     16       4.6985      2.00000
     17       4.7410      2.00000
     18       4.9234      2.00000
     19       5.1570      2.00000
     20       5.1955      2.00000
     21       5.1959      2.00000
     22       6.1130      2.00006
     23       8.1146     -0.00000
     24      10.2147     -0.00000
     25      11.8139     -0.00000
     26      14.1182      0.00000
     27      15.8594      0.00000
     28      16.5165      0.00000
     29      18.0925      0.00000
     30      18.8358      0.00000

 k-point    22 :       0.4444    0.2222    0.1111
  band No.  band energies     occupation 
      1       0.6783      2.00000
      2       1.5823      2.00000
      3       3.0558      2.00000
      4       3.1169      2.00000
      5       3.2092      2.00000
      6       3.2830      2.00000
      7       3.3317      2.00000
      8       3.5044      2.00000
      9       3.6555      2.00000
     10       3.7459      2.00000
     11       3.9580      2.00000
     12       4.0480      2.00000
     13       4.3273      2.00000
     14       4.4852      2.00000
     15       4.6031      2.00000
     16       4.6250      2.00000
     17       4.7482      2.00000
     18       4.9890      2.00000
     19       5.1055      2.00000
     20       5.1662      2.00000
     21       5.1664      2.00000
     22       5.4184      2.00000
     23       9.0598     -0.00000
     24      10.1173     -0.00000
     25      11.5778     -0.00000
     26      12.7128      0.00000
     27      16.6138      0.00000
     28      17.5457      0.00000
     29      17.6176      0.00000
     30      18.7997      0.00000

 k-point    23 :       0.3333    0.3333    0.1111
  band No.  band energies     occupation 
      1       0.4424      2.00000
      2       2.5712      2.00000
      3       2.5712      2.00000
      4       2.9677      2.00000
      5       3.2666      2.00000
      6       3.3125      2.00000
      7       3.3125      2.00000
      8       3.6328      2.00000
      9       3.7666      2.00000
     10       3.7666      2.00000
     11       3.8965      2.00000
     12       4.0747      2.00000
     13       4.2288      2.00000
     14       4.5679      2.00000
     15       4.5923      2.00000
     16       4.5923      2.00000
     17       4.6042      2.00000
     18       5.0817      2.00000
     19       5.0817      2.00000
     20       5.1107      2.00000
     21       5.1184      2.00000
     22       6.7559      0.96854
     23       6.7559      0.96854
     24       9.8154     -0.00000
     25      11.3623     -0.00000
     26      14.8799      0.00000
     27      14.8799      0.00000
     28      16.4157      0.00000
     29      18.5866      0.00000
     30      19.5500      0.00000

 k-point    24 :       0.4444    0.3333    0.1111
  band No.  band energies     occupation 
      1       1.2052      2.00000
      2       1.9867      2.00000
      3       2.8195      2.00000
      4       2.9459      2.00000
      5       3.3962      2.00000
      6       3.4509      2.00000
      7       3.4557      2.00000
      8       3.5646      2.00000
      9       3.6578      2.00000
     10       3.7727      2.00000
     11       3.8226      2.00000
     12       3.9692      2.00000
     13       4.2904      2.00000
     14       4.4222      2.00000
     15       4.4823      2.00000
     16       4.5036      2.00000
     17       4.7059      2.00000
     18       4.9046      2.00000
     19       5.0341      2.00000
     20       5.0458      2.00000
     21       5.4041      2.00000
     22       5.8791      2.00000
     23       7.5579     -0.00000
     24       8.5816     -0.00000
     25      12.2683      0.00000
     26      13.4620      0.00000
     27      15.8895      0.00000
     28      17.1277      0.00000
     29      17.2225      0.00000
     30      18.2802      0.00000

 k-point    25 :       0.4444    0.4444    0.1111
  band No.  band energies     occupation 
      1       1.8234      2.00000
      2       2.3966      2.00000
      3       2.3966      2.00000
      4       2.7160      2.00000
      5       3.5856      2.00000
      6       3.6133      2.00000
      7       3.6133      2.00000
      8       3.6159      2.00000
      9       3.7236      2.00000
     10       3.7236      2.00000
     11       3.7428      2.00000
     12       3.8789      2.00000
     13       4.2771      2.00000
     14       4.3606      2.00000
     15       4.3606      2.00000
     16       4.3744      2.00000
     17       4.7349      2.00000
     18       4.8708      2.00000
     19       4.8708      2.00000
     20       4.9283      2.00000
     21       5.8225      2.00000
[...]
      3       2.9059      2.00000
      4       2.9059      2.00000
      5       3.3540      2.00000
      6       3.3540      2.00000
      7       3.4563      2.00000
      8       3.6031      2.00000
      9       3.8429      2.00000
     10       3.8429      2.00000
     11       3.9244      2.00000
     12       4.0197      2.00000
     13       4.2101      2.00000
     14       4.3300      2.00000
     15       4.4714      2.00000
     16       4.4714      2.00000
     17       4.9852      2.00000
     18       5.0485      2.00000
     19       5.1712      2.00000
     20       5.1843      2.00000
     21       5.1843      2.00000
     22       5.5090      2.00000
     23       9.1481     -0.00000
     24       9.1481     -0.00000
     25      11.1188     -0.00000
     26      11.1188     -0.00000
     27      15.6484      0.00000
     28      16.8904      0.00000
     29      19.2397      0.00000
     30      19.2397      0.00000

 k-point    29 :       0.3333    0.3333    0.2222
  band No.  band energies     occupation 
      1       0.7415      2.00000
      2       2.5295      2.00000
      3       2.5295      2.00000
      4       2.7667      2.00000
      5       3.4142      2.00000
      6       3.4612      2.00000
      7       3.4612      2.00000
      8       3.7627      2.00000
      9       3.8802      2.00000
     10       3.8802      2.00000
     11       3.9706      2.00000
     12       4.0706      2.00000
     13       4.1096      2.00000
     14       4.3860      2.00000
     15       4.3860      2.00000
     16       4.4002      2.00000
     17       4.8023      2.00000
     18       5.0433      2.00000
     19       5.2019      2.00000
     20       5.2158      2.00000
     21       5.2158      2.00000
     22       6.9501     -0.04803
     23       6.9501     -0.04803
     24       8.7828     -0.00000
     25      10.9543     -0.00000
     26      13.0161      0.00000
     27      13.0161      0.00000
     28      16.6697      0.00000
     29      19.0275      0.00000
     30      21.3355      0.00000

 k-point    30 :       0.4444    0.3333    0.2222
  band No.  band energies     occupation 
      1       1.4042      2.00000
      2       2.0448      2.00000
      3       2.6278      2.00000
      4       2.7032      2.00000
      5       3.5305      2.00000
      6       3.5626      2.00000
      7       3.6711      2.00000
      8       3.7764      2.00000
      9       3.8893      2.00000
     10       3.9314      2.00000
     11       3.9809      2.00000
     12       3.9964      2.00000
     13       4.1417      2.00000
     14       4.2403      2.00000
     15       4.3161      2.00000
     16       4.3216      2.00000
     17       4.9332      2.00000
     18       5.1213      2.00000
     19       5.1518      2.00000
     20       5.1548      2.00000
     21       5.3106      2.00000
     22       5.8813      2.00000
     23       7.6507     -0.00000
     24       8.4475     -0.00000
     25      10.8264     -0.00000
     26      11.7061     -0.00000
     27      14.0001      0.00000
     28      15.2188      0.00000
     29      19.8566      0.00000
     30      20.9031      0.00000

 k-point    31 :       0.4444    0.4444    0.2222
  band No.  band energies     occupation 
      1       1.8714      2.00000
      2       2.2875      2.00000
      3       2.2875      2.00000
      4       2.5002      2.00000
      5       3.6919      2.00000
      6       3.7752      2.00000
      7       3.7752      2.00000
      8       3.9193      2.00000
      9       3.9575      2.00000
     10       3.9890      2.00000
     11       3.9890      2.00000
     12       4.0802      2.00000
     13       4.1176      2.00000
     14       4.1927      2.00000
     15       4.1927      2.00000
     16       4.2076      2.00000
     17       4.9296      2.00000
     18       5.0511      2.00000
     19       5.0511      2.00000
     20       5.0772      2.00000
     21       5.7262      2.00000
     22       6.4646      2.06063
     23       6.4646      2.06063
     24       7.3341     -0.00031
     25      11.5324     -0.00000
     26      12.6218      0.00000
     27      12.6218      0.00000
     28      13.7954      0.00000
     29      20.7195      0.00000
     30      21.8139      0.00000

 k-point    32 :       0.3333    0.3333    0.3333
  band No.  band energies     occupation 
      1       1.1799      2.00000
      2       2.4773      2.00000
      3       2.4773      2.00000
      4       2.4773      2.00000
      5       3.6233      2.00000
      6       3.6233      2.00000
      7       3.6233      2.00000
      8       3.9891      2.00000
      9       4.0464      2.00000
     10       4.0464      2.00000
     11       4.0581      2.00000
     12       4.0581      2.00000
     13       4.0581      2.00000
     14       4.2374      2.00000
     15       4.2374      2.00000
     16       4.2374      2.00000
     17       4.9864      2.00000
     18       4.9864      2.00000
     19       5.2461      2.00000
     20       5.2461      2.00000
     21       5.2461      2.00000
     22       7.2657     -0.00170
     23       7.2657     -0.00170
     24       7.2657     -0.00170
     25      11.5133     -0.00000
     26      11.5133     -0.00000
     27      11.5133     -0.00000
     28      14.9962      0.00000
     29      21.9211      0.00000
     30      21.9211      0.00000

 k-point    33 :       0.4444    0.3333    0.3333
  band No.  band energies     occupation 
      1       1.6659      2.00000
      2       2.1105      2.00000
      3       2.4431      2.00000
      4       2.4431      2.00000
      5       3.7047      2.00000
      6       3.7047      2.00000
      7       3.8335      2.00000
      8       3.9777      2.00000
      9       4.0478      2.00000
     10       4.1142      2.00000
     11       4.1453      2.00000
     12       4.1594      2.00000
     13       4.1594      2.00000
     14       4.1718      2.00000
     15       4.2408      2.00000
     16       4.2408      2.00000
     17       5.1328      2.00000
     18       5.2090      2.00000
     19       5.2095      2.00000
     20       5.2095      2.00000
     21       5.2232      2.00000
     22       6.0084      2.00000
     23       7.5812     -0.00000
     24       7.5812     -0.00000
     25      10.5761     -0.00000
     26      10.5761     -0.00000
     27      12.4120      0.00000
     28      13.5761      0.00000
     29      22.7097      0.00000
     30      22.7097      0.00000

 k-point    34 :       0.4444    0.4444    0.3333
  band No.  band energies     occupation 
      1       1.9324      2.00000
      2       2.1878      2.00000
      3       2.1878      2.00000
      4       2.2951      2.00000
      5       3.8149      2.00000
      6       3.8585      2.00000
      7       3.8585      2.00000
      8       3.9554      2.00000
      9       4.0058      2.00000
     10       4.0511      2.00000
     11       4.0511      2.00000
     12       4.0662      2.00000
     13       4.4729      2.00000
     14       4.4729      2.00000
     15       4.4865      2.00000
     16       4.5495      2.00000
     17       5.0925      2.00000
     18       5.1857      2.00000
     19       5.1857      2.00000
     20       5.1875      2.00000
     21       5.5540      2.00000
     22       6.4118      2.03693
     23       6.4118      2.03693
     24       7.0629     -0.05040
     25      10.4705     -0.00000
     26      11.1925     -0.00000
     27      11.1925     -0.00000
     28      12.2250      0.00000
     29      23.5444      0.00000
     30      24.5514      0.00000

 k-point    35 :       0.4444    0.4444    0.4444
  band No.  band energies     occupation 
      1       2.0136      2.00000
      2       2.1313      2.00000
      3       2.1313      2.00000
      4       2.1313      2.00000
      5       3.9107      2.00000
      6       3.9107      2.00000
      7       3.9107      2.00000
      8       3.9576      2.00000
      9       3.9576      2.00000
     10       3.9787      2.00000
     11       3.9787      2.00000
     12       3.9787      2.00000
     13       4.8968      2.00000
     14       4.8968      2.00000
     15       4.8968      2.00000
     16       5.1978      2.00000
     17       5.1978      2.00000
     18       5.2308      2.00000
     19       5.2308      2.00000
     20       5.2308      2.00000
     21       5.4602      2.00000
     22       6.3323      2.01144
     23       6.3323      2.01144
     24       6.3323      2.01144
     25      10.3708     -0.00000
     26      10.3708     -0.00000
     27      10.3708     -0.00000
     28      11.0429     -0.00000
     29      26.3126      0.00000
     30      26.3126      0.00000


--------------------------------------------------------------------------------------------------------


 soft charge-density along one line, spin component           1
         0         1         2         3         4         5         6         7         8         9
x    15.9072    0.0000    0.0000    0.0000    0.8508    0.0000    0.0000   -0.0000   -0.4290    0.0000
x     0.0000   -0.0000    0.0521   -0.0000   -0.0000   -0.0000    0.0000    0.0000
y    15.9072    0.0000    0.0000    0.0000    0.8508    0.0000    0.0000   -0.0000   -0.4290    0.0000
y     0.0000   -0.0000    0.0521   -0.0000   -0.0000   -0.0000    0.0000    0.0000
z    15.9072    0.0000    0.0000    0.0000    0.8508    0.0000    0.0000   -0.0000   -0.4290    0.0000
z     0.0000   -0.0000    0.0521   -0.0000   -0.0000   -0.0000    0.0000    0.0000
 total charge-density along one line
x    44.0002    0.0000    0.0000   -0.0000   19.2533   -0.0000    0.0000    0.0000    3.8708    0.0000
x     0.0000   -0.0000    0.0221    0.0000    0.0000   -0.0000    0.0176   -0.0000    0.0000    0.0000
x    -0.0049    0.0000    0.0000   -0.0000    0.0020    0.0000   -0.0000    0.0000   -0.0013    0.0000
x    -0.0000   -0.0000    0.0012    0.0000
y    44.0002    0.0000    0.0000   -0.0000   19.2533    0.0000    0.0000   -0.0000    3.8708   -0.0000
y     0.0000   -0.0000    0.0221   -0.0000    0.0000    0.0000    0.0176   -0.0000    0.0000    0.0000
y    -0.0049   -0.0000   -0.0000   -0.0000    0.0020    0.0000   -0.0000    0.0000   -0.0013    0.0000
y    -0.0000    0.0000    0.0012    0.0000
z    44.0002    0.0000   -0.0000    0.0000   19.2533    0.0000    0.0000   -0.0000    3.8708    0.0000
z     0.0000   -0.0000    0.0221    0.0000    0.0000   -0.0000    0.0176    0.0000    0.0000    0.0000
z    -0.0049    0.0000    0.0000    0.0000    0.0020   -0.0000    0.0000    0.0000   -0.0013    0.0000
z    -0.0000    0.0000    0.0012    0.0000
 
 pseudopotential strength for first ion, spin component:           1
 -3.366   0.000   0.000  -0.000   0.000  -4.369  -0.000  -0.000
  0.000  -3.366  -0.000  -0.000  -0.000  -0.000  -4.369   0.000
  0.000  -0.000  -3.351   0.000   0.000  -0.000   0.000  -4.379
 -0.000  -0.000   0.000  -3.366   0.000   0.000   0.000  -0.000
  0.000  -0.000   0.000   0.000  -3.351  -0.000   0.000  -0.000
 -4.369  -0.000  -0.000   0.000  -0.000  10.042   0.000   0.000
 -0.000  -4.369   0.000   0.000   0.000   0.000  10.042  -0.000
 -0.000   0.000  -4.379  -0.000  -0.000   0.000  -0.000  10.050
  0.000   0.000  -0.000  -4.369  -0.000  -0.000  -0.000   0.000
 -0.000   0.000  -0.000  -0.000  -4.379   0.000   0.000   0.000
  0.000   0.000   0.000  -0.000   0.000   0.000   0.000   0.000
  0.000   0.000   0.000  -0.000   0.000   0.000   0.000   0.000
  0.000  -0.000   0.000  -0.000  -0.000  -0.000  -0.000  -0.000
 -0.000  -0.000  -0.000   0.000   0.000  -0.000  -0.000   0.000
 -0.000  -0.000  -0.000  -0.000   0.000  -0.000  -0.000   0.000
  0.000  -0.000   0.000   0.000   0.000   0.000  -0.000  -0.000
  0.000  -0.000  -0.000   0.000  -0.000  -0.000  -0.000   0.000
 -0.000   0.000  -0.000  -0.000   0.000  -0.000  -0.000  -0.000
 total augmentation occupancy for first ion, spin component:           1
  1.904  -0.000   0.000   0.000   0.000  -0.020  -0.000  -0.000   0.000   0.000   0.000   0.000  -0.000   0.000   0.000  -0.000
 -0.000   1.904  -0.000   0.000  -0.000  -0.000  -0.020  -0.000   0.000  -0.000  -0.000   0.000   0.000  -0.000   0.000  -0.000
  0.000   0.000   1.924   0.000  -0.000  -0.000   0.000  -0.037   0.000  -0.000   0.000  -0.000   0.000   0.000   0.000  -0.000
 -0.000   0.000   0.000   1.904   0.000   0.000  -0.000  -0.000  -0.020  -0.000   0.000  -0.000  -0.000   0.000   0.000  -0.000
  0.000  -0.000  -0.000   0.000   1.924   0.000  -0.000   0.000  -0.000  -0.037  -0.000  -0.000   0.000   0.000   0.000  -0.000
 -0.020  -0.000   0.000  -0.000   0.000   0.015  -0.000  -0.000  -0.000  -0.000   0.000  -0.000   0.000  -0.000   0.000   0.000
  0.000  -0.020   0.000   0.000  -0.000   0.000   0.015  -0.000  -0.000  -0.000   0.000  -0.000   0.000  -0.000  -0.000  -0.000
 -0.000   0.000  -0.037  -0.000  -0.000  -0.000  -0.000   0.014  -0.000  -0.000  -0.000   0.000  -0.000   0.000   0.000  -0.000
  0.000   0.000   0.000  -0.020  -0.000  -0.000  -0.000  -0.000   0.015   0.000   0.000   0.000   0.000  -0.000  -0.000   0.000
  0.000   0.000   0.000  -0.000  -0.037   0.000  -0.000  -0.000   0.000   0.014   0.000  -0.000  -0.000   0.000  -0.000   0.000
 -0.000  -0.000  -0.000   0.000   0.000  -0.000   0.000  -0.000  -0.000   0.000   1.690  -0.156   0.000  -0.000  -0.000   0.000
 -0.000   0.000  -0.000  -0.000  -0.000   0.000  -0.000   0.000   0.000  -0.000  -0.156   0.019  -0.000   0.000   0.000  -0.000
 -0.000   0.000   0.000  -0.000  -0.000   0.000   0.000   0.000   0.000   0.000   0.000  -0.000   0.211   0.000  -0.000  -0.014
  0.000  -0.000   0.000   0.000  -0.000  -0.000  -0.000   0.000  -0.000   0.000  -0.000   0.000  -0.000   0.211  -0.000   0.000
  0.000   0.000   0.000   0.000  -0.000   0.000  -0.000  -0.000  -0.000   0.000  -0.000   0.000  -0.000  -0.000   0.211  -0.000
 -0.000  -0.000  -0.000  -0.000  -0.000   0.000  -0.000  -0.000   0.000  -0.000   0.000  -0.000  -0.014   0.000   0.000   0.001
  0.000  -0.000   0.000   0.000  -0.000   0.000   0.000  -0.000   0.000   0.000  -0.000  -0.000   0.000  -0.014  -0.000  -0.000
 -0.000   0.000   0.000   0.000  -0.000   0.000   0.000   0.000   0.000   0.000  -0.000  -0.000   0.000  -0.000  -0.014  -0.000


------------------------ aborting loop because EDIFF is reached ----------------------------------------


    CHARGE:  cpu time    0.0309: real time    0.0309
    FORLOC:  cpu time    0.0006: real time    0.0006
    FORNL :  cpu time    0.1463: real time    0.1463
    STRESS:  cpu time    0.1853: real time    0.1854
    FORCOR:  cpu time    0.0074: real time    0.0074
    FORHAR:  cpu time    0.0018: real time    0.0018
    MIXING:  cpu time    0.0005: real time    0.0005

  FORCE on cell =-STRESS in cart. coord.  units (eV):
  Direction    XX          YY          ZZ          XY          YZ          ZX
  --------------------------------------------------------------------------------------
  Alpha Z   232.02226   232.02226   232.02226
  Ewald   -1441.48172 -1441.48172 -1441.48172     0.00000     0.00000    -0.00000
  Hartree   469.52300   469.52300   469.52300    -0.00000    -0.00000    -0.00000
  E(xc)    -256.88589  -256.88589  -256.88589     0.00000     0.00000     0.00000
  Local     346.50069   346.50069   346.50069     0.00000     0.00000     0.00000
  n-local   -82.27851   -90.61415   -92.01581     0.40875     2.63537     1.14349
  augment   379.08060   379.08060   379.08060     0.00000    -0.00000     0.00000
  Kinetic   364.84735   356.61397   351.10574    -3.43578     0.03417    -1.11512
  Fock        0.00000     0.00000     0.00000     0.00000     0.00000     0.00000
  -------------------------------------------------------------------------------------
  Total      -2.02152    -2.02152    -2.02152    -0.00000    -0.00000    -0.00000
  in kB     -64.22248   -64.22248   -64.22248    -0.00000    -0.00000    -0.00000
  external pressure =      -64.22 kB  Pullay stress =        0.00 kB


 VOLUME and BASIS-vectors are now :
 -----------------------------------------------------------------------------
  energy-cutoff  :      320.00
  volume of cell :       50.43
      direct lattice vectors                 reciprocal lattice vectors
     3.694600757  0.000000000  0.000000000     0.270665240  0.000000000  0.000000000
     0.000000000  3.694600757  0.000000000     0.000000000  0.270665240  0.000000000
     0.000000000  0.000000000  3.694600757     0.000000000  0.000000000  0.270665240

  length of vectors
     3.694600757  3.694600757  3.694600757     0.270665240  0.270665240  0.270665240


 FORCES acting on ions
    electron-ion (+dipol)            ewald-force                    non-local-force                 convergence-correction
 -----------------------------------------------------------------------------------------------
   -.544E-13 0.866E-14 0.303E-13   0.769E-14 -.517E-14 -.161E-13   -.216E-23 -.888E-25 0.573E-23   -.863E-13 0.957E-14 0.422E-13
   0.214E-12 0.283E-12 0.304E-13   0.286E-13 0.146E-13 -.162E-13   -.413E-23 0.174E-23 -.256E-23   -.869E-13 -.343E-14 0.287E-13
   0.219E-12 0.255E-14 0.305E-12   -.163E-13 -.144E-13 0.163E-13   -.242E-23 0.637E-24 0.276E-23   -.108E-12 0.852E-14 0.302E-13
   -.636E-13 0.277E-12 0.305E-12   -.170E-13 0.545E-14 0.162E-13   -.258E-23 0.195E-23 0.212E-23   -.908E-13 -.103E-14 0.822E-14
 -----------------------------------------------------------------------------------------------
   0.315E-12 0.572E-12 0.672E-12   0.295E-14 0.556E-15 0.122E-15   -.113E-22 0.424E-23 0.806E-23   -.372E-12 0.136E-13 0.109E-12
 
 
 POSITION                                       TOTAL-FORCE (eV/Angst)
 -----------------------------------------------------------------------------------
      0.00000      0.00000      0.00000        -0.000000      0.000000     -0.000000
      1.84730      1.84730      0.00000         0.000000      0.000000     -0.000000
      1.84730      0.00000      1.84730        -0.000000      0.000000      0.000000
      0.00000      1.84730      1.84730        -0.000000     -0.000000      0.000000
 -----------------------------------------------------------------------------------
    total drift:                               -0.000000      0.000000      0.000000


--------------------------------------------------------------------------------------------------------



  FREE ENERGIE OF THE ION-ELECTRON SYSTEM (eV)
  ---------------------------------------------------
  free  energy   TOTEN  =       -14.90531361 eV

  energy  without entropy=      -14.90731942  energy(sigma->0) =      -14.90598221
 


--------------------------------------------------------------------------------------------------------


    POTLOK:  cpu time    0.0109: real time    0.0109


--------------------------------------------------------------------------------------------------------


 writing wavefunctions
     LOOP+:  cpu time    6.4363: real time    6.4581
    4ORBIT:  cpu time    0.0000: real time    0.0000

 total amount of memory used by VASP MPI-rank0    48212. kBytes
=======================================================================

   base      :      30000. kBytes
   nonl-proj :       3526. kBytes
   grid      :       1806. kBytes
   one-center:         62. kBytes
   wavefun   :      12818. kBytes
 
  
  
 General timing and accounting informations for this job:
 ========================================================
  
                  Total CPU time used (sec):        6.638
                            User time (sec):        6.622
                          System time (sec):        0.016
                         Elapsed time (sec):        6.649
  
                   Maximum memory used (kb):       54120.
                   Average memory used (kb):          N/A
  
                          Minor page faults:         7219
                          Major page faults:            0
                 Voluntary context switches:           26
