<?xml version="1.0" encoding="ISO-8859-1"?>
<modeling>
 <generator>
  <i name="program" type="string">vasp </i>
  <i name="version" type="string">6.2.0  </i>
  <i name="subversion" type="string">18Jan21 (build Mar 17 2021 09:06:54) complex                          serial </i>
  <i name="platform" type="string">LinuxIFC </i>
  <i name="date" type="string">2021 08 03 </i>
  <i name="time" type="string">10:21:50 </i>
 </generator>
 <incar>
  <i type="string" name="PREC">normal</i>
  <i type="int" name="ICHARG">     1</i>
  <i type="int" name="IBRION">     1</i>
  <i name="EDIFF">      0.00000100</i>
  <i type="int" name="NSW">     0</i>
  <i type="int" name="ISIF">     4</i>
  <i name="ENCUT">    320.00000000</i>
  <i type="int" name="NBANDS">    30</i>
  <i type="int" name="ISMEAR">     1</i>
  <i name="SIGMA">      0.20000000</i>
  <i type="logical" name="LCHARG"> T  </i>
  <i type="int" name="KPAR">     1</i>
  <i type="int" name="NCORE">     1</i>
  <i type="string" name="GGA">PE</i>
 </incar>
 <primitive_cell>
  <structure name="primitive_cell" >
   <crystal>
    <varray name="basis" >
     <v>       1.84730038      -1.84730038       0.00000000 </v>
     <v>       1.84730038       0.00000000       1.84730038 </v>
     <v>       0.00000000      -1.84730038       1.84730038 </v>
    </varray>
    <i name="volume">     12.60789413 </i>
    <varray name="rec_basis" >
     <v>       0.27066524      -0.27066524      -0.27066524 </v>
     <v>       0.27066524       0.27066524       0.27066524 </v>
     <v>      -0.27066524      -0.27066524       0.27066524 </v>
    </varray>
   </crystal>
   <varray name="positions" >
    <v>       0.00000000       0.00000000       0.00000000 </v>
   </varray>
  </structure>
  <varray name="primitive_index" >
   <v type="int" >        1 </v>
  </varray>
 </primitive_cell>
 <kpoints>
  <generation param="Monkhorst-Pack">
   <v type="int" name="divisions">       9        9        9 </v>
   <v name="usershift">      0.00000000       0.00000000       0.00000000 </v>
   <v name="genvec1">      0.11111111       0.00000000       0.00000000 </v>
   <v name="genvec2">      0.00000000       0.11111111       0.00000000 </v>
   <v name="genvec3">      0.00000000       0.00000000       0.11111111 </v>
   <v name="shift">      0.00000000       0.00000000       0.00000000 </v>
  </generation>
  <varray name="kpointlist" >
   <v>       0.00000000       0.00000000       0.00000000 </v>
   <v>       0.11111111       0.00000000       0.00000000 </v>
   <v>       0.22222222       0.00000000       0.00000000 </v>
   <v>       0.33333333       0.00000000       0.00000000 </v>
   <v>       0.44444444       0.00000000       0.00000000 </v>
   <v>       0.11111111       0.11111111       0.00000000 </v>
   <v>       0.22222222       0.11111111       0.00000000 </v>
   <v>       0.33333333       0.11111111       0.00000000 </v>
   <v>       0.44444444       0.11111111       0.00000000 </v>
   <v>       0.22222222       0.22222222       0.00000000 </v>
   <v>       0.33333333       0.22222222       0.00000000 </v>
   <v>       0.44444444       0.22222222       0.00000000 </v>
   <v>       0.33333333       0.33333333       0.00000000 </v>
   <v>       0.44444444       0.33333333       0.00000000 </v>
   <v>       0.44444444       0.44444444       0.00000000 </v>
   <v>       0.11111111       0.11111111       0.11111111 </v>
   <v>       0.22222222       0.11111111       0.11111111 </v>
   <v>       0.33333333       0.11111111       0.11111111 </v>
   <v>       0.44444444       0.11111111       0.11111111 </v>
   <v>       0.22222222       0.22222222       0.11111111 </v>
   <v>       0.33333333       0.22222222       0.11111111 </v>
   <v>       0.44444444       0.22222222       0.11111111 </v>
   <v>       0.33333333       0.33333333       0.11111111 </v>
   <v>       0.44444444       0.33333333       0.11111111 </v>
   <v>       0.44444444       0.44444444       0.11111111 </v>
   <v>       0.22222222       0.22222222       0.22222222 </v>
   <v>       0.33333333       0.22222222       0.22222222 </v>
   <v>       0.44444444       0.22222222       0.22222222 </v>
   <v>       0.33333333       0.33333333       0.22222222 </v>
   <v>       0.44444444       0.33333333       0.22222222 </v>
   <v>       0.44444444       0.44444444       0.22222222 </v>
   <v>       0.33333333       0.33333333       0.33333333 </v>
   <v>       0.44444444       0.33333333       0.33333333 </v>
   <v>       0.44444444       0.44444444       0.33333333 </v>
   <v>       0.44444444       0.44444444       0.44444444 </v>
  </varray>
  <varray name="weights" >
   <v>       0.00137174 </v>
   <v>       0.00823045 </v>
   <v>       0.00823045 </v>
   <v>       0.00823045 </v>
   <v>       0.00823045 </v>
   <v>       0.01646091 </v>
   <v>       0.03292181 </v>
   <v>       0.03292181 </v>
   <v>       0.03292181 </v>
   <v>       0.01646091 </v>
   <v>       0.03292181 </v>
   <v>       0.03292181 </v>
   <v>       0.01646091 </v>
   <v>       0.03292181 </v>
   <v>       0.01646091 </v>
   <v>       0.01097394 </v>
   <v>       0.03292181 </v>
   <v>       0.03292181 </v>
   <v>       0.03292181 </v>
   <v>       0.03292181 </v>
   <v>       0.06584362 </v>
   <v>       0.06584362 </v>
   <v>       0.03292181 </v>
   <v>       0.06584362 </v>
   <v>       0.03292181 </v>
   <v>       0.01097394 </v>
   <v>       0.03292181 </v>
   <v>       0.03292181 </v>
   <v>       0.03292181 </v>
   <v>       0.06584362 </v>
   <v>       0.03292181 </v>
   <v>       0.01097394 </v>
   <v>       0.03292181 </v>
   <v>       0.03292181 </v>
   <v>       0.01097394 </v>
  </varray>
 </kpoints>
 <parameters>
  <separator name="general" >
   <i type="string" name="SYSTEM">unknown system</i>
   <i type="logical" name="LCOMPAT"> F  </i>
  </separator>
  <separator name="electronic" >
   <i type="string" name="PREC">normal</i>
   <i name="ENMAX">    320.00000000</i>
   <i name="ENAUG">    586.98000000</i>
   <i name="EDIFF">      0.00000100</i>
   <i type="int" name="IALGO">    38</i>
   <i type="int" name="IWAVPR">     0</i>
   <i type="int" name="NBANDS">    30</i>
   <i type="int" name="NBANDSLOW">    -1</i>
   <i type="int" name="NBANDSHIGH">    -1</i>
   <i name="NELECT">     44.00000000</i>
   <i type="int" name="TURBO">     0</i>
   <i type="int" name="IRESTART">     0</i>
   <i type="int" name="NREBOOT">     0</i>
   <i type="int" name="NMIN">     0</i>
   <i name="EREF">      0.00000000</i>
   <separator name="electronic smearing" >
    <i type="int" name="ISMEAR">     1</i>
    <i name="SIGMA">      0.20000000</i>
    <i name="KSPACING">      0.50000000</i>
    <i type="logical" name="KGAMMA"> T  </i>
    <i type="logical" name="KBLOWUP"> T  </i>
   </separator>
   <separator name="electronic projectors" >
    <i type="logical" name="LREAL"> F  </i>
    <v name="ROPT">      0.00000000</v>
    <i type="int" name="LMAXPAW">  -100</i>
    <i type="int" name="LMAXMIX">     2</i>
    <i type="logical" name="NLSPLINE"> F  </i>
   </separator>
   <separator name="electronic startup" >
    <i type="int" name="ISTART">     0</i>
    <i type="int" name="ICHARG">     1</i>
    <i type="int" name="INIWAV">     1</i>
   </separator>
   <separator name="electronic spin" >
    <i type="int" name="ISPIN">     1</i>
    <i type="logical" name="LNONCOLLINEAR"> F  </i>
    <v name="MAGMOM">      1.00000000      1.00000000      1.00000000      1.00000000</v>
    <i name="NUPDOWN">     -1.00000000</i>
    <i type="logical" name="LSORBIT"> F  </i>
    <v name="SAXIS">      0.00000000      0.00000000      1.00000000</v>
    <i type="logical" name="LSPIRAL"> F  </i>
    <v name="QSPIRAL">      0.00000000      0.00000000      0.00000000</v>
    <i type="logical" name="LZEROZ"> F  </i>
   </separator>
   <separator name="electronic exchange-correlation" >
    <i type="logical" name="LASPH"> F  </i>
    <i type="logical" name="LMETAGGA"> F  </i>
   </separator>
   <separator name="electronic convergence" >
    <i type="int" name="NELM">    60</i>
    <i type="int" name="NELMDL">    -5</i>
    <i type="int" name="NELMIN">     2</i>
    <i name="ENINI">    320.00000000</i>
    <separator name="electronic convergence detail" >
     <i type="logical" name="LDIAG"> T  </i>
     <i type="logical" name="LSUBROT"> F  </i>
     <i name="WEIMIN">      0.00000000</i>
     <i name="EBREAK">      0.00000001</i>
     <i name="DEPER">      0.30000000</i>
     <i type="int" name="NRMM">     4</i>
     <i name="TIME">      0.40000000</i>
    </separator>
   </separator>
   <separator name="electronic mixer" >
    <i name="AMIX">      0.40000000</i>
    <i name="BMIX">      1.00000000</i>
    <i name="AMIN">      0.10000000</i>
    <i name="AMIX_MAG">      1.60000000</i>
    <i name="BMIX_MAG">      1.00000000</i>
    <separator name="electronic mixer details" >
     <i type="int" name="IMIX">     4</i>
     <i type="logical" name="MIXFIRST"> F  </i>
     <i type="int" name="MAXMIX">   -45</i>
     <i name="WC">    100.00000000</i>
     <i type="int" name="INIMIX">     1</i>
     <i type="int" name="MIXPRE">     1</i>
     <i type="int" name="MREMOVE">     5</i>
    </separator>
   </separator>
   <separator name="electronic dipolcorrection" >
    <i type="logical" name="LDIPOL"> F  </i>
    <i type="logical" name="LMONO"> F  </i>
    <i type="int" name="IDIPOL">     0</i>
    <i name="EPSILON">      1.00000000</i>
    <v name="DIPOL">   -100.00000000   -100.00000000   -100.00000000</v>
    <i name="EFIELD">      0.00000000</i>
   </separator>
  </separator>
  <separator name="grids" >
   <i type="int" name="NGX">    16</i>
   <i type="int" name="NGY">    16</i>
   <i type="int" name="NGZ">    16</i>
   <i type="int" name="NGXF">    32</i>
   <i type="int" name="NGYF">    32</i>
   <i type="int" name="NGZF">    32</i>
   <i type="logical" name="ADDGRID"> F  </i>
  </separator>
  <separator name="ionic" >
   <i type="int" name="NSW">     0</i>
   <i type="int" name="IBRION">    -1</i>
   <i type="int" name="MDALGO">     0</i>
   <i type="int" name="ISIF">     4</i>
   <i name="PSTRESS">      0.00000000</i>
   <i name="EDIFFG">      0.00001000</i>
   <i type="int" name="NFREE">     0</i>
   <i name="POTIM">      0.50000000</i>
   <i name="SMASS">     -3.00000000</i>
   <i name="SCALEE">      1.00000000</i>
  </separator>
  <separator name="ionic md" >
   <i name="TEBEG">      0.00010000</i>
   <i name="TEEND">      0.00010000</i>
   <i type="int" name="NBLOCK">     1</i>
   <i type="int" name="KBLOCK">     1</i>
   <i type="int" name="NPACO">   256</i>
   <i name="APACO">     16.00000000</i>
  </separator>
  <separator name="symmetry" >
   <i type="int" name="ISYM">     2</i>
   <i name="SYMPREC">      0.00001000</i>
  </separator>
  <separator name="dos" >
   <i type="int" name="LORBIT">     0</i>
   <v name="RWIGS">     -1.00000000</v>
   <i type="int" name="NEDOS">   301</i>
   <i name="EMIN">     10.00000000</i>
   <i name="EMAX">    -10.00000000</i>
   <i name="EFERMI">      0.00000000</i>
  </separator>
  <separator name="writing" >
   <i type="int" name="NWRITE">     2</i>
   <i type="logical" name="LWAVE"> T  </i>
   <i type="logical" name="LDOWNSAMPLE"> F  </i>
   <i type="logical" name="LCHARG"> T  </i>
   <i type="logical" name="LPARD"> F  </i>
   <i type="logical" name="LVTOT"> F  </i>
   <i type="logical" name="LVHAR"> F  </i>
   <i type="logical" name="LELF"> F  </i>
   <i type="logical" name="LOPTICS"> F  </i>
   <v name="STM">      0.00000000      0.00000000      0.00000000      0.00000000      0.00000000      0.00000000      0.00000000</v>
  </separator>
  <separator name="performance" >
   <i type="int" name="NPAR">     1</i>
   <i type="int" name="NSIM">     4</i>
   <i type="int" name="NBLK">    -1</i>
   <i type="logical" name="LPLANE"> T  </i>
   <i type="logical" name="LSCALAPACK"> F  </i>
   <i type="logical" name="LSCAAWARE"> F  </i>
   <i type="logical" name="LSCALU"> F  </i>
   <i type="logical" name="LASYNC"> F  </i>
   <i type="logical" name="LORBITALREAL"> F  </i>
  </separator>
  <separator name="miscellaneous" >
   <i type="int" name="IDIOT">     3</i>
   <i type="int" name="PHON_NSTRUCT">    -1</i>
   <i type="logical" name="LMUSIC"> F  </i>
   <v name="POMASS">     63.54600000</v>
   <v name="DARWINR">      0.00000000</v>
   <v name="DARWINV">      1.00000000</v>
   <i type="logical" name="LCORR"> T  </i>
  </separator>
  <i type="logical" name="GGA_COMPAT"> T  </i>
  <i type="logical" name="LBERRY"> F  </i>
  <i type="int" name="ICORELEVEL">     0</i>
  <i type="logical" name="LDAU"> F  </i>
  <i type="int" name="I_CONSTRAINED_M">     0</i>
  <separator name="electronic exchange-correlation" >
   <i type="string" name="GGA">PE</i>
   <i type="int" name="VOSKOWN">     0</i>
   <i type="logical" name="LHFCALC"> F  </i>
   <i type="string" name="PRECFOCK"></i>
   <i type="logical" name="LSYMGRAD"> F  </i>
   <i type="logical" name="LHFONE"> F  </i>
   <i type="logical" name="LRHFCALC"> F  </i>
   <i type="logical" name="LTHOMAS"> F  </i>
   <i type="logical" name="LMODELHF"> F  </i>
   <i type="logical" name="LFOCKACE"> F  </i>
   <i name="ENCUT4O">     -1.00000000</i>
   <i type="int" name="EXXOEP">     0</i>
   <i type="int" name="FOURORBIT">     0</i>
   <i name="AEXX">      0.00000000</i>
   <i name="HFALPHA">      0.00000000</i>
   <i name="MCALPHA">      0.00000000</i>
   <i name="ALDAX">      1.00000000</i>
   <i name="AGGAX">      1.00000000</i>
   <i name="ALDAC">      1.00000000</i>
   <i name="AGGAC">      1.00000000</i>
   <i type="int" name="NKREDX">     1</i>
   <i type="int" name="NKREDY">     1</i>
   <i type="int" name="NKREDZ">     1</i>
   <i type="logical" name="SHIFTRED"> F  </i>
   <i type="logical" name="ODDONLY"> F  </i>
   <i type="logical" name="EVENONLY"> F  </i>
   <i type="int" name="LMAXFOCK">     0</i>
   <i type="int" name="NMAXFOCKAE">     0</i>
   <i type="logical" name="LFOCKAEDFT"> F  </i>
   <i name="HFSCREEN">      0.00000000</i>
   <i name="HFSCREENC">      0.00000000</i>
   <i type="int" name="NBANDSGWLOW">     0</i>
  </separator>
  <separator name="vdW DFT" >
   <i type="logical" name="LUSE_VDW"> F  </i>
   <i name="Zab_VDW">     -0.84910000</i>
   <i name="PARAM1">      0.12340000</i>
   <i name="PARAM2">      1.00000000</i>
   <i name="PARAM3">      0.00000000</i>
  </separator>
  <separator name="model GW" >
   <i type="int" name="MODEL_GW">     0</i>
   <i name="MODEL_EPS0">      7.56473648</i>
   <i name="MODEL_ALPHA">      1.00000000</i>
  </separator>
  <separator name="linear response parameters" >
   <i type="logical" name="LEPSILON"> F  </i>
   <i type="logical" name="LRPA"> F  </i>
   <i type="logical" name="LNABLA"> F  </i>
   <i type="logical" name="LVEL"> F  </i>
   <i type="int" name="KINTER">     0</i>
   <i name="CSHIFT">      0.10000000</i>
   <i name="OMEGAMAX">     -1.00000000</i>
   <i name="DEG_THRESHOLD">      0.00200000</i>
   <i name="RTIME">     -0.10000000</i>
   <i name="WPLASMAI">      0.00000000</i>
   <v name="DFIELD">      0.00000000      0.00000000      0.00000000</v>
   <v name="WPLASMA">      0.00000000      0.00000000      0.00000000      0.00000000      0.00000000      0.00000000      0.00000000      0.00000000      0.00000000</v>
  </separator>
  <separator name="orbital magnetization" >
   <i type="logical" name="NUCIND"> F  </i>
   <v name="MAGPOS">      0.00000000      0.00000000      0.00000000</v>
   <i type="logical" name="LNICSALL"> T  </i>
   <i type="logical" name="ORBITALMAG"> F  </i>
   <i type="logical" name="LMAGBLOCH"> F  </i>
   <i type="logical" name="LCHIMAG"> F  </i>
   <i type="logical" name="LGAUGE"> T  </i>
   <i type="int" name="MAGATOM">     0</i>
   <v name="MAGDIPOL">      0.00000000      0.00000000      0.00000000</v>
   <v name="AVECCONST">      0.00000000      0.00000000      0.00000000</v>
  </separator>
  <separator name="response functions" >
   <i type="logical" name="LFINITE_TEMPERATURE"> F  </i>
   <i type="logical" name="LADDER"> F  </i>
   <i type="logical" name="LRPAFORCE"> F  </i>
   <i type="logical" name="LFXC"> F  </i>
   <i type="logical" name="LHARTREE"> T  </i>
   <i type="int" name="IBSE">     0</i>
   <v type="int" name="KPOINT">    -1     0     0     0</v>
   <i type="logical" name="LTCTC"> F  </i>
   <i type="logical" name="LTCTE"> F  </i>
   <i type="logical" name="LTETE"> F  </i>
   <i type="logical" name="LTRIPLET"> F  </i>
   <i type="logical" name="LFXCEPS"> F  </i>
   <i type="logical" name="LFXHEG"> F  </i>
   <i type="int" name="NATURALO">     2</i>
   <i type="logical" name="LHOLEGF"> F  </i>
   <i type="logical" name="L2ORDER"> F  </i>
   <i type="logical" name="LDMP1"> F  </i>
   <i type="logical" name="LMP2LT"> F  </i>
   <i type="logical" name="LSMP2LT"> F  </i>
   <i type="logical" name="LGWLF"> F  </i>
   <i name="ENCUTGW">     -2.00000000</i>
   <i name="ENCUTGWSOFT">     -2.00000000</i>
   <i name="ENCUTLF">     -1.00000000</i>
   <i type="logical" name="LESF_SPLINES"> F  </i>
   <i type="int" name="LMAXMP2">    -1</i>
   <i name="SCISSOR">      0.00000000</i>
   <i type="int" name="NOMEGA">     0</i>
   <i type="int" name="NOMEGAR">     0</i>
   <i type="int" name="NBANDSGW">    -1</i>
   <i type="int" name="NBANDSO">    -1</i>
   <i type="int" name="NBANDSV">    -1</i>
   <i type="int" name="NELM">     1</i>
   <i type="int" name="NELMHF">     1</i>
   <i type="int" name="DIM">     3</i>
   <i type="int" name="IESPILON">     4</i>
   <i type="int" name="ANTIRES">     0</i>
   <i name="OMEGAMAX">    -30.00000000</i>
   <i name="OMEGAMIN">    -30.00000000</i>
   <i name="OMEGATL">   -200.00000000</i>
   <i type="int" name="OMEGAGRID">     0</i>
   <i name="CSHIFT">     -0.10000000</i>
   <i type="logical" name="LSELFENERGY"> F  </i>
   <i type="logical" name="LSPECTRAL"> F  </i>
   <i type="logical" name="LSPECTRALGW"> F  </i>
   <i type="logical" name="LSINGLES"> F  </i>
   <i type="logical" name="LFERMIGW"> F  </i>
   <i type="logical" name="ODDONLYGW"> F  </i>
   <i type="logical" name="EVENONLYGW"> F  </i>
   <i type="int" name="NKREDLFX">     1</i>
   <i type="int" name="NKREDLFY">     1</i>
   <i type="int" name="NKREDLFZ">     1</i>
   <i type="int" name="MAXMEM">  2800</i>
   <i type="int" name="TELESCOPE">     0</i>
   <i type="int" name="NTAUPAR">    -1</i>
   <i type="int" name="NOMEGAPAR">    -1</i>
   <i name="DAMP_NEWTON">      0.80000001</i>
   <i name="LAMBDA">      1.00000000</i>
  </separator>
  <separator name="External order field" >
   <i name="OFIELD_KAPPA">      0.00000000</i>
   <v name="OFIELD_K">      0.00000000      0.00000000      0.00000000</v>
   <i name="OFIELD_Q6_NEAR">      0.00000000</i>
   <i name="OFIELD_Q6_FAR">      0.00000000</i>
   <i name="OFIELD_A">      0.00000000</i>
  </separator>
 </parameters>
 <atominfo>
  <atoms>       4 </atoms>
  <types>       1 </types>
  <array name="atoms" >
   <dimension dim="1">ion</dimension>
   <field type="string">element</field>
   <field type="int">atomtype</field>
   <set>
    <rc><c>Cu</c><c>   1</c></rc>
    <rc><c>Cu</c><c>   1</c></rc>
    <rc><c>Cu</c><c>   1</c></rc>
    <rc><c>Cu</c><c>   1</c></rc>
   </set>
  </array>
  <array name="atomtypes" >
   <dimension dim="1">type</dimension>
   <field type="int">atomspertype</field>
   <field type="string">element</field>
   <field>mass</field>
   <field>valence</field>
   <field type="string">pseudopotential</field>
   <set>
    <rc><c>   4</c><c>Cu</c><c>     63.54600000</c><c>     11.00000000</c><c>  PAW_PBE Cu 22Jun2005                  </c></rc>
   </set>
  </array>
 </atominfo>
 <structure name="initialpos" >
  <crystal>
   <varray name="basis" >
    <v>       3.69460076       0.00000000       0.00000000 </v>
    <v>       0.00000000       3.69460076       0.00000000 </v>
    <v>       0.00000000       0.00000000       3.69460076 </v>
   </varray>
   <i name="volume">     50.43157652 </i>
   <varray name="rec_basis" >
    <v>       0.27066524       0.00000000       0.00000000 </v>
    <v>       0.00000000       0.27066524       0.00000000 </v>
    <v>       0.00000000       0.00000000       0.27066524 </v>
   </varray>
  </crystal>
  <varray name="positions" >
   <v>       0.00000000       0.00000000       0.00000000 </v>
   <v>       0.50000000       0.50000000       0.00000000 </v>
   <v>       0.50000000       0.00000000       0.50000000 </v>
   <v>       0.00000000       0.50000000       0.50000000 </v>
  </varray>
 </structure>
 <calculation>
  <scstep>
   <time name="dav">    0.47    0.49</time>
   <time name="total">    0.48    0.50</time>
   <energy>
    <i name="alphaZ">    232.02226462 </i>
    <i name="ewald">  -4324.44327005 </i>
    <i name="hartreedc">  -1499.29538903 </i>
    <i name="XCdc">    182.43276841 </i>
    <i name="pawpsdc">   4912.82663951 </i>
    <i name="pawaedc">  -5336.19386850 </i>
    <i name="eentropy">      0.00112270 </i>
    <i name="bandstr">    559.28184040 </i>
    <i name="atom">   5563.77610493 </i>
    <i name="e_fr_energy">    290.40821297 </i>
    <i name="e_wo_entrp">    290.40709027 </i>
    <i name="e_0_energy">    290.40783874 </i>
   </energy>
  </scstep>
  <scstep>
   <time name="dav">    0.41    0.41</time>
   <time name="total">    0.42    0.42</time>
   <energy>
    <i name="e_fr_energy">      4.81476797 </i>
    <i name="e_wo_entrp">      4.81895357 </i>
    <i name="e_0_energy">      4.81616317 </i>
   </energy>
  </scstep>
  <scstep>
   <time name="dav">    0.44    0.44</time>
   <time name="total">    0.45    0.45</time>
   <energy>
    <i name="e_fr_energy">    -17.90445194 </i>
    <i name="e_wo_entrp">    -17.90131780 </i>
    <i name="e_0_energy">    -17.90340723 </i>
   </energy>
  </scstep>
  <scstep>
   <time name="dav">    0.46    0.46</time>
   <time name="total">    0.46    0.46</time>
   <energy>
    <i name="e_fr_energy">    -18.36038326 </i>
    <i name="e_wo_entrp">    -18.35744920 </i>
    <i name="e_0_energy">    -18.35940524 </i>
   </energy>
  </scstep>
  <scstep>
   <time name="dav">    0.50    0.50</time>
   <time name="total">    0.54    0.54</time>
   <energy>
    <i name="e_fr_energy">    -18.36577724 </i>
    <i name="e_wo_entrp">    -18.36284313 </i>
    <i name="e_0_energy">    -18.36479920 </i>
   </energy>
  </scstep>
  <scstep>
   <time name="dav">    0.43    0.43</time>
   <time name="total">    0.47    0.47</time>
   <energy>
    <i name="e_fr_energy">    -16.49131366 </i>
    <i name="e_wo_entrp">    -16.49146573 </i>
    <i name="e_0_energy">    -16.49136435 </i>
   </energy>
  </scstep>
  <scstep>
   <time name="dav">    0.43    0.43</time>
   <time name="total">    0.47    0.47</time>
   <energy>
    <i name="e_fr_energy">    -14.93931975 </i>
    <i name="e_wo_entrp">    -14.94141108 </i>
    <i name="e_0_energy">    -14.94001686 </i>
   </energy>
  </scstep>
  <scstep>
   <time name="dav">    0.49    0.49</time>
   <time name="total">    0.53    0.53</time>
   <energy>
    <i name="e_fr_energy">    -14.91686473 </i>
    <i name="e_wo_entrp">    -14.91902517 </i>
    <i name="e_0_energy">    -14.91758487 </i>
   </energy>
  </scstep>
  <scstep>
   <time name="dav">    0.47    0.47</time>
   <time name="total">    0.54    0.54</time>
   <energy>
    <i name="e_fr_energy">    -14.90520603 </i>
    <i name="e_wo_entrp">    -14.90721033 </i>
    <i name="e_0_energy">    -14.90587413 </i>
   </energy>
  </scstep>
  <scstep>
   <time name="dav">    0.47    0.47</time>
   <time name="total">    0.52    0.52</time>
   <energy>
    <i name="e_fr_energy">    -14.90531211 </i>
    <i name="e_wo_entrp">    -14.90732043 </i>
    <i name="e_0_energy">    -14.90598155 </i>
   </energy>
  </scstep>
  <scstep>
   <time name="dav">    0.44    0.44</time>
   <time name="total">    0.48    0.48</time>
   <energy>
    <i name="e_fr_energy">    -14.90531040 </i>
    <i name="e_wo_entrp">    -14.90731706 </i>
    <i name="e_0_energy">    -14.90597929 </i>
   </energy>
  </scstep>
  <scstep>
   <time name="dav">    0.31    0.31</time>
   <time name="total">    0.35    0.35</time>
   <energy>
    <i name="e_fr_energy">    -14.90531331 </i>
    <i name="e_wo_entrp">    -14.90731905 </i>
    <i name="e_0_energy">    -14.90598189 </i>
   </energy>
  </scstep>
  <scstep>
   <time name="dav">    0.29    0.29</time>
   <time name="total">    0.30    0.30</time>
   <energy>
    <i name="alphaZ">    232.02226462 </i>
    <i name="ewald">  -4324.44327005 </i>
    <i name="hartreedc">  -1408.56315212 </i>
    <i name="XCdc">    178.19036493 </i>
    <i name="pawpsdc">   5181.05434028 </i>
    <i name="pawaedc">  -5611.11173335 </i>
    <i name="eentropy">      0.00200582 </i>
    <i name="bandstr">    174.16776135 </i>
    <i name="atom">   5563.77610493 </i>
    <i name="e_fr_energy">    -14.90531361 </i>
    <i name="e_wo_entrp">    -14.90731942 </i>
    <i name="e_0_energy">    -14.90598221 </i>
   </energy>
  </scstep>
  <structure>
   <crystal>
    <varray name="basis" >
     <v>       3.69460076       0.00000000       0.00000000 </v>
     <v>       0.00000000       3.69460076       0.00000000 </v>
     <v>       0.00000000       0.00000000       3.69460076 </v>
    </varray>
    <i name="volume">     50.43157652 </i>
    <varray name="rec_basis" >
     <v>       0.27066524       0.00000000       0.00000000 </v>
     <v>       0.00000000       0.27066524       0.00000000 </v>
     <v>       0.00000000       0.00000000       0.27066524 </v>
    </varray>
   </crystal>
   <varray name="positions" >
    <v>       0.00000000       0.00000000       0.00000000 </v>
    <v>       0.50000000       0.50000000       0.00000000 </v>
    <v>       0.50000000       0.00000000       0.50000000 </v>
    <v>       0.00000000       0.50000000       0.50000000 </v>
   </varray>
  </structure>
  <varray name="forces" >
   <v>      -0.00000000       0.00000000      -0.00000000 </v>
   <v>       0.00000000       0.00000000      -0.00000000 </v>
   <v>      -0.00000000       0.00000000       0.00000000 </v>
   <v>      -0.00000000      -0.00000000       0.00000000 </v>
  </varray>
  <varray name="stress" >
   <v>     -64.22248297       0.00000000      -0.00000000 </v>
   <v>      -0.00000000     -64.22248297      -0.00000000 </v>
   <v>      -0.00000000      -0.00000000     -64.22248297 </v>
  </varray>
  <energy>
   <i name="e_fr_energy">    -14.90531361 </i>
   <i name="e_wo_entrp">    -14.90731942 </i>
   <i name="e_0_energy">    -14.90598221 </i>
  </energy>
  <time name="totalsc">    6.44    6.46</time>
  <eigenvalues>
   <array>
    <dimension dim="1">band</dimension>
    <dimension dim="2">kpoint</dimension>
    <dimension dim="3">spin</dimension>
    <field>eigene</field>
    <field>occ</field>
    <set>
     <set comment="spin 1">
      <set comment="kpoint 1">
       <r>   -2.0644    1.0000 </r>
       <r>    2.2963    1.0000 </r>
       <r>    2.2963    1.0000 </r>
       <r>    2.2963    1.0000 </r>
       <r>    2.7124    1.0000 </r>
       <r>    2.7124    1.0000 </r>
       <r>    2.7124    1.0000 </r>
       <r>    3.9709    1.0000 </r>
       <r>    3.9709    1.0000 </r>
       <r>    3.9709    1.0000 </r>
       <r>    4.7175    1.0000 </r>
       <r>    4.7175    1.0000 </r>
       <r>    5.2146    1.0000 </r>
       <r>    5.2146    1.0000 </r>
       <r>    5.2146    1.0000 </r>
       <r>    5.3559    1.0000 </r>
       <r>    5.3559    1.0000 </r>
       <r>    5.3559    1.0000 </r>
       <r>    5.3559    1.0000 </r>
       <r>    5.3559    1.0000 </r>
       <r>    5.3559    1.0000 </r>
       <r>    8.3478   -0.0000 </r>
       <r>    8.3478   -0.0000 </r>
       <r>    8.3478   -0.0000 </r>
       <r>   13.4710    0.0000 </r>
       <r>   13.4710    0.0000 </r>
       <r>   13.4710    0.0000 </r>
       <r>   19.3838    0.0000 </r>
       <r>   19.3838    0.0000 </r>
       <r>   19.3838    0.0000 </r>
      </set>
      <set comment="kpoint 2">
       <r>   -1.9212    1.0000 </r>
       <r>    2.2906    1.0000 </r>
       <r>    2.3606    1.0000 </r>
       <r>    2.3606    1.0000 </r>
       <r>    2.7486    1.0000 </r>
       <r>    2.7508    1.0000 </r>
       <r>    2.7508    1.0000 </r>
       <r>    3.9311    1.0000 </r>
       <r>    4.0031    1.0000 </r>
       <r>    4.0031    1.0000 </r>
       <r>    4.6815    1.0000 </r>
       <r>    4.7322    1.0000 </r>
       <r>    5.1354    1.0000 </r>
       <r>    5.1354    1.0000 </r>
       <r>    5.1680    1.0000 </r>
       <r>    5.1680    1.0000 </r>
       <r>    5.1993    1.0000 </r>
       <r>    5.3010    1.0000 </r>
       <r>    5.3010    1.0000 </r>
       <r>    5.3560    1.0000 </r>
       <r>    5.3560    1.0000 </r>
       <r>    7.4972   -0.0000 </r>
       <r>    8.6983   -0.0000 </r>
       <r>    8.6983   -0.0000 </r>
       <r>   13.5276    0.0000 </r>
       <r>   13.5276    0.0000 </r>
       <r>   14.6121    0.0000 </r>
       <r>   18.4948    0.0000 </r>
       <r>   18.4948    0.0000 </r>
       <r>   18.7743    0.0000 </r>
      </set>
      <set comment="kpoint 3">
       <r>   -1.4971    1.0000 </r>
       <r>    2.2178    1.0000 </r>
       <r>    2.5369    1.0000 </r>
       <r>    2.5369    1.0000 </r>
       <r>    2.8532    1.0000 </r>
       <r>    2.8668    1.0000 </r>
       <r>    2.8668    1.0000 </r>
       <r>    3.8170    1.0000 </r>
       <r>    4.0983    1.0000 </r>
       <r>    4.0983    1.0000 </r>
       <r>    4.5812    1.0000 </r>
       <r>    4.6644    1.0000 </r>
       <r>    4.6644    1.0000 </r>
       <r>    4.7745    1.0000 </r>
       <r>    5.0365    1.0000 </r>
       <r>    5.0365    1.0000 </r>
       <r>    5.1489    1.0000 </r>
       <r>    5.1489    1.0000 </r>
       <r>    5.1555    1.0000 </r>
       <r>    5.3563    1.0000 </r>
       <r>    5.3563    1.0000 </r>
       <r>    6.0135    1.0000 </r>
       <r>    9.5577   -0.0000 </r>
       <r>    9.5577   -0.0000 </r>
       <r>   13.7068    0.0000 </r>
       <r>   13.7068    0.0000 </r>
       <r>   16.8518    0.0000 </r>
       <r>   16.8518    0.0000 </r>
       <r>   17.0120    0.0000 </r>
       <r>   17.5473    0.0000 </r>
      </set>
      <set comment="kpoint 4">
       <r>   -0.8107    1.0000 </r>
       <r>    1.8774    1.0000 </r>
       <r>    2.7695    1.0000 </r>
       <r>    2.7695    1.0000 </r>
       <r>    3.0151    1.0000 </r>
       <r>    3.0640    1.0000 </r>
       <r>    3.0640    1.0000 </r>
       <r>    3.6443    1.0000 </r>
       <r>    4.1621    1.0000 </r>
       <r>    4.1621    1.0000 </r>
       <r>    4.2520    1.0000 </r>
       <r>    4.2520    1.0000 </r>
       <r>    4.4420    1.0000 </r>
       <r>    4.8398    1.0000 </r>
       <r>    4.8500    1.0000 </r>
       <r>    4.8543    1.0000 </r>
       <r>    4.8543    1.0000 </r>
       <r>    4.9322    1.0000 </r>
       <r>    4.9322    1.0000 </r>
       <r>    5.0881    1.0000 </r>
       <r>    5.3565    1.0000 </r>
       <r>    5.3565    1.0000 </r>
       <r>   10.7022   -0.0000 </r>
       <r>   10.7022   -0.0000 </r>
       <r>   14.0348    0.0000 </r>
       <r>   14.0348    0.0000 </r>
       <r>   15.1476    0.0000 </r>
       <r>   15.1476    0.0000 </r>
       <r>   16.3270    0.0000 </r>
       <r>   16.3270    0.0000 </r>
      </set>
      <set comment="kpoint 5">
       <r>    0.0912    1.0000 </r>
       <r>    1.0857    1.0000 </r>
       <r>    2.9512    1.0000 </r>
       <r>    2.9512    1.0000 </r>
       <r>    3.2169    1.0000 </r>
       <r>    3.3460    1.0000 </r>
       <r>    3.3460    1.0000 </r>
       <r>    3.4354    1.0000 </r>
       <r>    3.7138    1.0000 </r>
       <r>    3.7138    1.0000 </r>
       <r>    4.3228    1.0000 </r>
       <r>    4.3592    1.0000 </r>
       <r>    4.4542    1.0000 </r>
       <r>    4.4542    1.0000 </r>
       <r>    4.6894    1.0000 </r>
       <r>    4.6894    1.0000 </r>
       <r>    4.7052    1.0000 </r>
       <r>    4.7052    1.0000 </r>
       <r>    4.9202    1.0000 </r>
       <r>    5.0065    1.0000 </r>
       <r>    5.3566    1.0000 </r>
       <r>    5.3566    1.0000 </r>
       <r>   12.0387   -0.0000 </r>
       <r>   12.0387   -0.0000 </r>
       <r>   13.5292    0.0000 </r>
       <r>   13.5292    0.0000 </r>
       <r>   14.5456    0.0000 </r>
       <r>   14.5456    0.0000 </r>
       <r>   15.3284    0.0000 </r>
       <r>   15.3284    0.0000 </r>
      </set>
      <set comment="kpoint 6">
       <r>   -1.7791    1.0000 </r>
       <r>    2.3576    1.0000 </r>
       <r>    2.3576    1.0000 </r>
       <r>    2.4221    1.0000 </r>
       <r>    2.7857    1.0000 </r>
       <r>    2.7857    1.0000 </r>
       <r>    2.7868    1.0000 </r>
       <r>    3.9098    1.0000 </r>
       <r>    4.0182    1.0000 </r>
       <r>    4.0294    1.0000 </r>
       <r>    4.6724    1.0000 </r>
       <r>    4.7259    1.0000 </r>
       <r>    4.9864    1.0000 </r>
       <r>    5.0331    1.0000 </r>
       <r>    5.0331    1.0000 </r>
       <r>    5.1250    1.0000 </r>
       <r>    5.1821    1.0000 </r>
       <r>    5.1821    1.0000 </r>
       <r>    5.3008    1.0000 </r>
       <r>    5.3008    1.0000 </r>
       <r>    5.3205    1.0000 </r>
       <r>    7.8381   -0.0000 </r>
       <r>    7.8381   -0.0000 </r>
       <r>    9.0134   -0.0000 </r>
       <r>   13.5857    0.0000 </r>
       <r>   14.6964    0.0000 </r>
       <r>   14.6964    0.0000 </r>
       <r>   16.8489    0.0000 </r>
       <r>   18.6831    0.0000 </r>
       <r>   18.6834    0.0000 </r>
      </set>
      <set comment="kpoint 7">
       <r>   -1.3582    1.0000 </r>
       <r>    2.2942    1.0000 </r>
       <r>    2.5424    1.0000 </r>
       <r>    2.5903    1.0000 </r>
       <r>    2.8865    1.0000 </r>
       <r>    2.8953    1.0000 </r>
       <r>    2.8978    1.0000 </r>
       <r>    3.8096    1.0000 </r>
       <r>    4.1038    1.0000 </r>
       <r>    4.1046    1.0000 </r>
       <r>    4.5600    1.0000 </r>
       <r>    4.5893    1.0000 </r>
       <r>    4.5905    1.0000 </r>
       <r>    4.7701    1.0000 </r>
       <r>    4.7989    1.0000 </r>
       <r>    5.0026    1.0000 </r>
       <r>    5.0464    1.0000 </r>
       <r>    5.1415    1.0000 </r>
       <r>    5.1482    1.0000 </r>
       <r>    5.3003    1.0000 </r>
       <r>    5.3017    1.0000 </r>
       <r>    6.4117    1.0184 </r>
       <r>    8.6197   -0.0000 </r>
       <r>    9.8188   -0.0000 </r>
       <r>   13.7644    0.0000 </r>
       <r>   14.9594    0.0000 </r>
       <r>   15.0826    0.0000 </r>
       <r>   17.0280    0.0000 </r>
       <r>   17.1161    0.0000 </r>
       <r>   17.7105    0.0000 </r>
      </set>
      <set comment="kpoint 8">
       <r>   -0.6777    1.0000 </r>
       <r>    1.9693    1.0000 </r>
       <r>    2.7896    1.0000 </r>
       <r>    2.8174    1.0000 </r>
       <r>    3.0426    1.0000 </r>
       <r>    3.0721    1.0000 </r>
       <r>    3.0880    1.0000 </r>
       <r>    3.6461    1.0000 </r>
       <r>    4.0707    1.0000 </r>
       <r>    4.1310    1.0000 </r>
       <r>    4.1984    1.0000 </r>
       <r>    4.2541    1.0000 </r>
       <r>    4.4330    1.0000 </r>
       <r>    4.4951    1.0000 </r>
       <r>    4.8324    1.0000 </r>
       <r>    4.8513    1.0000 </r>
       <r>    4.8651    1.0000 </r>
       <r>    4.9314    1.0000 </r>
       <r>    5.0277    1.0000 </r>
       <r>    5.2977    1.0000 </r>
       <r>    5.2994    1.0000 </r>
       <r>    5.4336    1.0000 </r>
       <r>    9.6095   -0.0000 </r>
       <r>   10.9251   -0.0000 </r>
       <r>   13.4208    0.0000 </r>
       <r>   14.1505    0.0000 </r>
       <r>   15.3239    0.0000 </r>
       <r>   15.4270    0.0000 </r>
       <r>   16.4671    0.0000 </r>
       <r>   18.2352    0.0000 </r>
      </set>
      <set comment="kpoint 9">
       <r>    0.2146    1.0000 </r>
       <r>    1.1947    1.0000 </r>
       <r>    2.9910    1.0000 </r>
       <r>    3.0029    1.0000 </r>
       <r>    3.2368    1.0000 </r>
       <r>    3.3123    1.0000 </r>
       <r>    3.3588    1.0000 </r>
       <r>    3.4464    1.0000 </r>
       <r>    3.6452    1.0000 </r>
       <r>    3.7097    1.0000 </r>
       <r>    4.1919    1.0000 </r>
       <r>    4.1949    1.0000 </r>
       <r>    4.4548    1.0000 </r>
       <r>    4.5584    1.0000 </r>
       <r>    4.6889    1.0000 </r>
       <r>    4.6972    1.0000 </r>
       <r>    4.7107    1.0000 </r>
       <r>    4.7859    1.0000 </r>
       <r>    4.9568    1.0000 </r>
       <r>    5.0944    1.0000 </r>
       <r>    5.2975    1.0000 </r>
       <r>    5.2983    1.0000 </r>
       <r>   10.7393   -0.0000 </r>
       <r>   12.0067   -0.0000 </r>
       <r>   12.2374    0.0000 </r>
       <r>   13.7130    0.0000 </r>
       <r>   14.6663    0.0000 </r>
       <r>   15.4336    0.0000 </r>
       <r>   16.1369    0.0000 </r>
       <r>   17.0849    0.0000 </r>
      </set>
      <set comment="kpoint 10">
       <r>   -0.9474    1.0000 </r>
       <r>    2.5067    1.0000 </r>
       <r>    2.5067    1.0000 </r>
       <r>    2.7357    1.0000 </r>
       <r>    2.9810    1.0000 </r>
       <r>    2.9872    1.0000 </r>
       <r>    2.9872    1.0000 </r>
       <r>    3.7578    1.0000 </r>
       <r>    4.1238    1.0000 </r>
       <r>    4.1526    1.0000 </r>
       <r>    4.3070    1.0000 </r>
       <r>    4.3070    1.0000 </r>
       <r>    4.3603    1.0000 </r>
       <r>    4.5628    1.0000 </r>
       <r>    4.8158    1.0000 </r>
       <r>    4.9040    1.0000 </r>
       <r>    5.0241    1.0000 </r>
       <r>    5.0241    1.0000 </r>
       <r>    5.1465    1.0000 </r>
       <r>    5.1465    1.0000 </r>
       <r>    5.2157    1.0000 </r>
       <r>    7.1352   -0.0104 </r>
       <r>    7.1352   -0.0104 </r>
       <r>   10.5262   -0.0000 </r>
       <r>   13.1479    0.0000 </r>
       <r>   14.0258    0.0000 </r>
       <r>   17.4319    0.0000 </r>
       <r>   17.4319    0.0000 </r>
       <r>   17.5405    0.0000 </r>
       <r>   17.5405    0.0000 </r>
      </set>
      <set comment="kpoint 11">
       <r>   -0.2863    1.0000 </r>
       <r>    2.2262    1.0000 </r>
       <r>    2.7996    1.0000 </r>
       <r>    2.9373    1.0000 </r>
       <r>    3.1088    1.0000 </r>
       <r>    3.1248    1.0000 </r>
       <r>    3.1566    1.0000 </r>
       <r>    3.6384    1.0000 </r>
       <r>    3.8625    1.0000 </r>
       <r>    4.0321    1.0000 </r>
       <r>    4.0404    1.0000 </r>
       <r>    4.1307    1.0000 </r>
       <r>    4.2767    1.0000 </r>
       <r>    4.5084    1.0000 </r>
       <r>    4.7641    1.0000 </r>
       <r>    4.8536    1.0000 </r>
       <r>    4.9214    1.0000 </r>
       <r>    4.9298    1.0000 </r>
       <r>    4.9451    1.0000 </r>
       <r>    5.1447    1.0000 </r>
       <r>    5.1680    1.0000 </r>
       <r>    6.0188    1.0000 </r>
       <r>    7.9864   -0.0000 </r>
       <r>   11.5238   -0.0000 </r>
       <r>   11.5510   -0.0000 </r>
       <r>   14.3841    0.0000 </r>
       <r>   15.8363    0.0000 </r>
       <r>   16.8783    0.0000 </r>
       <r>   17.9832    0.0000 </r>
       <r>   18.3494    0.0000 </r>
      </set>
      <set comment="kpoint 12">
       <r>    0.5737    1.0000 </r>
       <r>    1.5053    1.0000 </r>
       <r>    3.0668    1.0000 </r>
       <r>    3.1476    1.0000 </r>
       <r>    3.2188    1.0000 </r>
       <r>    3.2942    1.0000 </r>
       <r>    3.3940    1.0000 </r>
       <r>    3.4739    1.0000 </r>
       <r>    3.4924    1.0000 </r>
       <r>    3.6928    1.0000 </r>
       <r>    3.9694    1.0000 </r>
       <r>    4.0571    1.0000 </r>
       <r>    4.4635    1.0000 </r>
       <r>    4.5656    1.0000 </r>
       <r>    4.6593    1.0000 </r>
       <r>    4.6904    1.0000 </r>
       <r>    4.6963    1.0000 </r>
       <r>    4.7393    1.0000 </r>
       <r>    5.1336    1.0000 </r>
       <r>    5.1444    1.0000 </r>
       <r>    5.1496    1.0000 </r>
       <r>    5.4266    1.0000 </r>
       <r>    8.9712   -0.0000 </r>
       <r>   10.1348   -0.0000 </r>
       <r>   12.8064    0.0000 </r>
       <r>   14.2450    0.0000 </r>
       <r>   14.9654    0.0000 </r>
       <r>   15.7919    0.0000 </r>
       <r>   18.7561    0.0000 </r>
       <r>   19.4073    0.0000 </r>
      </set>
      <set comment="kpoint 13">
       <r>    0.3371    1.0000 </r>
       <r>    2.5847    1.0000 </r>
       <r>    2.5847    1.0000 </r>
       <r>    3.0427    1.0000 </r>
       <r>    3.2148    1.0000 </r>
       <r>    3.2598    1.0000 </r>
       <r>    3.2598    1.0000 </r>
       <r>    3.5932    1.0000 </r>
       <r>    3.7251    1.0000 </r>
       <r>    3.7251    1.0000 </r>
       <r>    3.8640    1.0000 </r>
       <r>    4.0741    1.0000 </r>
       <r>    4.3536    1.0000 </r>
       <r>    4.4520    1.0000 </r>
       <r>    4.6564    1.0000 </r>
       <r>    4.7646    1.0000 </r>
       <r>    4.7646    1.0000 </r>
       <r>    4.9312    1.0000 </r>
       <r>    4.9312    1.0000 </r>
       <r>    5.0486    1.0000 </r>
       <r>    5.1473    1.0000 </r>
       <r>    6.6936    0.7364 </r>
       <r>    6.6936    0.7364 </r>
       <r>    9.8864   -0.0000 </r>
       <r>   12.4950    0.0000 </r>
       <r>   14.8198    0.0000 </r>
       <r>   16.6449    0.0000 </r>
       <r>   16.6449    0.0000 </r>
       <r>   17.5576    0.0000 </r>
       <r>   17.5576    0.0000 </r>
      </set>
      <set comment="kpoint 14">
       <r>    1.1308    1.0000 </r>
       <r>    1.9612    1.0000 </r>
       <r>    2.9197    1.0000 </r>
       <r>    3.0696    1.0000 </r>
       <r>    3.3498    1.0000 </r>
       <r>    3.3822    1.0000 </r>
       <r>    3.4416    1.0000 </r>
       <r>    3.4967    1.0000 </r>
       <r>    3.5016    1.0000 </r>
       <r>    3.6533    1.0000 </r>
       <r>    3.8022    1.0000 </r>
       <r>    3.9624    1.0000 </r>
       <r>    4.4693    1.0000 </r>
       <r>    4.5008    1.0000 </r>
       <r>    4.5726    1.0000 </r>
       <r>    4.6055    1.0000 </r>
       <r>    4.6156    1.0000 </r>
       <r>    4.7035    1.0000 </r>
       <r>    4.9424    1.0000 </r>
       <r>    4.9759    1.0000 </r>
       <r>    5.4363    1.0000 </r>
       <r>    5.8870    1.0000 </r>
       <r>    7.5123   -0.0000 </r>
       <r>    8.5548   -0.0000 </r>
       <r>   13.6863    0.0000 </r>
       <r>   15.0795    0.0000 </r>
       <r>   15.4776    0.0000 </r>
       <r>   16.3865    0.0000 </r>
       <r>   17.7061    0.0000 </r>
       <r>   18.4896    0.0000 </r>
      </set>
      <set comment="kpoint 15">
       <r>    1.8031    1.0000 </r>
       <r>    2.4495    1.0000 </r>
       <r>    2.4495    1.0000 </r>
       <r>    2.8322    1.0000 </r>
       <r>    3.4854    1.0000 </r>
       <r>    3.4854    1.0000 </r>
       <r>    3.5087    1.0000 </r>
       <r>    3.5479    1.0000 </r>
       <r>    3.5826    1.0000 </r>
       <r>    3.6849    1.0000 </r>
       <r>    3.6849    1.0000 </r>
       <r>    3.8610    1.0000 </r>
       <r>    4.4080    1.0000 </r>
       <r>    4.4753    1.0000 </r>
       <r>    4.4826    1.0000 </r>
       <r>    4.4826    1.0000 </r>
       <r>    4.5913    1.0000 </r>
       <r>    4.7446    1.0000 </r>
       <r>    4.7446    1.0000 </r>
       <r>    4.8330    1.0000 </r>
       <r>    5.8530    1.0000 </r>
       <r>    6.4901    1.0345 </r>
       <r>    6.4901    1.0345 </r>
       <r>    7.3445   -0.0001 </r>
       <r>   14.8205    0.0000 </r>
       <r>   16.1692    0.0000 </r>
       <r>   16.1692    0.0000 </r>
       <r>   16.2252    0.0000 </r>
       <r>   17.2275    0.0000 </r>
       <r>   17.2275    0.0000 </r>
      </set>
      <set comment="kpoint 16">
       <r>   -1.6381    1.0000 </r>
       <r>    2.4210    1.0000 </r>
       <r>    2.4210    1.0000 </r>
       <r>    2.4210    1.0000 </r>
       <r>    2.8207    1.0000 </r>
       <r>    2.8207    1.0000 </r>
       <r>    2.8207    1.0000 </r>
       <r>    3.8915    1.0000 </r>
       <r>    4.0408    1.0000 </r>
       <r>    4.0408    1.0000 </r>
       <r>    4.6944    1.0000 </r>
       <r>    4.6944    1.0000 </r>
       <r>    4.9018    1.0000 </r>
       <r>    4.9018    1.0000 </r>
       <r>    4.9018    1.0000 </r>
       <r>    5.0738    1.0000 </r>
       <r>    5.0738    1.0000 </r>
       <r>    5.0738    1.0000 </r>
       <r>    5.3077    1.0000 </r>
       <r>    5.3077    1.0000 </r>
       <r>    5.3077    1.0000 </r>
       <r>    8.1297   -0.0000 </r>
       <r>    8.1297   -0.0000 </r>
       <r>    8.1297   -0.0000 </r>
       <r>   14.7826    0.0000 </r>
       <r>   14.7826    0.0000 </r>
       <r>   14.7826    0.0000 </r>
       <r>   17.0247    0.0000 </r>
       <r>   17.0247    0.0000 </r>
       <r>   17.0247    0.0000 </r>
      </set>
      <set comment="kpoint 17">
       <r>   -1.2208    1.0000 </r>
       <r>    2.3644    1.0000 </r>
       <r>    2.5952    1.0000 </r>
       <r>    2.5952    1.0000 </r>
       <r>    2.9192    1.0000 </r>
       <r>    2.9259    1.0000 </r>
       <r>    2.9259    1.0000 </r>
       <r>    3.8039    1.0000 </r>
       <r>    4.1046    1.0000 </r>
       <r>    4.1089    1.0000 </r>
       <r>    4.4968    1.0000 </r>
       <r>    4.4968    1.0000 </r>
       <r>    4.6143    1.0000 </r>
       <r>    4.6497    1.0000 </r>
       <r>    4.7572    1.0000 </r>
       <r>    4.9403    1.0000 </r>
       <r>    4.9669    1.0000 </r>
       <r>    4.9669    1.0000 </r>
       <r>    5.2624    1.0000 </r>
       <r>    5.2870    1.0000 </r>
       <r>    5.2870    1.0000 </r>
       <r>    6.6872    0.7595 </r>
       <r>    8.8440   -0.0000 </r>
       <r>    8.8440   -0.0000 </r>
       <r>   15.0354    0.0000 </r>
       <r>   15.0354    0.0000 </r>
       <r>   15.2636    0.0000 </r>
       <r>   15.2636    0.0000 </r>
       <r>   17.2175    0.0000 </r>
       <r>   17.5408    0.0000 </r>
      </set>
      <set comment="kpoint 18">
       <r>   -0.5472    1.0000 </r>
       <r>    2.0523    1.0000 </r>
       <r>    2.8323    1.0000 </r>
       <r>    2.8323    1.0000 </r>
       <r>    3.0715    1.0000 </r>
       <r>    3.0945    1.0000 </r>
       <r>    3.0945    1.0000 </r>
       <r>    3.6515    1.0000 </r>
       <r>    4.0549    1.0000 </r>
       <r>    4.0549    1.0000 </r>
       <r>    4.1790    1.0000 </r>
       <r>    4.2223    1.0000 </r>
       <r>    4.2972    1.0000 </r>
       <r>    4.5589    1.0000 </r>
       <r>    4.7588    1.0000 </r>
       <r>    4.8172    1.0000 </r>
       <r>    4.8172    1.0000 </r>
       <r>    4.8513    1.0000 </r>
       <r>    5.1831    1.0000 </r>
       <r>    5.2685    1.0000 </r>
       <r>    5.2685    1.0000 </r>
       <r>    5.6156    1.0000 </r>
       <r>    9.7851   -0.0000 </r>
       <r>    9.7851   -0.0000 </r>
       <r>   13.6302    0.0000 </r>
       <r>   13.6302    0.0000 </r>
       <r>   15.5369    0.0000 </r>
       <r>   15.5369    0.0000 </r>
       <r>   18.3431    0.0000 </r>
       <r>   18.3861    0.0000 </r>
      </set>
      <set comment="kpoint 19">
       <r>    0.3336    1.0000 </r>
       <r>    1.2965    1.0000 </r>
       <r>    3.0418    1.0000 </r>
       <r>    3.0418    1.0000 </r>
       <r>    3.2599    1.0000 </r>
       <r>    3.2889    1.0000 </r>
       <r>    3.2889    1.0000 </r>
       <r>    3.4616    1.0000 </r>
       <r>    3.6863    1.0000 </r>
       <r>    3.6863    1.0000 </r>
       <r>    4.1140    1.0000 </r>
       <r>    4.1450    1.0000 </r>
       <r>    4.3767    1.0000 </r>
       <r>    4.5618    1.0000 </r>
       <r>    4.6842    1.0000 </r>
       <r>    4.6842    1.0000 </r>
       <r>    4.6924    1.0000 </r>
       <r>    4.9634    1.0000 </r>
       <r>    5.0249    1.0000 </r>
       <r>    5.0790    1.0000 </r>
       <r>    5.2605    1.0000 </r>
       <r>    5.2605    1.0000 </r>
       <r>   10.8504   -0.0000 </r>
       <r>   10.8504   -0.0000 </r>
       <r>   12.2422    0.0000 </r>
       <r>   12.2422    0.0000 </r>
       <r>   16.2533    0.0000 </r>
       <r>   16.2533    0.0000 </r>
       <r>   17.2189    0.0000 </r>
       <r>   17.2189    0.0000 </r>
      </set>
      <set comment="kpoint 20">
       <r>   -0.8152    1.0000 </r>
       <r>    2.5560    1.0000 </r>
       <r>    2.5560    1.0000 </r>
       <r>    2.7358    1.0000 </r>
       <r>    3.0124    1.0000 </r>
       <r>    3.0176    1.0000 </r>
       <r>    3.0176    1.0000 </r>
       <r>    3.7615    1.0000 </r>
       <r>    4.1213    1.0000 </r>
       <r>    4.1369    1.0000 </r>
       <r>    4.2614    1.0000 </r>
       <r>    4.2614    1.0000 </r>
       <r>    4.2904    1.0000 </r>
       <r>    4.6169    1.0000 </r>
       <r>    4.7926    1.0000 </r>
       <r>    4.8272    1.0000 </r>
       <r>    4.8485    1.0000 </r>
       <r>    4.8485    1.0000 </r>
       <r>    5.2444    1.0000 </r>
       <r>    5.2444    1.0000 </r>
       <r>    5.2452    1.0000 </r>
       <r>    7.3136   -0.0003 </r>
       <r>    7.3136   -0.0003 </r>
       <r>    9.4349   -0.0000 </r>
       <r>   13.3723    0.0000 </r>
       <r>   15.3495    0.0000 </r>
       <r>   15.7374    0.0000 </r>
       <r>   15.7374    0.0000 </r>
       <r>   17.5453    0.0000 </r>
       <r>   17.5453    0.0000 </r>
      </set>
      <set comment="kpoint 21">
       <r>   -0.1641    1.0000 </r>
       <r>    2.2777    1.0000 </r>
       <r>    2.8128    1.0000 </r>
       <r>    2.9221    1.0000 </r>
       <r>    3.1400    1.0000 </r>
       <r>    3.1609    1.0000 </r>
       <r>    3.1738    1.0000 </r>
       <r>    3.6562    1.0000 </r>
       <r>    3.8832    1.0000 </r>
       <r>    3.9984    1.0000 </r>
       <r>    4.0163    1.0000 </r>
       <r>    4.1251    1.0000 </r>
       <r>    4.2124    1.0000 </r>
       <r>    4.6072    1.0000 </r>
       <r>    4.6712    1.0000 </r>
       <r>    4.6985    1.0000 </r>
       <r>    4.7410    1.0000 </r>
       <r>    4.9234    1.0000 </r>
       <r>    5.1570    1.0000 </r>
       <r>    5.1955    1.0000 </r>
       <r>    5.1959    1.0000 </r>
       <r>    6.1130    1.0000 </r>
       <r>    8.1146   -0.0000 </r>
       <r>   10.2147   -0.0000 </r>
       <r>   11.8139   -0.0000 </r>
       <r>   14.1182    0.0000 </r>
       <r>   15.8594    0.0000 </r>
       <r>   16.5165    0.0000 </r>
       <r>   18.0925    0.0000 </r>
       <r>   18.8358    0.0000 </r>
      </set>
      <set comment="kpoint 22">
       <r>    0.6783    1.0000 </r>
       <r>    1.5823    1.0000 </r>
       <r>    3.0558    1.0000 </r>
       <r>    3.1169    1.0000 </r>
       <r>    3.2092    1.0000 </r>
       <r>    3.2830    1.0000 </r>
       <r>    3.3317    1.0000 </r>
       <r>    3.5044    1.0000 </r>
       <r>    3.6555    1.0000 </r>
       <r>    3.7459    1.0000 </r>
       <r>    3.9580    1.0000 </r>
       <r>    4.0480    1.0000 </r>
       <r>    4.3273    1.0000 </r>
       <r>    4.4852    1.0000 </r>
       <r>    4.6031    1.0000 </r>
       <r>    4.6250    1.0000 </r>
       <r>    4.7482    1.0000 </r>
       <r>    4.9890    1.0000 </r>
       <r>    5.1055    1.0000 </r>
       <r>    5.1662    1.0000 </r>
       <r>    5.1664    1.0000 </r>
       <r>    5.4184    1.0000 </r>
       <r>    9.0598   -0.0000 </r>
       <r>   10.1173   -0.0000 </r>
       <r>   11.5778   -0.0000 </r>
       <r>   12.7128    0.0000 </r>
       <r>   16.6138    0.0000 </r>
       <r>   17.5457    0.0000 </r>
       <r>   17.6176    0.0000 </r>
       <r>   18.7997    0.0000 </r>
      </set>
      <set comment="kpoint 23">
       <r>    0.4424    1.0000 </r>
       <r>    2.5712    1.0000 </r>
       <r>    2.5712    1.0000 </r>
       <r>    2.9677    1.0000 </r>
       <r>    3.2666    1.0000 </r>
       <r>    3.3125    1.0000 </r>
       <r>    3.3125    1.0000 </r>
       <r>    3.6328    1.0000 </r>
       <r>    3.7666    1.0000 </r>
       <r>    3.7666    1.0000 </r>
       <r>    3.8965    1.0000 </r>
       <r>    4.0747    1.0000 </r>
       <r>    4.2288    1.0000 </r>
       <r>    4.5679    1.0000 </r>
       <r>    4.5923    1.0000 </r>
       <r>    4.5923    1.0000 </r>
       <r>    4.6042    1.0000 </r>
       <r>    5.0817    1.0000 </r>
       <r>    5.0817    1.0000 </r>
       <r>    5.1107    1.0000 </r>
       <r>    5.1184    1.0000 </r>
       <r>    6.7559    0.4843 </r>
       <r>    6.7559    0.4843 </r>
       <r>    9.8154   -0.0000 </r>
       <r>   11.3623   -0.0000 </r>
       <r>   14.8799    0.0000 </r>
       <r>   14.8799    0.0000 </r>
       <r>   16.4157    0.0000 </r>
       <r>   18.5866    0.0000 </r>
       <r>   19.5500    0.0000 </r>
      </set>
      <set comment="kpoint 24">
       <r>    1.2052    1.0000 </r>
       <r>    1.9867    1.0000 </r>
       <r>    2.8195    1.0000 </r>
       <r>    2.9459    1.0000 </r>
       <r>    3.3962    1.0000 </r>
       <r>    3.4509    1.0000 </r>
       <r>    3.4557    1.0000 </r>
       <r>    3.5646    1.0000 </r>
       <r>    3.6578    1.0000 </r>
       <r>    3.7727    1.0000 </r>
       <r>    3.8226    1.0000 </r>
       <r>    3.9692    1.0000 </r>
       <r>    4.2904    1.0000 </r>
       <r>    4.4222    1.0000 </r>
       <r>    4.4823    1.0000 </r>
       <r>    4.5036    1.0000 </r>
       <r>    4.7059    1.0000 </r>
       <r>    4.9046    1.0000 </r>
       <r>    5.0341    1.0000 </r>
       <r>    5.0458    1.0000 </r>
       <r>    5.4041    1.0000 </r>
       <r>    5.8791    1.0000 </r>
       <r>    7.5579   -0.0000 </r>
       <r>    8.5816   -0.0000 </r>
       <r>   12.2683    0.0000 </r>
       <r>   13.4620    0.0000 </r>
       <r>   15.8895    0.0000 </r>
       <r>   17.1277    0.0000 </r>
       <r>   17.2225    0.0000 </r>
       <r>   18.2802    0.0000 </r>
      </set>
      <set comment="kpoint 25">
       <r>    1.8234    1.0000 </r>
       <r>    2.3966    1.0000 </r>
       <r>    2.3966    1.0000 </r>
       <r>    2.7160    1.0000 </r>
       <r>    3.5856    1.0000 </r>
       <r>    3.6133    1.0000 </r>
       <r>    3.6133    1.0000 </r>
       <r>    3.6159    1.0000 </r>
       <r>    3.7236    1.0000 </r>
       <r>    3.7236    1.0000 </r>
       <r>    3.7428    1.0000 </r>
       <r>    3.8789    1.0000 </r>
       <r>    4.2771    1.0000 </r>
       <r>    4.3606    1.0000 </r>
       <r>    4.3606    1.0000 </r>
       <r>    4.3744    1.0000 </r>
       <r>    4.7349    1.0000 </r>
       <r>    4.8708    1.0000 </r>
       <r>    4.8708    1.0000 </r>
       <r>    4.9283    1.0000 </r>
       <r>    5.8225    1.0000 </r>
       <r>    6.4853    1.0339 </r>
       <r>    6.4853    1.0339 </r>
       <r>    7.3554   -0.0001 </r>
       <r>   13.2475    0.0000 </r>
       <r>   14.4561    0.0000 </r>
       <r>   14.4561    0.0000 </r>
       <r>   15.6792    0.0000 </r>
       <r>   18.0856    0.0000 </r>
       <r>   19.1983    0.0000 </r>
      </set>
      <set comment="kpoint 26">
       <r>   -0.4264    1.0000 </r>
       <r>    2.6773    1.0000 </r>
       <r>    2.6773    1.0000 </r>
       <r>    2.6773    1.0000 </r>
       <r>    3.1149    1.0000 </r>
       <r>    3.1149    1.0000 </r>
       <r>    3.1149    1.0000 </r>
       <r>    3.7550    1.0000 </r>
       <r>    4.1135    1.0000 </r>
       <r>    4.1135    1.0000 </r>
       <r>    4.1135    1.0000 </r>
       <r>    4.1204    1.0000 </r>
       <r>    4.1204    1.0000 </r>
       <r>    4.6661    1.0000 </r>
       <r>    4.6661    1.0000 </r>
       <r>    4.6661    1.0000 </r>
       <r>    4.7444    1.0000 </r>
       <r>    4.7444    1.0000 </r>
       <r>    5.2721    1.0000 </r>
       <r>    5.2721    1.0000 </r>
       <r>    5.2721    1.0000 </r>
       <r>    7.7881   -0.0000 </r>
       <r>    7.7881   -0.0000 </r>
       <r>    7.7881   -0.0000 </r>
       <r>   13.8685    0.0000 </r>
       <r>   13.8685    0.0000 </r>
       <r>   13.8685    0.0000 </r>
       <r>   17.8768    0.0000 </r>
       <r>   17.8768    0.0000 </r>
       <r>   17.8768    0.0000 </r>
      </set>
      <set comment="kpoint 27">
       <r>    0.1914    1.0000 </r>
       <r>    2.4010    1.0000 </r>
       <r>    2.8110    1.0000 </r>
       <r>    2.8110    1.0000 </r>
       <r>    3.2627    1.0000 </r>
       <r>    3.2627    1.0000 </r>
       <r>    3.2786    1.0000 </r>
       <r>    3.7051    1.0000 </r>
       <r>    3.9278    1.0000 </r>
       <r>    3.9278    1.0000 </r>
       <r>    3.9460    1.0000 </r>
       <r>    4.1048    1.0000 </r>
       <r>    4.1401    1.0000 </r>
       <r>    4.4890    1.0000 </r>
       <r>    4.5517    1.0000 </r>
       <r>    4.5517    1.0000 </r>
       <r>    4.7601    1.0000 </r>
       <r>    4.8986    1.0000 </r>
       <r>    5.2303    1.0000 </r>
       <r>    5.2303    1.0000 </r>
       <r>    5.2491    1.0000 </r>
       <r>    6.4272    1.0219 </r>
       <r>    8.4522   -0.0000 </r>
       <r>    8.4522   -0.0000 </r>
       <r>   12.2798    0.0000 </r>
       <r>   12.2798    0.0000 </r>
       <r>   14.6348    0.0000 </r>
       <r>   18.3534    0.0000 </r>
       <r>   18.4409    0.0000 </r>
       <r>   18.4409    0.0000 </r>
      </set>
      <set comment="kpoint 28">
       <r>    0.9744    1.0000 </r>
       <r>    1.7863    1.0000 </r>
       <r>    2.9059    1.0000 </r>
       <r>    2.9059    1.0000 </r>
       <r>    3.3540    1.0000 </r>
       <r>    3.3540    1.0000 </r>
       <r>    3.4563    1.0000 </r>
       <r>    3.6031    1.0000 </r>
       <r>    3.8429    1.0000 </r>
       <r>    3.8429    1.0000 </r>
       <r>    3.9244    1.0000 </r>
       <r>    4.0197    1.0000 </r>
       <r>    4.2101    1.0000 </r>
       <r>    4.3300    1.0000 </r>
       <r>    4.4714    1.0000 </r>
       <r>    4.4714    1.0000 </r>
       <r>    4.9852    1.0000 </r>
       <r>    5.0485    1.0000 </r>
       <r>    5.1712    1.0000 </r>
       <r>    5.1843    1.0000 </r>
       <r>    5.1843    1.0000 </r>
       <r>    5.5090    1.0000 </r>
       <r>    9.1481   -0.0000 </r>
       <r>    9.1481   -0.0000 </r>
       <r>   11.1188   -0.0000 </r>
       <r>   11.1188   -0.0000 </r>
       <r>   15.6484    0.0000 </r>
       <r>   16.8904    0.0000 </r>
       <r>   19.2397    0.0000 </r>
       <r>   19.2397    0.0000 </r>
      </set>
      <set comment="kpoint 29">
       <r>    0.7415    1.0000 </r>
       <r>    2.5295    1.0000 </r>
       <r>    2.5295    1.0000 </r>
       <r>    2.7667    1.0000 </r>
       <r>    3.4142    1.0000 </r>
       <r>    3.4612    1.0000 </r>
       <r>    3.4612    1.0000 </r>
       <r>    3.7627    1.0000 </r>
       <r>    3.8802    1.0000 </r>
       <r>    3.8802    1.0000 </r>
       <r>    3.9706    1.0000 </r>
       <r>    4.0706    1.0000 </r>
       <r>    4.1096    1.0000 </r>
       <r>    4.3860    1.0000 </r>
       <r>    4.3860    1.0000 </r>
       <r>    4.4002    1.0000 </r>
       <r>    4.8023    1.0000 </r>
       <r>    5.0433    1.0000 </r>
       <r>    5.2019    1.0000 </r>
       <r>    5.2158    1.0000 </r>
       <r>    5.2158    1.0000 </r>
       <r>    6.9501   -0.0240 </r>
       <r>    6.9501   -0.0240 </r>
       <r>    8.7828   -0.0000 </r>
       <r>   10.9543   -0.0000 </r>
       <r>   13.0161    0.0000 </r>
       <r>   13.0161    0.0000 </r>
       <r>   16.6697    0.0000 </r>
       <r>   19.0275    0.0000 </r>
       <r>   21.3355    0.0000 </r>
      </set>
      <set comment="kpoint 30">
       <r>    1.4042    1.0000 </r>
       <r>    2.0448    1.0000 </r>
       <r>    2.6278    1.0000 </r>
       <r>    2.7032    1.0000 </r>
       <r>    3.5305    1.0000 </r>
       <r>    3.5626    1.0000 </r>
       <r>    3.6711    1.0000 </r>
       <r>    3.7764    1.0000 </r>
       <r>    3.8893    1.0000 </r>
       <r>    3.9314    1.0000 </r>
       <r>    3.9809    1.0000 </r>
       <r>    3.9964    1.0000 </r>
       <r>    4.1417    1.0000 </r>
       <r>    4.2403    1.0000 </r>
       <r>    4.3161    1.0000 </r>
       <r>    4.3216    1.0000 </r>
       <r>    4.9332    1.0000 </r>
       <r>    5.1213    1.0000 </r>
       <r>    5.1518    1.0000 </r>
       <r>    5.1548    1.0000 </r>
       <r>    5.3106    1.0000 </r>
       <r>    5.8813    1.0000 </r>
       <r>    7.6507   -0.0000 </r>
       <r>    8.4475   -0.0000 </r>
       <r>   10.8264   -0.0000 </r>
       <r>   11.7061   -0.0000 </r>
       <r>   14.0001    0.0000 </r>
       <r>   15.2188    0.0000 </r>
       <r>   19.8566    0.0000 </r>
       <r>   20.9031    0.0000 </r>
      </set>
      <set comment="kpoint 31">
       <r>    1.8714    1.0000 </r>
       <r>    2.2875    1.0000 </r>
       <r>    2.2875    1.0000 </r>
       <r>    2.5002    1.0000 </r>
       <r>    3.6919    1.0000 </r>
       <r>    3.7752    1.0000 </r>
       <r>    3.7752    1.0000 </r>
       <r>    3.9193    1.0000 </r>
       <r>    3.9575    1.0000 </r>
       <r>    3.9890    1.0000 </r>
       <r>    3.9890    1.0000 </r>
       <r>    4.0802    1.0000 </r>
       <r>    4.1176    1.0000 </r>
       <r>    4.1927    1.0000 </r>
       <r>    4.1927    1.0000 </r>
       <r>    4.2076    1.0000 </r>
       <r>    4.9296    1.0000 </r>
       <r>    5.0511    1.0000 </r>
       <r>    5.0511    1.0000 </r>
       <r>    5.0772    1.0000 </r>
       <r>    5.7262    1.0000 </r>
       <r>    6.4646    1.0303 </r>
       <r>    6.4646    1.0303 </r>
       <r>    7.3341   -0.0002 </r>
       <r>   11.5324   -0.0000 </r>
       <r>   12.6218    0.0000 </r>
       <r>   12.6218    0.0000 </r>
       <r>   13.7954    0.0000 </r>
       <r>   20.7195    0.0000 </r>
       <r>   21.8139    0.0000 </r>
      </set>
      <set comment="kpoint 32">
       <r>    1.1799    1.0000 </r>
       <r>    2.4773    1.0000 </r>
       <r>    2.4773    1.0000 </r>
       <r>    2.4773    1.0000 </r>
       <r>    3.6233    1.0000 </r>
       <r>    3.6233    1.0000 </r>
       <r>    3.6233    1.0000 </r>
       <r>    3.9891    1.0000 </r>
       <r>    4.0464    1.0000 </r>
       <r>    4.0464    1.0000 </r>
       <r>    4.0581    1.0000 </r>
       <r>    4.0581    1.0000 </r>
       <r>    4.0581    1.0000 </r>
       <r>    4.2374    1.0000 </r>
       <r>    4.2374    1.0000 </r>
       <r>    4.2374    1.0000 </r>
       <r>    4.9864    1.0000 </r>
       <r>    4.9864    1.0000 </r>
       <r>    5.2461    1.0000 </r>
       <r>    5.2461    1.0000 </r>
       <r>    5.2461    1.0000 </r>
       <r>    7.2657   -0.0009 </r>
       <r>    7.2657   -0.0009 </r>
       <r>    7.2657   -0.0009 </r>
       <r>   11.5133   -0.0000 </r>
       <r>   11.5133   -0.0000 </r>
       <r>   11.5133   -0.0000 </r>
       <r>   14.9962    0.0000 </r>
       <r>   21.9211    0.0000 </r>
       <r>   21.9211    0.0000 </r>
      </set>
      <set comment="kpoint 33">
       <r>    1.6659    1.0000 </r>
       <r>    2.1105    1.0000 </r>
       <r>    2.4431    1.0000 </r>
       <r>    2.4431    1.0000 </r>
       <r>    3.7047    1.0000 </r>
       <r>    3.7047    1.0000 </r>
       <r>    3.8335    1.0000 </r>
       <r>    3.9777    1.0000 </r>
       <r>    4.0478    1.0000 </r>
       <r>    4.1142    1.0000 </r>
       <r>    4.1453    1.0000 </r>
       <r>    4.1594    1.0000 </r>
       <r>    4.1594    1.0000 </r>
       <r>    4.1718    1.0000 </r>
       <r>    4.2408    1.0000 </r>
       <r>    4.2408    1.0000 </r>
       <r>    5.1328    1.0000 </r>
       <r>    5.2090    1.0000 </r>
       <r>    5.2095    1.0000 </r>
       <r>    5.2095    1.0000 </r>
       <r>    5.2232    1.0000 </r>
       <r>    6.0084    1.0000 </r>
       <r>    7.5812   -0.0000 </r>
       <r>    7.5812   -0.0000 </r>
       <r>   10.5761   -0.0000 </r>
       <r>   10.5761   -0.0000 </r>
       <r>   12.4120    0.0000 </r>
       <r>   13.5761    0.0000 </r>
       <r>   22.7097    0.0000 </r>
       <r>   22.7097    0.0000 </r>
      </set>
      <set comment="kpoint 34">
       <r>    1.9324    1.0000 </r>
       <r>    2.1878    1.0000 </r>
       <r>    2.1878    1.0000 </r>
       <r>    2.2951    1.0000 </r>
       <r>    3.8149    1.0000 </r>
       <r>    3.8585    1.0000 </r>
       <r>    3.8585    1.0000 </r>
       <r>    3.9554    1.0000 </r>
       <r>    4.0058    1.0000 </r>
       <r>    4.0511    1.0000 </r>
       <r>    4.0511    1.0000 </r>
       <r>    4.0662    1.0000 </r>
       <r>    4.4729    1.0000 </r>
       <r>    4.4729    1.0000 </r>
       <r>    4.4865    1.0000 </r>
       <r>    4.5495    1.0000 </r>
       <r>    5.0925    1.0000 </r>
       <r>    5.1857    1.0000 </r>
       <r>    5.1857    1.0000 </r>
       <r>    5.1875    1.0000 </r>
       <r>    5.5540    1.0000 </r>
       <r>    6.4118    1.0185 </r>
       <r>    6.4118    1.0185 </r>
       <r>    7.0629   -0.0252 </r>
       <r>   10.4705   -0.0000 </r>
       <r>   11.1925   -0.0000 </r>
       <r>   11.1925   -0.0000 </r>
       <r>   12.2250    0.0000 </r>
       <r>   23.5444    0.0000 </r>
       <r>   24.5514    0.0000 </r>
      </set>
      <set comment="kpoint 35">
       <r>    2.0136    1.0000 </r>
       <r>    2.1313    1.0000 </r>
       <r>    2.1313    1.0000 </r>
       <r>    2.1313    1.0000 </r>
       <r>    3.9107    1.0000 </r>
       <r>    3.9107    1.0000 </r>
       <r>    3.9107    1.0000 </r>
       <r>    3.9576    1.0000 </r>
       <r>    3.9576    1.0000 </r>
       <r>    3.9787    1.0000 </r>
       <r>    3.9787    1.0000 </r>
       <r>    3.9787    1.0000 </r>
       <r>    4.8968    1.0000 </r>
       <r>    4.8968    1.0000 </r>
       <r>    4.8968    1.0000 </r>
       <r>    5.1978    1.0000 </r>
       <r>    5.1978    1.0000 </r>
       <r>    5.2308    1.0000 </r>
       <r>    5.2308    1.0000 </r>
       <r>    5.2308    1.0000 </r>
       <r>    5.4602    1.0000 </r>
       <r>    6.3323    1.0057 </r>
       <r>    6.3323    1.0057 </r>
       <r>    6.3323    1.0057 </r>
       <r>   10.3708   -0.0000 </r>
       <r>   10.3708   -0.0000 </r>
       <r>   10.3708   -0.0000 </r>
       <r>   11.0429   -0.0000 </r>
       <r>   26.3126    0.0000 </r>
       <r>   26.3126    0.0000 </r>
      </set>
     </set>
    </set>
   </array>
  </eigenvalues>
  <separator name="orbital magnetization" >
   <v name="MAGDIPOLOUT">      0.00000000      0.00000000      0.00000000</v>
  </separator>
  <dos>
   <i name="efermi">      6.75216071 </i>
   <total>
    <array>
     <dimension dim="1">gridpoints</dimension>
     <dimension dim="2">spin</dimension>
     <field>energy</field>
     <field>total</field>
     <field>integrated</field>
     <set>
      <set comment="spin 1">
       <r>    -4.0644     0.0000     0.0000 </r>
       <r>    -3.9564     0.0000     0.0000 </r>
       <r>    -3.8485     0.0000     0.0000 </r>
       <r>    -3.7406    -0.0000    -0.0000 </r>
       <r>    -3.6327    -0.0000    -0.0000 </r>
       <r>    -3.5248    -0.0000    -0.0000 </r>
       <r>    -3.4168    -0.0000    -0.0000 </r>
       <r>    -3.3089    -0.0000    -0.0000 </r>
       <r>    -3.2010    -0.0000    -0.0000 </r>
       <r>    -3.0931    -0.0000    -0.0000 </r>
       <r>    -2.9851    -0.0000    -0.0000 </r>
       <r>    -2.8772    -0.0000    -0.0000 </r>
       <r>    -2.7693    -0.0000    -0.0000 </r>
       <r>    -2.6614    -0.0000    -0.0000 </r>
       <r>    -2.5534    -0.0000    -0.0000 </r>
       <r>    -2.4455    -0.0003    -0.0000 </r>
       <r>    -2.3376    -0.0015    -0.0002 </r>
       <r>    -2.2297    -0.0030    -0.0005 </r>
       <r>    -2.1218     0.0020    -0.0003 </r>
       <r>    -2.0138     0.0307     0.0030 </r>
       <r>    -1.9059     0.0952     0.0133 </r>
       <r>    -1.7980     0.1683     0.0314 </r>
       <r>    -1.6901     0.1896     0.0519 </r>
       <r>    -1.5821     0.1573     0.0689 </r>
       <r>    -1.4742     0.1792     0.0882 </r>
       <r>    -1.3663     0.3224     0.1230 </r>
       <r>    -1.2584     0.4368     0.1702 </r>
       <r>    -1.1504     0.3434     0.2072 </r>
       <r>    -1.0425     0.1689     0.2254 </r>
       <r>    -0.9346     0.1942     0.2464 </r>
       <r>    -0.8267     0.3985     0.2894 </r>
       <r>    -0.7187     0.5380     0.3475 </r>
       <r>    -0.6108     0.5298     0.4047 </r>
       <r>    -0.5029     0.4265     0.4507 </r>
       <r>    -0.3950     0.3329     0.4866 </r>
       <r>    -0.2871     0.4493     0.5351 </r>
       <r>    -0.1791     0.6641     0.6068 </r>
       <r>    -0.0712     0.5528     0.6664 </r>
       <r>     0.0367     0.2676     0.6953 </r>
       <r>     0.1446     0.3673     0.7349 </r>
       <r>     0.2526     0.7202     0.8127 </r>
       <r>     0.3605     0.8251     0.9017 </r>
       <r>     0.4684     0.6940     0.9766 </r>
       <r>     0.5763     0.7058     1.0528 </r>
       <r>     0.6843     0.8912     1.1490 </r>
       <r>     0.7922     0.7721     1.2323 </r>
       <r>     0.9001     0.3896     1.2743 </r>
       <r>     1.0080     0.3561     1.3128 </r>
       <r>     1.1159     0.8280     1.4021 </r>
       <r>     1.2239     1.3253     1.5452 </r>
       <r>     1.3318     1.3205     1.6877 </r>
       <r>     1.4397     1.0995     1.8064 </r>
       <r>     1.5476     1.0436     1.9190 </r>
       <r>     1.6556     0.9892     2.0257 </r>
       <r>     1.7635     1.0202     2.1358 </r>
       <r>     1.8714     1.5401     2.3021 </r>
       <r>     1.9793     2.3185     2.5523 </r>
       <r>     2.0873     2.6450     2.8377 </r>
       <r>     2.1952     2.7638     3.1360 </r>
       <r>     2.3031     3.4961     3.5133 </r>
       <r>     2.4110     4.5908     4.0088 </r>
       <r>     2.5190     5.3536     4.5866 </r>
       <r>     2.6269     5.4832     5.1783 </r>
       <r>     2.7348     5.9320     5.8185 </r>
       <r>     2.8427     7.6658     6.6458 </r>
       <r>     2.9506     9.3588     7.6559 </r>
       <r>     3.0586     9.9763     8.7326 </r>
       <r>     3.1665     9.7486     9.7847 </r>
       <r>     3.2744     9.2540    10.7834 </r>
       <r>     3.3823     9.1397    11.7698 </r>
       <r>     3.4903     9.5656    12.8021 </r>
       <r>     3.5982    10.9703    13.9861 </r>
       <r>     3.7061    13.0118    15.3903 </r>
       <r>     3.8140    14.2150    16.9245 </r>
       <r>     3.9220    15.6001    18.6081 </r>
       <r>     4.0299    18.1367    20.5655 </r>
       <r>     4.1378    18.8828    22.6034 </r>
       <r>     4.2457    16.1025    24.3412 </r>
       <r>     4.3536    12.6610    25.7076 </r>
       <r>     4.4616    12.1665    27.0207 </r>
       <r>     4.5695    14.2974    28.5637 </r>
       <r>     4.6774    15.8788    30.2774 </r>
       <r>     4.7853    15.4173    31.9413 </r>
       <r>     4.8933    14.4024    33.4956 </r>
       <r>     5.0012    15.2154    35.1377 </r>
       <r>     5.1091    18.4981    37.1341 </r>
       <r>     5.2170    20.6805    39.3660 </r>
       <r>     5.3250    16.4833    41.1449 </r>
       <r>     5.4329     8.3408    42.0451 </r>
       <r>     5.5408     2.6650    42.3327 </r>
       <r>     5.6487     0.6798    42.4061 </r>
       <r>     5.7567     0.7648    42.4886 </r>
       <r>     5.8646     1.6601    42.6678 </r>
       <r>     5.9725     2.0519    42.8892 </r>
       <r>     6.0804     1.5153    43.0528 </r>
       <r>     6.1883     0.7740    43.1363 </r>
       <r>     6.2963     0.7462    43.2169 </r>
       <r>     6.4042     1.7734    43.4082 </r>
       <r>     6.5121     2.4037    43.6677 </r>
       <r>     6.6200     1.7480    43.8563 </r>
       <r>     6.7280     1.1128    43.9764 </r>
       <r>     6.8359     0.9179    44.0755 </r>
       <r>     6.9438     0.7869    44.1604 </r>
       <r>     7.0517     0.7482    44.2411 </r>
       <r>     7.1597     0.8033    44.3278 </r>
       <r>     7.2676     1.1434    44.4512 </r>
       <r>     7.3755     1.5034    44.6135 </r>
       <r>     7.4834     1.6134    44.7876 </r>
       <r>     7.5913     1.7863    44.9804 </r>
       <r>     7.6993     1.6062    45.1537 </r>
       <r>     7.8072     0.9899    45.2606 </r>
       <r>     7.9151     0.6094    45.3263 </r>
       <r>     8.0230     0.6821    45.4000 </r>
       <r>     8.1310     0.8636    45.4932 </r>
       <r>     8.2389     0.6520    45.5635 </r>
       <r>     8.3468     0.5481    45.6227 </r>
       <r>     8.4547     1.1841    45.7505 </r>
       <r>     8.5627     1.7407    45.9383 </r>
       <r>     8.6706     1.5022    46.1004 </r>
       <r>     8.7785     1.0623    46.2151 </r>
       <r>     8.8864     0.9755    46.3204 </r>
       <r>     8.9943     1.1316    46.4425 </r>
       <r>     9.1023     1.2618    46.5787 </r>
       <r>     9.2102     0.9559    46.6818 </r>
       <r>     9.3181     0.4031    46.7253 </r>
       <r>     9.4260     0.2339    46.7506 </r>
       <r>     9.5340     0.3849    46.7921 </r>
       <r>     9.6419     0.5827    46.8550 </r>
       <r>     9.7498     0.9385    46.9563 </r>
       <r>     9.8577     1.1419    47.0795 </r>
       <r>     9.9657     0.8157    47.1676 </r>
       <r>    10.0736     0.7406    47.2475 </r>
       <r>    10.1815     1.1231    47.3687 </r>
       <r>    10.2894     1.0747    47.4847 </r>
       <r>    10.3974     0.7551    47.5662 </r>
       <r>    10.5053     0.7833    47.6507 </r>
       <r>    10.6132     0.9260    47.7507 </r>
       <r>    10.7211     1.0757    47.8668 </r>
       <r>    10.8290     1.4563    48.0239 </r>
       <r>    10.9370     1.5760    48.1940 </r>
       <r>    11.0449     1.2678    48.3308 </r>
       <r>    11.1528     1.1024    48.4498 </r>
       <r>    11.2607     0.9075    48.5478 </r>
       <r>    11.3687     0.6614    48.6191 </r>
       <r>    11.4766     1.0446    48.7319 </r>
       <r>    11.5845     1.6996    48.9153 </r>
       <r>    11.6924     1.6701    49.0955 </r>
       <r>    11.8004     1.1714    49.2220 </r>
       <r>    11.9083     0.6999    49.2975 </r>
       <r>    12.0162     0.4333    49.3443 </r>
       <r>    12.1241     0.7683    49.4272 </r>
       <r>    12.2320     1.7649    49.6176 </r>
       <r>    12.3400     2.1343    49.8480 </r>
       <r>    12.4479     1.2947    49.9877 </r>
       <r>    12.5558     0.7100    50.0643 </r>
       <r>    12.6637     0.9285    50.1645 </r>
       <r>    12.7717     1.0374    50.2765 </r>
       <r>    12.8796     0.7209    50.3543 </r>
       <r>    12.9875     0.5453    50.4131 </r>
       <r>    13.0954     0.5665    50.4743 </r>
       <r>    13.2034     0.5017    50.5284 </r>
       <r>    13.3113     0.6057    50.5938 </r>
       <r>    13.4192     1.0952    50.7120 </r>
       <r>    13.5271     1.6664    50.8918 </r>
       <r>    13.6351     1.9719    51.1047 </r>
       <r>    13.7430     1.8618    51.3056 </r>
       <r>    13.8509     1.3860    51.4552 </r>
       <r>    13.9588     1.1196    51.5760 </r>
       <r>    14.0667     1.3206    51.7185 </r>
       <r>    14.1747     1.3362    51.8627 </r>
       <r>    14.2826     0.9461    51.9648 </r>
       <r>    14.3905     0.7563    52.0465 </r>
       <r>    14.4984     0.8887    52.1424 </r>
       <r>    14.6064     1.0310    52.2536 </r>
       <r>    14.7143     1.1837    52.3814 </r>
       <r>    14.8222     1.3852    52.5309 </r>
       <r>    14.9301     1.6698    52.7111 </r>
       <r>    15.0381     1.8859    52.9146 </r>
       <r>    15.1460     1.8566    53.1150 </r>
       <r>    15.2539     1.8456    53.3142 </r>
       <r>    15.3618     1.8991    53.5191 </r>
       <r>    15.4697     1.7359    53.7065 </r>
       <r>    15.5777     1.4547    53.8635 </r>
       <r>    15.6856     1.4755    54.0227 </r>
       <r>    15.7935     1.8807    54.2257 </r>
       <r>    15.9014     1.8741    54.4279 </r>
       <r>    16.0094     1.1008    54.5467 </r>
       <r>    16.1173     0.6561    54.6176 </r>
       <r>    16.2252     0.9928    54.7247 </r>
       <r>    16.3331     1.3102    54.8661 </r>
       <r>    16.4411     1.4459    55.0221 </r>
       <r>    16.5490     1.6184    55.1968 </r>
       <r>    16.6569     1.5248    55.3614 </r>
       <r>    16.7648     1.0838    55.4783 </r>
       <r>    16.8728     0.8812    55.5735 </r>
       <r>    16.9807     1.2088    55.7039 </r>
       <r>    17.0886     1.9521    55.9146 </r>
       <r>    17.1965     2.5204    56.1866 </r>
       <r>    17.3044     1.9989    56.4023 </r>
       <r>    17.4124     1.2914    56.5417 </r>
       <r>    17.5203     1.9340    56.7504 </r>
       <r>    17.6282     2.6240    57.0336 </r>
       <r>    17.7361     1.8515    57.2334 </r>
       <r>    17.8441     0.7741    57.3170 </r>
       <r>    17.9520     0.5438    57.3757 </r>
       <r>    18.0599     0.8633    57.4688 </r>
       <r>    18.1678     1.1874    57.5970 </r>
       <r>    18.2758     1.6293    57.7728 </r>
       <r>    18.3837     2.1279    58.0025 </r>
       <r>    18.4916     1.9452    58.2124 </r>
       <r>    18.5995     1.2651    58.3489 </r>
       <r>    18.7074     1.1265    58.4705 </r>
       <r>    18.8154     1.4554    58.6276 </r>
       <r>    18.9233     1.2222    58.7595 </r>
       <r>    19.0312     0.6127    58.8256 </r>
       <r>    19.1391     0.5244    58.8822 </r>
       <r>    19.2471     0.8073    58.9693 </r>
       <r>    19.3550     0.8127    59.0571 </r>
       <r>    19.4629     0.5760    59.1192 </r>
       <r>    19.5708     0.3782    59.1600 </r>
       <r>    19.6788     0.2379    59.1857 </r>
       <r>    19.7867     0.3222    59.2205 </r>
       <r>    19.8946     0.5125    59.2758 </r>
       <r>    20.0025     0.3711    59.3159 </r>
       <r>    20.1105     0.0779    59.3243 </r>
       <r>    20.2184    -0.0265    59.3214 </r>
       <r>    20.3263    -0.0194    59.3193 </r>
       <r>    20.4342    -0.0184    59.3173 </r>
       <r>    20.5421    -0.0016    59.3171 </r>
       <r>    20.6501     0.1171    59.3298 </r>
       <r>    20.7580     0.3466    59.3672 </r>
       <r>    20.8659     0.5719    59.4289 </r>
       <r>    20.9738     0.5616    59.4895 </r>
       <r>    21.0818     0.2556    59.5171 </r>
       <r>    21.1897     0.0575    59.5233 </r>
       <r>    21.2976     0.1623    59.5408 </r>
       <r>    21.4055     0.2515    59.5680 </r>
       <r>    21.5135     0.1254    59.5815 </r>
       <r>    21.6214     0.0085    59.5824 </r>
       <r>    21.7293     0.1092    59.5942 </r>
       <r>    21.8372     0.3337    59.6302 </r>
       <r>    21.9451     0.3826    59.6715 </r>
       <r>    22.0531     0.1958    59.6926 </r>
       <r>    22.1610     0.0251    59.6954 </r>
       <r>    22.2689    -0.0204    59.6932 </r>
       <r>    22.3768    -0.0271    59.6902 </r>
       <r>    22.4848    -0.0178    59.6883 </r>
       <r>    22.5927     0.1469    59.7042 </r>
       <r>    22.7006     0.4573    59.7535 </r>
       <r>    22.8085     0.4946    59.8069 </r>
       <r>    22.9165     0.1970    59.8281 </r>
       <r>    23.0244    -0.0053    59.8276 </r>
       <r>    23.1323    -0.0265    59.8247 </r>
       <r>    23.2402    -0.0183    59.8227 </r>
       <r>    23.3481     0.0016    59.8229 </r>
       <r>    23.4561     0.1139    59.8352 </r>
       <r>    23.5640     0.2555    59.8628 </r>
       <r>    23.6719     0.2158    59.8861 </r>
       <r>    23.7798     0.0603    59.8926 </r>
       <r>    23.8878    -0.0105    59.8914 </r>
       <r>    23.9957    -0.0091    59.8905 </r>
       <r>    24.1036    -0.0037    59.8901 </r>
       <r>    24.2115    -0.0094    59.8890 </r>
       <r>    24.3195    -0.0099    59.8880 </r>
       <r>    24.4274     0.0647    59.8950 </r>
       <r>    24.5353     0.2203    59.9187 </r>
       <r>    24.6432     0.2530    59.9460 </r>
       <r>    24.7512     0.1087    59.9578 </r>
       <r>    24.8591     0.0005    59.9578 </r>
       <r>    24.9670    -0.0120    59.9565 </r>
       <r>    25.0749    -0.0033    59.9561 </r>
       <r>    25.1828    -0.0004    59.9561 </r>
       <r>    25.2908    -0.0000    59.9561 </r>
       <r>    25.3987    -0.0000    59.9561 </r>
       <r>    25.5066    -0.0000    59.9561 </r>
       <r>    25.6145    -0.0000    59.9561 </r>
       <r>    25.7225    -0.0000    59.9561 </r>
       <r>    25.8304    -0.0006    59.9560 </r>
       <r>    25.9383    -0.0041    59.9556 </r>
       <r>    26.0462    -0.0090    59.9546 </r>
       <r>    26.1542     0.0187    59.9566 </r>
       <r>    26.2621     0.1145    59.9690 </r>
       <r>    26.3700     0.1784    59.9882 </r>
       <r>    26.4779     0.1076    59.9998 </r>
       <r>    26.5858     0.0148    60.0014 </r>
       <r>    26.6938    -0.0090    60.0005 </r>
       <r>    26.8017    -0.0038    60.0001 </r>
       <r>    26.9096    -0.0006    60.0000 </r>
       <r>    27.0175    -0.0000    60.0000 </r>
       <r>    27.1255    -0.0000    60.0000 </r>
       <r>    27.2334    -0.0000    60.0000 </r>
       <r>    27.3413    -0.0000    60.0000 </r>
       <r>    27.4492    -0.0000    60.0000 </r>
       <r>    27.5572    -0.0000    60.0000 </r>
       <r>    27.6651     0.0000    60.0000 </r>
       <r>    27.7730     0.0000    60.0000 </r>
       <r>    27.8809     0.0000    60.0000 </r>
       <r>    27.9889     0.0000    60.0000 </r>
       <r>    28.0968     0.0000    60.0000 </r>
       <r>    28.2047     0.0000    60.0000 </r>
       <r>    28.3126     0.0000    60.0000 </r>
      </set>
     </set>
    </array>
   </total>
  </dos>
 </calculation>
 <structure name="finalpos" >
  <crystal>
   <varray name="basis" >
    <v>       3.69460076       0.00000000       0.00000000 </v>
    <v>       0.00000000       3.69460076       0.00000000 </v>
    <v>       0.00000000       0.00000000       3.69460076 </v>
   </varray>
   <i name="volume">     50.43157652 </i>
   <varray name="rec_basis" >
    <v>       0.27066524       0.00000000       0.00000000 </v>
    <v>       0.00000000       0.27066524       0.00000000 </v>
    <v>       0.00000000       0.00000000       0.27066524 </v>
   </varray>
  </crystal>
  <varray name="positions" >
   <v>       0.00000000       0.00000000       0.00000000 </v>
   <v>       0.50000000       0.50000000       0.00000000 </v>
   <v>       0.50000000       0.00000000       0.50000000 </v>
   <v>       0.00000000       0.50000000       0.50000000 </v>
  </varray>
 </structure>
</modeling>
