unknown system                          
   1.00000000000000     
     2.330000    0.000000    0.000000
    -1.165000    2.017839    0.000000
     0.000000    0.000000    4.100000
   Fe
     2
Direct
  0.000000  0.000000  0.000000
  0.333333  0.666667  0.500000
 
   20   20   32
  161.58      153.10      130.28      99.624      68.483      42.435      24.265      14.098      9.9628      8.6839    
  8.2629      8.6839      9.9627      14.098      24.265      42.435      68.483      99.624      130.28      153.10    
  153.10      153.10      137.48      110.92      80.434      52.458      31.084      17.676      11.234      9.0753    
  8.2845      8.2845      9.0753      11.234      17.674      31.082      52.457      80.436      110.93      137.49    
  130.28      137.46      130.28      110.92      84.860      58.347      36.244      21.020      12.734      9.4881    
  8.3681      7.9721      8.3681      9.4884      12.734      21.019      36.241      58.346      84.863      110.93    
  99.621      110.86      110.86      99.623      80.433      58.347      38.168      23.044      13.968      9.9161    
  8.4804      7.7791      7.7790      8.4806      9.9171      13.969      23.044      38.166      58.344      80.430    
  68.475      80.349      84.745      80.355      68.483      52.458      36.244      23.044      14.446      10.203    
  8.5754      7.6907      7.3765      7.6903      8.5754      10.204      14.449      23.047      36.244      52.453    
  42.434      52.386      58.222      58.224      52.389      42.435      31.084      21.020      13.968      10.203    
  8.6125      7.6641      7.1594      7.1592      7.6632      8.6113      10.203      13.970      21.024      31.087    
  24.270      31.055      36.167      38.067      36.164      31.050      24.265      17.676      12.734      9.9162    
  8.5754      7.6641      7.0933      6.9042      7.0933      7.6629      8.5727      9.9135      12.734      17.679    
  14.098      17.682      21.010      23.013      23.011      21.004      17.677      14.098      11.234      9.4883    
  8.4804      7.6906      7.1594      6.9041      6.9049      7.1607      7.6906      8.4777      9.4836      11.231    
  9.9576      11.253      12.765      14.000      14.476      13.999      12.766      11.256      9.9628      9.0753    
  8.3681      7.7790      7.3764      7.1591      7.0933      7.1607      7.3793      7.7816      8.3681      9.0717    
  8.6839      9.0997      9.5342      9.9774      10.272      10.273      9.9810      9.5390      9.1033      8.6838    
  8.2845      7.9721      7.7789      7.6903      7.6632      7.6629      7.6906      7.7816      7.9767      8.2881    
  8.2681      8.3175      8.4241      8.5546      8.6625      8.7054      8.6651      8.5572      8.4240      8.3139    
  8.2628      8.2845      8.3681      8.4806      8.5754      8.6113      8.5727      8.4777      8.3681      8.2881    
  8.6839      8.3176      8.0345      7.8649      7.7939      7.7773      7.7775      7.7933      7.8620      8.0298    
  8.3139      8.6839      9.0754      9.4885      9.9171      10.204      10.203      9.9134      9.4836      9.0718    
  9.9577      9.0998      8.4241      7.8649      7.4875      7.2875      7.2270      7.2858      7.4844      7.8620    
  8.4239      9.1033      9.9629      11.234      12.734      13.969      14.449      13.970      12.734      11.231    
  14.098      11.253      9.5343      8.5545      7.7937      7.2874      7.0460      7.0453      7.2861      7.7936    
  8.5569      9.5386      11.257      14.098      17.675      21.019      23.044      23.047      21.024      17.679    
  24.270      17.682      12.765      9.9773      8.6623      7.7771      7.2269      7.0453      7.2271      7.7784    
  8.6651      9.9800      12.766      17.679      24.265      31.082      36.241      38.166      36.244      31.087    
  42.434      31.055      21.010      14.000      10.271      8.7051      7.7773      7.2859      7.2863      7.7785    
  8.7067      10.272      13.998      21.006      31.052      42.435      52.457      58.346      58.344      52.453    
  68.475      52.386      36.167      23.013      14.475      10.273      8.6649      7.7934      7.4847      7.7938    
  8.6651      10.272      14.473      23.011      36.167      52.391      68.483      80.436      84.863      80.430    
  99.621      80.349      58.222      38.067      23.011      13.999      9.9808      8.5573      7.8623      7.8623    
  8.5570      9.9799      13.997      23.011      38.069      58.225      80.352      99.624      110.93      110.93    
  130.28      110.86      84.746      58.224      36.164      21.004      12.765      9.5390      8.4243      8.0301    
  8.4241      9.5385      12.765      21.006      36.167      58.225      84.743      110.86      130.28      137.49    
  153.10      137.46      110.86      80.355      52.390      31.050      17.677      11.256      9.1034      8.3141    
  8.3141      9.1033      11.256      17.678      31.052      52.391      80.352      110.86      137.45      153.10    
  151.31      143.38      122.05      93.358      64.172      39.777      22.840      13.468      9.7187      8.5163    
  8.1070      8.5163      9.7187      13.467      22.840      39.777      64.172      93.358      122.05      143.38    
  143.39      143.38      128.79      103.93      75.363      49.142      29.164      16.732      10.849      8.8852    
  8.1156      8.1156      8.8853      10.849      16.731      29.162      49.141      75.365      103.94      128.80    
  122.06      128.77      122.05      103.93      79.508      54.649      33.963      19.803      12.193      9.2574    
  8.1900      7.8071      8.1900      9.2577      12.193      19.801      33.960      54.648      79.510      103.94    
  93.356      103.89      103.89      93.358      75.363      54.649      35.754      21.667      13.307      9.6348    
  8.2963      7.6194      7.6194      8.2965      9.6357      13.308      21.668      35.753      54.646      75.359    
  64.164      75.305      79.430      75.311      64.171      49.142      33.963      21.667      13.739      9.8875    
  8.3880      7.5354      7.2348      7.5351      8.3881      9.8888      13.742      21.670      33.963      49.137    
  39.776      49.103      54.577      54.579      49.106      39.777      29.164      19.803      13.307      9.8876    
  8.4241      7.5110      7.0296      7.0294      7.5102      8.4230      9.8876      13.309      19.807      29.167    
  22.845      29.169      33.947      35.726      33.945      29.165      22.840      16.732      12.193      9.6349    
  8.3881      7.5110      6.9676      6.7883      6.9675      7.5099      8.3855      9.6324      12.193      16.735    
  13.468      16.771      19.855      21.717      21.714      19.849      16.767      13.467      10.849      9.2575    
  8.2964      7.5354      7.0296      6.7883      6.7890      7.0308      7.5353      8.2939      9.2532      10.846    
  9.7138      10.899      12.285      13.420      13.858      13.418      12.285      10.903      9.7187      8.8853    
  8.1900      7.6194      7.2347      7.0294      6.9676      7.0308      7.2374      7.6218      8.1900      8.8819    
  8.5163      8.9399      9.3615      9.7762      10.049      10.050      9.7795      9.3660      8.9433      8.5163    
  8.1156      7.8071      7.6194      7.5351      7.5102      7.5099      7.5353      7.6218      7.8113      8.1190    
  8.1119      8.1779      8.3030      8.4505      8.5705      8.6178      8.5729      8.4531      8.3030      8.1746    
  8.1070      8.1156      8.1900      8.2965      8.3881      8.4230      8.3855      8.2938      8.1900      8.1190    
  8.5163      8.1780      7.9258      7.7848      7.7354      7.7303      7.7305      7.7350      7.7823      7.9215    
  8.1746      8.5164      8.8853      9.2577      9.6357      9.8888      9.8876      9.6323      9.2531      8.8819    
  9.7139      8.9400      8.3030      7.7848      7.4428      7.2660      7.2136      7.2646      7.4401      7.7823    
  8.3029      8.9433      9.7188      10.849      12.193      13.308      13.742      13.309      12.193      10.846    
  13.468      10.900      9.3616      8.4505      7.7353      7.2660      7.0446      7.0440      7.2648      7.7352    
  8.4528      9.3657      10.903      13.468      16.730      19.801      21.667      21.670      19.807      16.735    
  22.845      16.771      12.285      9.7762      8.5704      7.7301      7.2135      7.0440      7.2137      7.7314    
  8.5729      9.7786      12.285      16.768      22.840      29.162      33.960      35.753      33.963      29.167    
  39.776      29.169      19.855      13.419      10.049      8.6175      7.7304      7.2646      7.2649      7.7314    
  8.6189      10.049      13.417      19.851      29.167      39.777      49.140      54.648      54.646      49.137    
  64.164      49.103      33.947      21.716      13.858      10.050      8.5728      7.7350      7.4403      7.7354    
  8.5730      10.049      13.855      21.714      33.947      49.107      64.172      75.365      79.510      75.359    
  93.356      75.305      54.577      35.726      21.714      13.418      9.7795      8.4531      7.7825      7.7825    
  8.4528      9.7786      13.417      21.714      35.727      54.580      75.309      93.358      103.94      103.94    
  122.06      103.89      79.430      54.579      33.945      19.849      12.285      9.3660      8.3031      7.9217    
  8.3030      9.3656      12.285      19.851      33.947      54.580      79.428      103.89      122.05      128.80    
  143.39      128.77      103.89      75.311      49.106      29.165      16.767      10.903      8.9433      8.1747    
  8.1747      8.9432      10.903      16.768      29.167      49.108      75.309      103.89      128.77      143.38    
  124.21      117.75      100.31      76.757      52.758      32.789      19.159      11.885      9.1036      8.0659    
  7.6924      8.0660      9.1036      11.885      19.159      32.789      52.758      76.757      100.31      117.75    
  117.75      117.75      105.81      85.426      61.924      40.386      24.156      14.327      9.8929      8.3748    
  7.6685      7.6685      8.3749      9.8929      14.327      24.154      40.385      61.926      85.431      105.82    
  100.31      105.82      100.31      85.426      65.320      44.869      27.984      16.673      10.840      8.6643    
  7.7150      7.3711      7.7151      8.6647      10.841      16.672      27.982      44.867      65.321      85.430    
  76.755      85.433      85.434      76.758      61.924      44.868      29.419      18.112      11.640      8.9237    
  7.7997      7.1950      7.1950      7.7999      8.9245      11.641      18.112      29.417      44.865      61.921    
  52.752      61.945      65.350      61.949      52.758      40.386      27.984      18.112      11.954      9.0936    
  7.8774      7.1183      6.8560      7.1182      7.8775      9.0946      11.957      18.114      27.984      40.382    
  32.788      40.440      44.948      44.949      40.443      32.789      24.155      16.672      11.640      9.0936    
  7.9086      7.0971      6.6802      6.6801      7.0965      7.9078      9.0937      11.642      16.676      24.158    
  19.163      24.253      28.136      29.587      28.134      24.249      19.158      14.327      10.840      8.9238    
  7.8775      7.0971      6.6279      6.4754      6.6279      7.0962      7.8754      8.9219      10.841      14.330    
  11.885      14.451      16.886      18.370      18.368      16.882      14.448      11.885      9.8928      8.6644    
  7.7998      7.1185      6.6803      6.4754      6.4759      6.6811      7.1183      7.7978      8.6611      9.8903    
  9.0995      10.020      11.081      11.955      12.294      11.954      11.081      10.022      9.1035      8.3749    
  7.7153      7.1952      6.8562      6.6801      6.6280      6.6811      6.8580      7.1970      7.7152      8.3721    
  8.0659      8.5005      8.9063      9.2561      9.4758      9.4767      9.2587      8.9099      8.5034      8.0661    
  7.6687      7.3714      7.1951      7.1183      7.0966      7.0962      7.1183      7.1969      7.3747      7.6714    
  7.6965      7.7982      7.9588      8.1371      8.2779      8.3324      8.2800      8.1393      7.9590      7.7956    
  7.6927      7.6687      7.7152      7.7999      7.8775      7.9078      7.8753      7.7976      7.7150      7.6713    
  8.0659      7.7982      7.6176      7.5381      7.5324      7.5495      7.5498      7.5323      7.5363      7.6144    
  7.7957      8.0662      8.3749      8.6646      8.9244      9.0945      9.0936      8.9217      8.6609      8.3720    
  9.0995      8.5007      7.9590      7.5382      7.2760      7.1495      7.1142      7.1486      7.2741      7.5364    
  7.9590      8.5035      9.1036      9.8927      10.840      11.641      11.956      11.642      10.840      9.8901    
  11.885      10.020      8.9065      8.1372      7.5324      7.1495      6.9738      6.9734      7.1487      7.5325    
  8.1391      8.9097      10.023      11.885      14.326      16.671      18.112      18.114      16.676      14.330    
  19.163      14.451      11.081      9.2563      8.2780      7.5494      7.1142      6.9733      7.1142      7.5504    
  8.2800      9.2580      11.081      14.448      19.158      24.154      27.982      29.418      27.984      24.158    
  32.788      24.253      16.886      11.955      9.4758      8.3323      7.5497      7.1485      7.1487      7.5504    
  8.3333      9.4759      11.953      16.883      24.251      32.789      40.385      44.867      44.866      40.382    
  52.752      40.440      28.136      18.369      12.294      9.4767      8.2799      7.5322      7.2740      7.5324    
  8.2799      9.4758      12.292      18.367      28.136      40.444      52.758      61.926      65.322      61.921    
  76.755      61.944      44.947      29.587      18.368      11.954      9.2588      8.1393      7.5363      7.5362    
  8.1390      9.2580      11.953      18.367      29.588      44.950      61.947      76.758      85.431      85.430    
  100.31      85.433      65.349      44.949      28.134      16.882      11.081      8.9101      7.9590      7.6142    
  7.9588      8.9096      11.081      16.883      28.136      44.950      65.347      85.429      100.31      105.82    
  117.75      105.82      85.433      61.949      40.443      24.250      14.448      10.023      8.5035      7.7955    
  7.7955      8.5034      10.023      14.449      24.251      40.444      61.947      85.428      105.81      117.75    
  89.308      84.690      72.192      55.268      38.059      23.953      14.684      10.069      8.3445      7.4638    
  7.1498      7.4638      8.3446      10.069      14.684      23.953      38.059      55.268      72.192      84.690    
  84.692      84.691      76.128      61.464      44.558      29.203      17.942      11.495      8.7955      7.6831    
  7.0859      7.0859      7.6832      8.7957      11.495      17.941      29.202      44.559      61.467      76.132    
  72.195      76.159      72.192      61.464      46.971      32.326      20.488      12.913      9.2907      7.8926    
  7.0877      6.8056      7.0878      7.8930      9.2910      12.912      20.486      32.324      46.971      61.466    
  55.266      61.541      61.541      55.268      44.558      32.326      21.450      13.800      9.7135      8.0515    
  7.1303      6.6378      6.6378      7.1306      8.0522      9.7142      13.800      21.448      32.323      44.555    
  38.055      44.687      47.150      44.690      38.059      29.203      20.488      13.800      9.8820      8.1397    
  7.1778      6.5616      6.3547      6.5616      7.1780      8.1404      9.8834      13.801      20.487      29.200    
  23.952      29.383      32.609      32.610      29.384      23.953      17.941      12.912      9.7133      8.1398    
  7.1980      6.5381      6.2118      6.2118      6.5379      7.1975      8.1398      9.7150      12.915      17.944    
  14.687      18.159      20.857      21.874      20.855      18.156      14.683      11.494      9.2904      8.0516    
  7.1780      6.5382      6.1701      6.0531      6.1702      6.5376      7.1766      8.0505      9.2910      11.497    
  10.069      11.722      13.326      14.318      14.317      13.323      11.719      10.069      8.7952      7.8927    
  7.1306      6.5618      6.2120      6.0531      6.0534      6.2124      6.5616      7.1292      7.8905      8.7937    
  8.3415      9.0104      9.7040      10.266      10.483      10.265      9.7037      9.0121      8.3443      7.6833    
  7.0881      6.6382      6.3549      6.2120      6.1703      6.2124      6.3559      6.6392      7.0879      7.6812    
  7.4637      7.8860      8.2860      8.5957      8.7678      8.7684      8.5974      8.2886      7.8882      7.4641    
  7.0864      6.8060      6.6381      6.5617      6.5380      6.5376      6.5615      6.6391      6.8082      7.0880    
  7.1527      7.2857      7.4682      7.6597      7.8070      7.8630      7.8084      7.6613      7.4685      7.2842    
  7.1503      7.0863      7.0880      7.1306      7.1780      7.1975      7.1764      7.1289      7.0877      7.0879    
  7.4637      7.2858      7.1828      7.1601      7.1887      7.2213      7.2216      7.1890      7.1592      7.1808    
  7.2843      7.4641      7.6832      7.8927      8.0519      8.1403      8.1397      8.0502      7.8901      7.6810    
  8.3415      7.8862      7.4684      7.1602      6.9814      6.9036      6.8842      6.9033      6.9805      7.1592    
  7.4686      7.8883      8.3444      8.7952      9.2905      9.7139      9.8833      9.7149      9.2908      8.7935    
  10.069      9.0106      8.2864      7.6599      7.1889      6.9036      6.7773      6.7771      6.9033      7.1891    
  7.6613      8.2885      9.0121      10.069      11.494      12.912      13.800      13.802      12.915      11.497    
  14.687      11.722      9.7043      8.5960      7.8072      7.2213      6.8841      6.7770      6.8841      7.2219    
  7.8084      8.5970      9.7036      11.719      14.683      17.941      20.486      21.449      20.488      17.944    
  23.952      18.159      13.326      10.266      8.7680      7.8631      7.2215      6.9031      6.9031      7.2218    
  7.8636      8.7679      10.264      13.323      18.157      23.953      29.202      32.325      32.324      29.201    
  38.055      29.382      20.857      14.318      10.484      8.7685      7.8085      7.1889      6.9802      7.1888    
  7.8083      8.7679      10.482      14.317      20.857      29.385      38.059      44.560      46.972      44.556    
  55.266      44.686      32.608      21.873      14.317      10.265      8.5977      7.6613      7.1589      7.1588    
  7.6610      8.5970      10.264      14.317      21.875      32.611      44.689      55.268      61.468      61.467    
  72.195      61.540      47.148      32.609      20.855      13.323      9.7043      8.2888      7.4683      7.1803    
  7.4682      8.2884      9.7039      13.324      20.857      32.611      47.148      61.538      72.192      76.132    
  84.692      76.158      61.540      44.689      29.384      18.156      11.719      9.0126      7.8882      7.2838    
  7.2838      7.8881      9.0124      11.720      18.157      29.385      44.689      61.537      76.154      84.691    
  56.189      53.305      45.495      34.958      24.400      16.059      10.960      8.6413      7.5547      6.8579    
  6.6202      6.8579      7.5547      8.6413      10.960      16.059      24.400      34.958      45.495      53.305    
  53.306      53.305      47.936      38.760      28.283      19.016      12.591      9.2393      7.8360      6.9702    
  6.5158      6.5158      6.9703      7.8363      9.2394      12.590      19.015      28.283      38.761      47.938    
  45.497      47.991      45.496      38.760      29.734      20.805      13.911      9.8456      8.0439      7.0810    
  6.4634      6.2556      6.4634      7.0814      8.0443      9.8454      13.910      20.804      29.733      38.761    
  34.957      38.899      38.900      34.958      28.283      20.805      14.418      10.237      8.1885      7.1653    
  6.4501      6.0896      6.0896      6.4503      7.1657      8.1889      10.236      14.417      20.803      28.281    
  24.397      28.507      30.044      28.509      24.400      19.016      13.910      10.236      8.2439      7.2096    
  6.4553      6.0039      5.8574      6.0040      6.4555      7.2100      8.2446      10.237      13.910      19.014    
  16.059      19.303      21.266      21.267      19.304      16.059      12.590      9.8451      8.1883      7.2096    
  6.4598      5.9715      5.7406      5.7407      5.9715      6.4596      7.2097      8.1894      9.8471      12.592    
  10.961      12.908      14.466      15.061      14.465      12.906      10.959      9.2385      8.0436      7.1653    
  6.4555      5.9716      5.7065      5.6243      5.7066      5.9713      6.4548      7.1649      8.0443      9.2406    
  8.6412      9.5525      10.428      10.975      10.974      10.426      9.5506      8.6406      7.8357      7.0811    
  6.4504      6.0042      5.7408      5.6244      5.6245      5.7408      6.0039      6.4496      7.0800      7.8351    
  7.5527      8.1262      8.6050      8.9435      9.0693      8.9428      8.6047      8.1272      7.5545      6.9704    
  6.4638      6.0901      5.8577      5.7409      5.7067      5.7408      5.8579      6.0904      6.4636      6.9691    
  6.8578      7.2403      7.6069      7.8953      8.0539      8.0541      7.8961      7.6083      7.2416      6.8582    
  6.5164      6.2561      6.0900      6.0042      5.9716      5.9713      6.0038      6.0903      6.2571      6.5171    
  6.6220      6.7769      6.9646      7.1509      7.2905      7.3429      7.2913      7.1519      6.9649      6.7762    
  6.6208      6.5163      6.4636      6.4503      6.4555      6.4595      6.4546      6.4493      6.4634      6.5170    
  6.8578      6.7770      6.7489      6.7742      6.8274      6.8691      6.8694      6.8278      6.7739      6.7479    
  6.7763      6.8582      6.9703      7.0811      7.1654      7.2098      7.2095      7.1646      7.0796      6.9689    
  7.5527      7.2405      6.9649      6.7743      6.6764      6.6433      6.6379      6.6434      6.6763      6.7739    
  6.9651      7.2417      7.5545      7.8358      8.0437      8.1885      8.2445      8.1893      8.0441      7.8349    
  8.6412      8.1264      7.6072      7.1512      6.8275      6.6433      6.5665      6.5665      6.6433      6.8278    
  7.1520      7.6083      8.1271      8.6406      9.2386      9.8449      10.236      10.237      9.8472      9.2406    
  10.961      9.5526      8.6052      7.8956      7.2907      6.8691      6.6378      6.5664      6.6377      6.8693    
  7.2913      7.8960      8.6045      9.5505      10.959      12.590      13.910      14.417      13.911      12.592    
  16.059      12.908      10.428      8.9436      8.0541      7.3429      6.8693      6.6432      6.6431      6.8692    
  7.3431      8.0540      8.9426      10.426      12.906      16.059      19.015      20.804      20.804      19.014    
  24.397      19.303      14.465      10.975      9.0694      8.0543      7.2914      6.8276      6.6759      6.8275    
  7.2912      8.0540      9.0688      10.974      14.465      19.304      24.400      28.284      29.734      28.281    
  34.957      28.506      21.265      15.060      10.974      8.9431      7.8964      7.1519      6.7735      6.7735    
  7.1517      7.8959      8.9428      10.974      15.062      21.267      28.508      34.959      38.762      38.762    
  45.497      38.899      30.043      21.266      14.465      10.426      8.6052      7.6085      6.9647      6.7474    
  6.9646      7.6082      8.6048      10.427      14.466      21.267      30.044      38.898      45.496      47.939    
  53.306      47.991      38.899      28.508      19.304      12.907      9.5514      8.1277      7.2416      6.7758    
  6.7758      7.2415      8.1274      9.5512      12.907      19.305      28.508      38.897      47.989      53.305    
  31.210      29.672      25.537      20.056      14.775      10.892      8.7392      7.6408      6.8418      6.3569    
  6.1983      6.3569      6.8417      7.6407      8.7391      10.892      14.775      20.056      25.537      29.672    
  29.673      29.672      26.807      21.970      16.606      12.123      9.2880      7.8798      6.9829      6.3602    
  6.0543      6.0543      6.3603      6.9832      7.8801      9.2880      12.122      16.606      21.971      26.807    
  25.537      26.871      25.537      21.970      17.302      12.894      9.7497      8.0464      7.0843      6.3712    
  5.9496      5.8135      5.9496      6.3714      7.0847      8.0464      9.7491      12.893      17.301      21.970    
  20.056      22.135      22.135      20.057      16.606      12.893      9.9317      8.1442      7.1390      6.3803    
  5.8827      5.6462      5.6462      5.8828      6.3806      7.1391      8.1439      9.9309      12.892      16.605    
  14.774      16.870      17.667      16.871      14.775      12.123      9.7493      8.1440      7.1552      6.3847    
  5.8473      5.5476      5.4537      5.5478      5.8475      6.3848      7.1554      8.1442      9.7493      12.122    
  10.892      12.458      13.431      13.431      12.458      10.892      9.2875      8.0460      7.1388      6.3847    
  5.8366      5.5040      5.3537      5.3538      5.5043      5.8367      6.3848      7.1394      8.0471      9.2885    
  8.7399      9.6539      10.391      10.676      10.391      9.6529      8.7385      7.8792      7.0841      6.3804    
  5.8475      5.5041      5.3236      5.2690      5.3237      5.5041      5.8473      6.3804      7.0847      7.8805    
  7.6406      8.2434      8.7213      9.0001      8.9997      8.7203      8.2425      7.6402      6.9827      6.3713    
  5.8830      5.5479      5.3538      5.2690      5.2690      5.3537      5.5476      5.8826      6.3710      6.9825    
  6.8408      7.3291      7.7479      8.0289      8.1274      8.0285      7.7477      7.3295      6.8416      6.3604    
  5.9500      5.6465      5.4540      5.3540      5.3238      5.3537      5.4537      5.6465      5.9498      6.3597    
  6.3568      6.6902      7.0104      7.2649      7.4062      7.4062      7.2650      7.0109      6.6908      6.3571    
  6.0547      5.8138      5.6464      5.5479      5.5043      5.5041      5.5475      5.6464      5.8141      6.0549    
  6.1991      6.3763      6.5705      6.7530      6.8857      6.9347      6.8860      6.7533      6.5707      6.3761    
  6.1987      6.0547      5.9498      5.8828      5.8475      5.8366      5.8471      5.8824      5.9496      6.0549    
  6.3568      6.3764      6.4283      6.5078      6.5917      6.6462      6.6464      6.5920      6.5078      6.4280    
  6.3762      6.3571      6.3603      6.3713      6.3804      6.3846      6.3846      6.3801      6.3707      6.3596    
  6.8408      6.6904      6.5707      6.5079      6.4993      6.5171      6.5281      6.5174      6.4996      6.5079    
  6.5708      6.6909      6.8416      6.9828      7.0843      7.1389      7.1552      7.1393      7.0845      6.9824    
  7.6406      7.3293      7.0106      6.7532      6.5917      6.5171      6.4943      6.4944      6.5173      6.5920    
  6.7534      7.0109      7.3293      7.6402      7.8795      8.0461      8.1439      8.1443      8.0471      7.8805    
  8.7399      8.2435      7.7481      7.2651      6.8858      6.6462      6.5280      6.4943      6.5279      6.6462    
  6.8860      7.2651      7.7475      8.2423      8.7385      9.2876      9.7491      9.9313      9.7497      9.2887    
  10.892      9.6538      8.7212      8.0290      7.4063      6.9347      6.6463      6.5173      6.5171      6.6462    
  6.9347      7.4063      8.0285      8.7202      9.6528      10.892      12.123      12.893      12.893      12.122    
  14.774      12.457      10.391      8.9999      8.1274      7.4063      6.8860      6.5919      6.4994      6.5918    
  6.8859      7.4063      8.1274      8.9998      10.391      12.458      14.775      16.606      17.302      16.606    
  20.056      16.870      13.430      10.676      8.9997      8.0287      7.2652      6.7533      6.5077      6.5077    
  6.7532      7.2651      8.0287      9.0000      10.676      13.431      16.871      20.057      21.971      21.971    
  25.537      22.134      17.666      13.431      10.390      8.7206      7.7481      7.0111      6.5705      6.4277    
  6.5705      7.0109      7.7478      8.7206      10.391      13.431      17.667      22.134      25.537      26.808    
  29.672      26.870      22.134      16.870      12.458      9.6533      8.2431      7.3299      6.6909      6.3758    
  6.3758      6.6908      7.3296      8.2428      9.6533      12.458      16.871      22.134      26.870      29.672    
  16.316      15.669      13.960      11.785      9.8251      8.4748      7.5719      6.8299      6.3081      6.0171    
  5.9260      6.0171      6.3081      6.8298      7.5718      8.4747      9.8251      11.785      13.960      15.669    
  15.669      15.669      14.465      12.490      10.415      8.8001      7.7551      6.9394      6.3146      5.9223    
  5.7412      5.7412      5.9223      6.3148      6.9397      7.7553      8.8000      10.414      12.490      14.465    
  13.960      14.521      13.960      12.490      10.645      9.0085      7.8650      7.0137      6.3225      5.8511    