unknown system                          
   1.00000000000000     
     2.330000    0.000000    0.000000
    -1.165000    2.017839    0.000000
     0.000000    0.000000    4.100000
   Fe
     2
Direct
  0.000000  0.000000  0.000000
  0.333333  0.666667  0.500000
 
   20   20   32
 0.16157829691E+03 0.15309607575E+03 0.13027602138E+03 0.99623576579E+02 0.68482650454E+02
 0.42435240204E+02 0.24265279886E+02 0.14097763553E+02 0.99627726705E+01 0.86839175247E+01
 0.82629004881E+01 0.86839148380E+01 0.99627095755E+01 0.14097621427E+02 0.24265134549E+02
 0.42435190678E+02 0.68482708540E+02 0.99623659970E+02 0.13027605571E+03 0.15309606923E+03
 0.15309961644E+03 0.15309607923E+03 0.13748006613E+03 0.11092202109E+03 0.80433531858E+02
 0.52458050053E+02 0.31084314341E+02 0.17675674993E+02 0.11234118140E+02 0.90752766576E+01
 0.82845238650E+01 0.82845186955E+01 0.90752652717E+01 0.11233804131E+02 0.17674385363E+02
 0.31082110809E+02 0.52456879354E+02 0.80436200994E+02 0.11092910993E+03 0.13748807404E+03
 0.13028124426E+03 0.13745973636E+03 0.13027598955E+03 0.11092198150E+03 0.84860090950E+02
 0.58347294399E+02 0.36243986910E+02 0.21020118515E+02 0.12733829018E+02 0.94881228181E+01
 0.83680943341E+01 0.79721480039E+01 0.83681497632E+01 0.94883941461E+01 0.12733763509E+02
 0.21018662650E+02 0.36241389767E+02 0.58346057108E+02 0.84862869454E+02 0.11092817509E+03
 0.99621061875E+02 0.11086404253E+03 0.11086488555E+03 0.99623471916E+02 0.80433434031E+02
 0.58347255677E+02 0.38167565127E+02 0.23043639601E+02 0.13967626076E+02 0.99160741538E+01
 0.84803514092E+01 0.77790695139E+01 0.77790224993E+01 0.84805799110E+01 0.99170663700E+01
 0.13968976720E+02 0.23044068954E+02 0.38166089329E+02 0.58344173145E+02 0.80430055684E+02
 0.68474795514E+02 0.80348834505E+02 0.84745493545E+02 0.80354810628E+02 0.68482500480E+02
 0.52457955661E+02 0.36243987226E+02 0.23043682129E+02 0.14445840177E+02 0.10202715891E+02
 0.85753902004E+01 0.76906767837E+01 0.73765001500E+01 0.76903469138E+01 0.85753855711E+01
 0.10204018339E+02 0.14448742465E+02 0.23046667049E+02 0.36244114247E+02 0.52453332139E+02
 0.42433932880E+02 0.52385903379E+02 0.58221933303E+02 0.58223803755E+02 0.52389415548E+02
 0.42435146460E+02 0.31084326060E+02 0.21020230901E+02 0.13967746746E+02 0.10202765609E+02
 0.86125300300E+01 0.76641183174E+01 0.71594496123E+01 0.71591728638E+01 0.76631809996E+01
 0.86113041034E+01 0.10202760542E+02 0.13970317017E+02 0.21024402506E+02 0.31086915821E+02
 0.24270323095E+02 0.31054608854E+02 0.36166537248E+02 0.38067431274E+02 0.36163995345E+02
 0.31050038739E+02 0.24265319847E+02 0.17675817349E+02 0.12734016002E+02 0.99161973594E+01
 0.85754063303E+01 0.76640876126E+01 0.70933213049E+01 0.69041506580E+01 0.70932899039E+01
 0.76628908663E+01 0.85726610910E+01 0.99135006109E+01 0.12733763509E+02 0.17678900242E+02
 0.14097889674E+02 0.17681568132E+02 0.21009691000E+02 0.23013309144E+02 0.23010862514E+02
 0.21004298659E+02 0.17677399584E+02 0.14097886239E+02 0.11234284292E+02 0.94882522565E+01
 0.84803663468E+01 0.76905953706E+01 0.71593631849E+01 0.69041182300E+01 0.69048500751E+01
 0.71606989084E+01 0.76906151609E+01 0.84777135690E+01 0.94836438404E+01 0.11230525164E+02
 0.99575639225E+01 0.11252889960E+02 0.12765345172E+02 0.13999901107E+02 0.14475678737E+02
 0.13998730712E+02 0.12765587858E+02 0.11256375556E+02 0.99628328852E+01 0.90753314343E+01
 0.83680811440E+01 0.77789655090E+01 0.73763686071E+01 0.71590949377E+01 0.70932784121E+01
 0.71607074098E+01 0.73792675231E+01 0.77816205942E+01 0.83681068703E+01 0.90717180570E+01
 0.86838612015E+01 0.90997047862E+01 0.95341899216E+01 0.99774342893E+01 0.10271727994E+02
 0.10272964355E+02 0.99809723369E+01 0.95389534240E+01 0.91032694687E+01 0.86838370835E+01
 0.82844583652E+01 0.79720564913E+01 0.77789118725E+01 0.76902734870E+01 0.76631735849E+01
 0.76629141564E+01 0.76906231472E+01 0.77816139723E+01 0.79766836989E+01 0.82881195466E+01
 0.82680890339E+01 0.83175392041E+01 0.84241012218E+01 0.85545773593E+01 0.86625173437E+01
 0.87054345837E+01 0.86650547378E+01 0.85572334577E+01 0.84240338362E+01 0.83138768957E+01
 0.82627733467E+01 0.82844687802E+01 0.83681240368E+01 0.84805705424E+01 0.85754063303E+01
 0.86113362840E+01 0.85726657202E+01 0.84776892628E+01 0.83680943341E+01 0.82881351311E+01
 0.86839459063E+01 0.83175917341E+01 0.80344842590E+01 0.78648881822E+01 0.77938772792E+01
 0.77772963546E+01 0.77774610551E+01 0.77933195407E+01 0.78620091633E+01 0.80297790118E+01
 0.83139125655E+01 0.86839191016E+01 0.90753598160E+01 0.94884921220E+01 0.99171366420E+01
 0.10204051788E+02 0.10202744272E+02 0.99134476773E+01 0.94836123780E+01 0.90717578246E+01
 0.99577092679E+01 0.90998492785E+01 0.84241480156E+01 0.78648558135E+01 0.74874807476E+01
 0.72874795926E+01 0.72270069731E+01 0.72857954798E+01 0.74844258245E+01 0.78619807817E+01
 0.84239086931E+01 0.91033231052E+01 0.99629151355E+01 0.11234016045E+02 0.12733890859E+02
 0.13969004544E+02 0.14448689800E+02 0.13970224170E+02 0.12733703875E+02 0.11230570926E+02
 0.14098055912E+02 0.11253091443E+02 0.95342768038E+01 0.85544936422E+01 0.77937209235E+01
 0.72873917107E+01 0.70459858316E+01 0.70452935597E+01 0.72860878393E+01 0.77935835185E+01
 0.85568770468E+01 0.95386074281E+01 0.11256667916E+02 0.14097910351E+02 0.17674557325E+02
 0.21018680744E+02 0.23043974488E+02 0.23046530055E+02 0.21024308214E+02 0.17678929848E+02
 0.24270468432E+02 0.17681781137E+02 0.12765460200E+02 0.99773341761E+01 0.86622560414E+01
 0.77770592940E+01 0.72269283925E+01 0.70453287129E+01 0.72271321163E+01 0.77784389150E+01
 0.86650547378E+01 0.99799692222E+01 0.12765630751E+02 0.17678617310E+02 0.24265319847E+02
 0.31082118784E+02 0.36241262746E+02 0.38165916510E+02 0.36243986910E+02 0.31086912077E+02
 0.42434027317E+02 0.31054791704E+02 0.21009819476E+02 0.13999827471E+02 0.10271445741E+02
 0.87051186290E+01 0.77773227025E+01 0.72858864645E+01 0.72862667059E+01 0.77785376229E+01
 0.87067115219E+01 0.10271805105E+02 0.13997517826E+02 0.21005779793E+02 0.31052219290E+02
 0.42435191371E+02 0.52456742774E+02 0.58345870469E+02 0.58344025227E+02 0.52453289952E+02
 0.68474829806E+02 0.52386030218E+02 0.36166664471E+02 0.23013295952E+02 0.14475461579E+02
 0.10272658627E+02 0.86648881430E+01 0.77934285641E+01 0.74847235028E+01 0.77938488976E+01
 0.86651494453E+01 0.10271781631E+02 0.14473003743E+02 0.23010594267E+02 0.36166627446E+02
 0.52390673346E+02 0.68482592859E+02 0.80436032126E+02 0.84862723052E+02 0.80429984643E+02
 0.99621048439E+02 0.80348900873E+02 0.58222046819E+02 0.38067490036E+02 0.23010767812E+02
 0.13998512218E+02 0.99808117944E+01 0.85573141418E+01 0.78623276734E+01 0.78623316604E+01
 0.85570414479E+01 0.99799087929E+01 0.13997372967E+02 0.23010512757E+02 0.38068991749E+02
 0.58225074098E+02 0.80352282488E+02 0.99623541870E+02 0.11092899170E+03 0.11092809644E+03
 0.13028120993E+03 0.11086406276E+03 0.84745584368E+02 0.58223918500E+02 0.36164032369E+02
 0.21004206768E+02 0.12765460200E+02 0.95389689843E+01 0.84242731587E+01 0.80301128196E+01
 0.84241012218E+01 0.95385361061E+01 0.12765388065E+02 0.21005559426E+02 0.36166537248E+02
 0.58225075327E+02 0.84742769065E+02 0.11085788763E+03 0.13027598955E+03 0.13748801316E+03
 0.15309959010E+03 0.13745973421E+03 0.11086494822E+03 0.80354943366E+02 0.52389544571E+02
 0.31050064464E+02 0.17677317306E+02 0.11256313436E+02 0.91033636313E+01 0.83141057628E+01
 0.83140889027E+01 0.91032727756E+01 0.11256404313E+02 0.17678322027E+02 0.31052062166E+02
 0.52390675529E+02 0.80352348858E+02 0.11085793008E+03 0.13745173995E+03 0.15309604637E+03
 0.15130561756E+03 0.14338451855E+03 0.12205360100E+03 0.93357951944E+02 0.64171512967E+02
 0.39777214566E+02 0.22840486714E+02 0.13467508386E+02 0.97186792957E+01 0.85163216807E+01
 0.81069642624E+01 0.85163378312E+01 0.97186511352E+01 0.13467409100E+02 0.22840379085E+02
 0.39777186520E+02 0.64171574404E+02 0.93358027871E+02 0.12205362650E+03 0.14338450709E+03
 0.14338784856E+03 0.14338455903E+03 0.12878831798E+03 0.10393375772E+03 0.75362723239E+02
 0.49141736440E+02 0.29164161864E+02 0.16731632515E+02 0.10849229850E+02 0.88852470755E+01
 0.81155720202E+01 0.81155781475E+01 0.88852787339E+01 0.10849013305E+02 0.16730500798E+02
 0.29162110056E+02 0.49140557544E+02 0.75365082082E+02 0.10394026625E+03 0.12879574047E+03
 0.12205851648E+03 0.12877421159E+03 0.12205368153E+03 0.10393376936E+03 0.79507539314E+02
 0.54648945472E+02 0.33962997512E+02 0.19802821288E+02 0.12193270433E+02 0.92573623266E+01
 0.81899505198E+01 0.78070562863E+01 0.81900205229E+01 0.92576662850E+01 0.12193272758E+02
 0.19801468787E+02 0.33960460930E+02 0.54647576196E+02 0.79509905355E+02 0.10393939230E+03
 0.93355591818E+02 0.10389255746E+03 0.10389339435E+03 0.93357984490E+02 0.75362666216E+02
 0.54648892661E+02 0.35754133511E+02 0.21667220918E+02 0.13306562781E+02 0.96347713523E+01
 0.82962957261E+01 0.76194479718E+01 0.76194120780E+01 0.82965318893E+01 0.96357227386E+01
 0.13307816764E+02 0.21667541811E+02 0.35752589788E+02 0.54645796830E+02 0.75359304560E+02
 0.64164143819E+02 0.75305311544E+02 0.79430309209E+02 0.75310958402E+02 0.64171426876E+02
 0.49141600521E+02 0.33962922839E+02 0.21667220287E+02 0.13739499373E+02 0.98875441012E+01
 0.83880421613E+01 0.75353996186E+01 0.72348016972E+01 0.75351196869E+01 0.83880636825E+01
 0.98887593343E+01 0.13742186414E+02 0.21669977864E+02 0.33963001537E+02 0.49137216075E+02
 0.39776025440E+02 0.49103087406E+02 0.54577462776E+02 0.54579205422E+02 0.49106330217E+02
 0.39777054249E+02 0.29164041423E+02 0.19802817578E+02 0.13306627368E+02 0.98875860209E+01
 0.84241263120E+01 0.75110308600E+01 0.70296451075E+01 0.70294069740E+01 0.75101929885E+01
 0.84230023201E+01 0.98875982544E+01 0.13309091737E+02 0.19806845286E+02 0.29166612606E+02
 0.22845269063E+02 0.29169061084E+02 0.33947236782E+02 0.35725992072E+02 0.33944774838E+02
 0.29164618652E+02 0.22840367236E+02 0.16731621170E+02 0.12193368822E+02 0.96348787887E+01
 0.83880821233E+01 0.75110231042E+01 0.69675661426E+01 0.67883412685E+01 0.69675430419E+01
 0.75099062397E+01 0.83855230760E+01 0.96324123542E+01 0.12193272758E+02 0.16734716598E+02
 0.13467636780E+02 0.16770611594E+02 0.19854616997E+02 0.21716506741E+02 0.21714164817E+02
 0.19849436172E+02 0.16766544740E+02 0.13467484434E+02 0.10849312829E+02 0.92574875363E+01
 0.82963600613E+01 0.75353813991E+01 0.70296060317E+01 0.67883294454E+01 0.67889879198E+01
 0.70307957338E+01 0.75353473668E+01 0.82938681561E+01 0.92532231856E+01 0.10845899515E+02
 0.97137736389E+01 0.10899391103E+02 0.12284767295E+02 0.13419511261E+02 0.13857656828E+02
 0.13418342789E+02 0.12284906883E+02 0.10902605150E+02 0.97186991594E+01 0.88853317875E+01
 0.81900140367E+01 0.76194323001E+01 0.72347446338E+01 0.70293783519E+01 0.69675536609E+01
 0.70308061874E+01 0.72373547854E+01 0.76218481313E+01 0.81900080412E+01 0.88819372646E+01
 0.85162760762E+01 0.89398612785E+01 0.93615017678E+01 0.97762446048E+01 0.10048959261E+02
 0.10050100927E+02 0.97795339071E+01 0.93659731843E+01 0.89432530696E+01 0.85163203763E+01
 0.81156096073E+01 0.78070585749E+01 0.76193705452E+01 0.75350919643E+01 0.75102105281E+01
 0.75099315350E+01 0.75353378636E+01 0.76218222701E+01 0.78113334607E+01 0.81189813718E+01
 0.81118542404E+01 0.81779235665E+01 0.83029566985E+01 0.84505190417E+01 0.85705330646E+01
 0.86177533053E+01 0.85729446601E+01 0.84530720456E+01 0.83029791869E+01 0.81745856355E+01
 0.81069605635E+01 0.81156094004E+01 0.81900265184E+01 0.82965261932E+01 0.83880821233E+01
 0.84230267801E+01 0.83855015547E+01 0.82937981247E+01 0.81899505198E+01 0.81189750375E+01
 0.85163388273E+01 0.81779803562E+01 0.79258227264E+01 0.77848421731E+01 0.77354013914E+01
 0.77302921839E+01 0.77304949102E+01 0.77349952145E+01 0.77822732648E+01 0.79215246451E+01
 0.81746300369E+01 0.85163992777E+01 0.88853489340E+01 0.92576980697E+01 0.96357359732E+01
 0.98887642473E+01 0.98875612477E+01 0.96323181524E+01 0.92531297606E+01 0.88819227527E+01
 0.97138813083E+01 0.89400122740E+01 0.83030395591E+01 0.77848391148E+01 0.74428322268E+01
 0.72660340392E+01 0.72136163197E+01 0.72645556464E+01 0.74401061144E+01 0.77822561183E+01
 0.83028871964E+01 0.89433148245E+01 0.97187786683E+01 0.10849085149E+02 0.12193276831E+02
 0.13307788448E+02 0.13742131971E+02 0.13308998834E+02 0.12193178442E+02 0.10845888381E+02
 0.13467759913E+02 0.10899585356E+02 0.93616361695E+01 0.84505089482E+01 0.77353009015E+01
 0.72659647481E+01 0.70445799642E+01 0.70439593168E+01 0.72648071730E+01 0.77352295946E+01
 0.84527589710E+01 0.93656599028E+01 0.10902856676E+02 0.13467508281E+02 0.16730495312E+02
 0.19801404972E+02 0.21667471814E+02 0.21669908498E+02 0.19806785181E+02 0.16734722458E+02
 0.22845376692E+02 0.16770785384E+02 0.12284902530E+02 0.97762252749E+01 0.85703642945E+01
 0.77301084366E+01 0.72135389563E+01 0.70439731780E+01 0.72137083102E+01 0.77313703695E+01
 0.85729446602E+01 0.97786138394E+01 0.12284919365E+02 0.16767630733E+02 0.22840367236E+02
 0.29162022031E+02 0.33960382232E+02 0.35752555770E+02 0.33962997512E+02 0.29166645021E+02
 0.39776095338E+02 0.29169161232E+02 0.19854702275E+02 0.13419480645E+02 0.10048774932E+02
 0.86175184934E+01 0.77303693514E+01 0.72645939941E+01 0.72649148117E+01 0.77314285579E+01
 0.86189340808E+01 0.10049043454E+02 0.13417223562E+02 0.19850783079E+02 0.29166612210E+02
 0.39777096101E+02 0.49140481294E+02 0.54647575835E+02 0.54645849280E+02 0.49137275743E+02
 0.64164169145E+02 0.49103090294E+02 0.33947240549E+02 0.21716464647E+02 0.13857511183E+02
 0.10049894159E+02 0.85728181382E+01 0.77350493749E+01 0.74402863926E+01 0.77353842449E+01
 0.85729869083E+01 0.10049021016E+02 0.13855190503E+02 0.21713937137E+02 0.33947228681E+02
 0.49107491297E+02 0.64171513639E+02 0.75365102269E+02 0.79509993158E+02 0.75359381769E+02
 0.93355581783E+02 0.75305230704E+02 0.54577384661E+02 0.35725941401E+02 0.21714094486E+02
 0.13418229711E+02 0.97794537487E+01 0.84531306358E+01 0.77824689538E+01 0.77824548655E+01
 0.84528276547E+01 0.97785530109E+01 0.13417141100E+02 0.21713908901E+02 0.35727487902E+02
 0.54580414503E+02 0.75308588241E+02 0.93358050382E+02 0.10394035494E+03 0.10393946935E+03
 0.12205849098E+03 0.10389243698E+03 0.79430180068E+02 0.54579152353E+02 0.33944786705E+02
 0.19849445195E+02 0.12284902530E+02 0.93660255491E+01 0.83031315496E+01 0.79217020199E+01
 0.83029566985E+01 0.93655778658E+01 0.12284779777E+02 0.19850706824E+02 0.33947236783E+02
 0.54580439549E+02 0.79427768603E+02 0.10388682044E+03 0.12205368153E+03 0.12879579731E+03
 0.14338782901E+03 0.12877410796E+03 0.10389326437E+03 0.75310911319E+02 0.49106400748E+02
 0.29164731550E+02 0.16766616617E+02 0.10902644283E+02 0.89433227283E+01 0.81746870483E+01
 0.81746746601E+01 0.89432334879E+01 0.10902701557E+02 0.16767528820E+02 0.29166624961E+02
 0.49107558940E+02 0.75308621998E+02 0.10388681096E+03 0.12876668572E+03 0.14338452801E+03
 0.12421133740E+03 0.11775036257E+03 0.10030794849E+03 0.76757288498E+02 0.52757985668E+02
 0.32788823908E+02 0.19158564118E+02 0.11885266683E+02 0.91035648541E+01 0.80659135060E+01
 0.76923969484E+01 0.80659619504E+01 0.91036007691E+01 0.11885251343E+02 0.19158533864E+02
 0.32788840790E+02 0.52758053571E+02 0.76757348194E+02 0.10030795588E+03 0.11775034160E+03
 0.11775311954E+03 0.11775048803E+03 0.10581377046E+03 0.85425519558E+02 0.61924195131E+02
 0.40385943511E+02 0.24155525215E+02 0.14327474943E+02 0.98929014394E+01 0.83747795417E+01
 0.76684686358E+01 0.76684951451E+01 0.83748990764E+01 0.98929109494E+01 0.14326743223E+02
 0.24153887706E+02 0.40384782951E+02 0.61925776100E+02 0.85430515758E+02 0.10581964594E+03
 0.10031202705E+03 0.10581808826E+03 0.10030828584E+03 0.85425647843E+02 0.65319711768E+02
 0.44868507006E+02 0.27984390637E+02 0.16672697637E+02 0.10840414103E+02 0.86643266406E+01
 0.77150104676E+01 0.73711324750E+01 0.77151077962E+01 0.86646970905E+01 0.10840581349E+02
 0.16671632593E+02 0.27982069603E+02 0.44866870488E+02 0.65321062029E+02 0.85429806544E+02
 0.76755352628E+02 0.85433186294E+02 0.85433983141E+02 0.76757633692E+02 0.61924229937E+02
 0.44868420960E+02 0.29419152527E+02 0.18111731736E+02 0.11640243881E+02 0.89236864080E+01
 0.77996501345E+01 0.71949845525E+01 0.71949758788E+01 0.77998998298E+01 0.89245218475E+01
 0.11641244781E+02 0.18111795032E+02 0.29417493060E+02 0.44865378902E+02 0.61921002596E+02
 0.52751937949E+02 0.61944639802E+02 0.65349507825E+02 0.61949371338E+02 0.52758043770E+02
 0.40385710189E+02 0.27984142609E+02 0.18111631780E+02 0.11954436740E+02 0.90936071147E+01
 0.78773820038E+01 0.71183428938E+01 0.68560475822E+01 0.71181928052E+01 0.78774702881E+01
 0.90945894851E+01 0.11956551965E+02 0.18113790598E+02 0.27984114050E+02 0.40382005013E+02
 0.32787937772E+02 0.40440385399E+02 0.44947794664E+02 0.44949198078E+02 0.40442922583E+02
 0.32788509065E+02 0.24155099646E+02 0.16672426650E+02 0.11640180265E+02 0.90936320993E+01
 0.79086060471E+01 0.70970724260E+01 0.66801977295E+01 0.66800609244E+01 0.70964984380E+01
 0.79077557422E+01 0.90936864677E+01 0.11642337330E+02 0.16676022762E+02 0.24157568662E+02
 0.19162605039E+02 0.24253234775E+02 0.28135885654E+02 0.29586897279E+02 0.28133686745E+02
 0.24249221577E+02 0.19158077434E+02 0.14327109448E+02 0.10840309468E+02 0.89237599110E+01
 0.78774793853E+01 0.70971187893E+01 0.66279320521E+01 0.64754035593E+01 0.66279353218E+01
 0.70962249690E+01 0.78754258406E+01 0.89218967331E+01 0.10840581349E+02 0.14330150710E+02
 0.11885375464E+02 0.14451314751E+02 0.16886342406E+02 0.18369561919E+02 0.18367531144E+02
 0.16881806720E+02 0.14447615121E+02 0.11884904256E+02 0.98927925165E+01 0.86644440716E+01
 0.77998320329E+01 0.71184736129E+01 0.66802689317E+01 0.64754386788E+01 0.64759089874E+01
 0.66810880622E+01 0.71183169257E+01 0.77977801435E+01 0.86610858180E+01 0.98902571317E+01
 0.90994679017E+01 0.10019933057E+02 0.11080660188E+02 0.11954871688E+02 0.12294002786E+02
 0.11953740653E+02 0.11080566998E+02 0.10022452220E+02 0.91034887941E+01 0.83749326254E+01
 0.77152536860E+01 0.71951767984E+01 0.68561645665E+01 0.66801448113E+01 0.66279937445E+01
 0.66811007470E+01 0.68580303373E+01 0.71969714447E+01 0.77151694886E+01 0.83721211383E+01
 0.80658824930E+01 0.85005320093E+01 0.89062597852E+01 0.92561112325E+01 0.94757654925E+01
 0.94766514640E+01 0.92587249010E+01 0.89099287767E+01 0.85034352685E+01 0.80660898620E+01
 0.76687439747E+01 0.73713550279E+01 0.71950973410E+01 0.71182700350E+01 0.70965686983E+01
 0.70962488661E+01 0.71182634363E+01 0.71969006609E+01 0.73746990844E+01 0.76713525406E+01
 0.76964681233E+01 0.77981574403E+01 0.79587905273E+01 0.81370938147E+01 0.82779267051E+01
 0.83323569121E+01 0.82799702473E+01 0.81393201540E+01 0.79590003729E+01 0.77956446687E+01
 0.76926741234E+01 0.76687161866E+01 0.77151919936E+01 0.77999044840E+01 0.78774793853E+01
 0.79077546990E+01 0.78753375562E+01 0.77976028992E+01 0.77150104676E+01 0.76712982432E+01
 0.80659001976E+01 0.77982259594E+01 0.76176391067E+01 0.75381486600E+01 0.75323566752E+01
 0.75495149096E+01 0.75497988325E+01 0.75323050480E+01 0.75363498265E+01 0.76143766306E+01
 0.77957096464E+01 0.80661560111E+01 0.83749193171E+01 0.86645815004E+01 0.89244027678E+01
 0.90945218083E+01 0.90935938063E+01 0.89217041505E+01 0.86608527969E+01 0.83719882952E+01
 0.90994982643E+01 0.85007033064E+01 0.79589565923E+01 0.75382111935E+01 0.72759603495E+01
 0.71495250573E+01 0.71142409455E+01 0.71485666391E+01 0.72740679960E+01 0.75363631349E+01
 0.79589957878E+01 0.85035147260E+01 0.91035550716E+01 0.98926683961E+01 0.10840304883E+02
 0.11641083282E+02 0.11956485773E+02 0.11642239447E+02 0.10840409518E+02 0.98901235013E+01
 0.11885410150E+02 0.10020118229E+02 0.89065041554E+01 0.81372481903E+01 0.75323789255E+01
 0.71494956915E+01 0.69738145184E+01 0.69733778239E+01 0.71487101069E+01 0.75324618241E+01
 0.81391250169E+01 0.89097058514E+01 0.10022595687E+02 0.11884923603E+02 0.14326336432E+02
 0.16671380165E+02 0.18111775247E+02 0.18113870770E+02 0.16676041321E+02 0.14330109414E+02
 0.19162635293E+02 0.14451406509E+02 0.11080843247E+02 0.92562713801E+01 0.82779609233E+01
 0.75494460797E+01 0.71141636484E+01 0.69733433313E+01 0.71142455306E+01 0.75504001791E+01
 0.82799702472E+01 0.92580307886E+01 0.11080505306E+02 0.14448353896E+02 0.19158077434E+02
 0.24153581974E+02 0.27982098162E+02 0.29417771616E+02 0.27984390637E+02 0.24157688498E+02
 0.32787957318E+02 0.24253152002E+02 0.16886330537E+02 0.11954934221E+02 0.94757952161E+01
 0.83322982733E+01 0.75496980138E+01 0.71484856347E+01 0.71486584683E+01 0.75503681902E+01
 0.83332751704E+01 0.94758643324E+01 0.11952874064E+02 0.16882797430E+02 0.24250717714E+02
 0.32788545494E+02 0.40384843600E+02 0.44867291983E+02 0.44865886443E+02 0.40382298984E+02
 0.52751944873E+02 0.40440108644E+02 0.28135608516E+02 0.18369449759E+02 0.12294011993E+02
 0.94766618051E+01 0.82799305434E+01 0.75322354577E+01 0.72739861443E+01 0.75323699836E+01
 0.82798963251E+01 0.94758449499E+01 0.12292094859E+02 0.18367407024E+02 0.28135656365E+02
 0.40443825601E+02 0.52758118597E+02 0.61926225503E+02 0.65321681388E+02 0.61921417193E+02
 0.76755349567E+02 0.61944223710E+02 0.44947279384E+02 0.29586594300E+02 0.18367510828E+02
 0.11953861879E+02 0.92588249661E+01 0.81393305891E+01 0.75362722624E+01 0.75362230373E+01
 0.81389810764E+01 0.92579707061E+01 0.11952932757E+02 0.18367498868E+02 0.29588206661E+02
 0.44950233992E+02 0.61947432407E+02 0.76757690327E+02 0.85431073926E+02 0.85430236428E+02
 0.10031201967E+03 0.85432743728E+02 0.65348876347E+02 0.44948761042E+02 0.28133638895E+02
 0.16882043359E+02 0.11080843247E+02 0.89100682124E+01 0.79589611773E+01 0.76142052091E+01
 0.79587905273E+01 0.89096009169E+01 0.11080598496E+02 0.16883045937E+02 0.28135885654E+02
 0.44950312236E+02 0.65347463377E+02 0.85428566985E+02 0.10030828584E+03 0.10581996899E+03
 0.11775311391E+03 0.10581775171E+03 0.85433412975E+02 0.61948913984E+02 0.40442859987E+02
 0.24249534070E+02 0.14448040511E+02 0.10022726104E+02 0.85034546493E+01 0.77954613081E+01
 0.77954577667E+01 0.85033628097E+01 0.10022684400E+02 0.14448687528E+02 0.24251112980E+02
 0.40444039759E+02 0.61947391145E+02 0.85428439385E+02 0.10581184977E+03 0.11775046144E+03
 0.89307687891E+02 0.84690342043E+02 0.72191613119E+02 0.55267745634E+02 0.38058765326E+02
 0.23953003095E+02 0.14684026503E+02 0.10069342683E+02 0.83445066058E+01 0.74637501281E+01
 0.71497964606E+01 0.74637989992E+01 0.83445583594E+01 0.10069365923E+02 0.14684042253E+02
 0.23953048489E+02 0.38058834743E+02 0.55267792221E+02 0.72191609745E+02 0.84690317606E+02
 0.84692316745E+02 0.84690541578E+02 0.76127808267E+02 0.61463580263E+02 0.44558186768E+02
 0.29203141625E+02 0.17942178427E+02 0.11495042418E+02 0.87955066857E+01 0.76830759311E+01
 0.70859073481E+01 0.70859371182E+01 0.76832438554E+01 0.87957248080E+01 0.11494777213E+02
 0.17941106949E+02 0.29202111288E+02 0.44558881400E+02 0.61466689064E+02 0.76131693572E+02
 0.72194546677E+02 0.76158799599E+02 0.72192171405E+02 0.61463808211E+02 0.46970623212E+02
 0.32325856365E+02 0.20487999391E+02 0.12912591807E+02 0.92906579617E+01 0.78925749958E+01
 0.70876854863E+01 0.68055734608E+01 0.70877887356E+01 0.78929767124E+01 0.92909942069E+01
 0.12911929867E+02 0.20486103290E+02 0.32324097784E+02 0.46970869387E+02 0.61466201805E+02
 0.55266396002E+02 0.61540732241E+02 0.61541414411E+02 0.55268358349E+02 0.44558298182E+02
 0.32325739699E+02 0.21449981818E+02 0.13800292389E+02 0.97134817118E+01 0.80515116394E+01
 0.71303080791E+01 0.66378019462E+01 0.66378214056E+01 0.71305542306E+01 0.80521725743E+01
 0.97141606738E+01 0.13800102098E+02 0.21448346677E+02 0.32323007605E+02 0.44555486041E+02
 0.38054517936E+02 0.44686648674E+02 0.47149543891E+02 0.44690082453E+02 0.38058944773E+02
 0.29202819674E+02 0.20487597501E+02 0.13800104786E+02 0.98819940213E+01 0.81397402362E+01
 0.71778062734E+01 0.65615685804E+01 0.63546656915E+01 0.65615759560E+01 0.71779698559E+01
 0.81404148898E+01 0.98833658677E+01 0.13801498317E+02 0.20487483165E+02 0.29200112148E+02
 0.23952482755E+02 0.29382501438E+02 0.32609237720E+02 0.32610199821E+02 0.29384146803E+02
 0.23952550904E+02 0.17941482871E+02 0.12912084767E+02 0.97133062208E+01 0.81397522379E+01
 0.71980109923E+01 0.65381194773E+01 0.62118192872E+01 0.62118084827E+01 0.65378828439E+01
 0.71975205391E+01 0.81398491558E+01 0.97149911589E+01 0.12914982000E+02 0.17943671823E+02
 0.14686979185E+02 0.18158902413E+02 0.20857101296E+02 0.21873803092E+02 0.20855375230E+02
 0.18155683066E+02 0.14683216825E+02 0.11494363502E+02 0.92903749373E+01 0.80515596271E+01
 0.71779602788E+01 0.65382170254E+01 0.61701302809E+01 0.60530593804E+01 0.61701770068E+01
 0.65376389304E+01 0.71765899811E+01 0.80504545347E+01 0.92909942069E+01 0.11497098174E+02
 0.10069367962E+02 0.11721731393E+02 0.13326171451E+02 0.14318259453E+02 0.14316719073E+02
 0.13322690602E+02 0.11718760040E+02 0.10068679393E+02 0.87952259948E+01 0.78926887187E+01
 0.71306026495E+01 0.65618399036E+01 0.62119916882E+01 0.60531348902E+01 0.60533791617E+01
 0.62123762559E+01 0.65615779952E+01 0.71291559724E+01 0.78904882746E+01 0.87937277074E+01
 0.83414820613E+01 0.90104425951E+01 0.97040251036E+01 0.10265628103E+02 0.10483419808E+02
 0.10264632038E+02 0.97037358680E+01 0.90121212368E+01 0.83443378872E+01 0.76832868353E+01
 0.70880944319E+01 0.66381896656E+01 0.63549438121E+01 0.62119896490E+01 0.61702696467E+01
 0.62123850212E+01 0.63559062004E+01 0.66392176247E+01 0.70879281015E+01 0.76812447156E+01
 0.74637067681E+01 0.78860245867E+01 0.82860465449E+01 0.85957194081E+01 0.87678259470E+01
 0.87683713521E+01 0.85974208780E+01 0.82886048334E+01 0.78882130228E+01 0.74640720154E+01
 0.70863932834E+01 0.68060015278E+01 0.66380974345E+01 0.65617456334E+01 0.65379874360E+01
 0.65376459744E+01 0.65614763493E+01 0.66391059342E+01 0.68081520906E+01 0.70880284891E+01
 0.71527333928E+01 0.72857239508E+01 0.74681627206E+01 0.76596564872E+01 0.78069694520E+01
 0.78630440066E+01 0.78084494491E+01 0.76613256188E+01 0.74684870786E+01 0.72841916077E+01
 0.71503134537E+01 0.70863328105E+01 0.70879550661E+01 0.71305729305E+01 0.71779602788E+01
 0.71974770164E+01 0.71764263986E+01 0.71288801019E+01 0.70876854863E+01 0.70879382460E+01
 0.74636976931E+01 0.72858068754E+01 0.71828163209E+01 0.71601263934E+01 0.71887441496E+01
 0.72212976979E+01 0.72216344968E+01 0.71890272679E+01 0.71591913218E+01 0.71807859116E+01
 0.72842758008E+01 0.74641118116E+01 0.76832344004E+01 0.78927431928E+01 0.80519338825E+01
 0.81402655370E+01 0.81396878013E+01 0.80501678552E+01 0.78901410321E+01 0.76810243564E+01
 0.83414664651E+01 0.78862251229E+01 0.74684015048E+01 0.71602421212E+01 0.69814241055E+01
 0.69036282359E+01 0.68841579269E+01 0.69032721261E+01 0.69805082552E+01 0.71592437567E+01
 0.74685902870E+01 0.78883052539E+01 0.83443740446E+01 0.87952239556E+01 0.92904781457E+01
 0.97138719547E+01 0.98832706876E+01 0.97148779308E+01 0.92907611701E+01 0.87935075459E+01
 0.10069350066E+02 0.90106360761E+01 0.82863875239E+01 0.76599435268E+01 0.71888613701E+01
 0.69036278441E+01 0.67772957019E+01 0.67770802532E+01 0.69032795089E+01 0.71890870856E+01
 0.76612864779E+01 0.82885052195E+01 0.90121286196E+01 0.10068684736E+02 0.11494034298E+02
 0.12911511650E+02 0.13800112169E+02 0.13801695991E+02 0.12915070823E+02 0.11497034175E+02
 0.14686963435E+02 0.11721769047E+02 0.97042517135E+01 0.85960218613E+01 0.78071599436E+01
 0.72213131878E+01 0.68840748462E+01 0.67770045129E+01 0.68840547184E+01 0.72218806337E+01
 0.78084494491E+01 0.85970300750E+01 0.97035965022E+01 0.11719060651E+02 0.14683216825E+02
 0.17940618565E+02 0.20486217626E+02 0.21448884171E+02 0.20487999391E+02 0.17943878995E+02
 0.23952472358E+02 0.18158675518E+02 0.13326078323E+02 0.10265758393E+02 0.87680185172E+01
 0.78631173916E+01 0.72215453531E+01 0.69030897242E+01 0.69030974988E+01 0.72217760000E+01
 0.78636065019E+01 0.87679328461E+01 0.10264101301E+02 0.13323223378E+02 0.18156535623E+02
 0.23952585901E+02 0.29202288937E+02 0.32324874217E+02 0.32323900703E+02 0.29200611748E+02
 0.38054513910E+02 0.29381992082E+02 0.20856584331E+02 0.14318077025E+02 0.10483543061E+02
 0.87685492542E+01 0.78084744268E+01 0.71888539873E+01 0.69802128306E+01 0.71887965845E+01
 0.78082839352E+01 0.87679181780E+01 0.10482244691E+02 0.14316717033E+02 0.20856689713E+02
 0.29384712537E+02 0.38059010164E+02 0.44559694401E+02 0.46971937696E+02 0.44556187628E+02
 0.55266397076E+02 0.44685946838E+02 0.32608347521E+02 0.21873276989E+02 0.14316728468E+02
 0.10264940572E+02 0.85976689907E+01 0.76612994671E+01 0.71588935636E+01 0.71588302707E+01
 0.76609732866E+01 0.85969757345E+01 0.10264279545E+02 0.14316908856E+02 0.21874829829E+02
 0.32610982644E+02 0.44688733895E+02 0.55268406011E+02 0.61467643167E+02 0.61466927960E+02
 0.72194550051E+02 0.61540011663E+02 0.47148480814E+02 0.32609430355E+02 0.20855269848E+02
 0.13323116194E+02 0.97042517135E+01 0.82888262986E+01 0.74682982964E+01 0.71803324941E+01
 0.74681627206E+01 0.82883857056E+01 0.97038857378E+01 0.13323742098E+02 0.20857101296E+02
 0.32611103377E+02 0.47148164017E+02 0.61537586800E+02 0.72192171405E+02 0.76132238799E+02
 0.84692319395E+02 0.76158260646E+02 0.61540465703E+02 0.44689272747E+02 0.29383969434E+02
 0.18156167429E+02 0.11719493123E+02 0.90126060451E+01 0.78882024747E+01 0.72837770887E+01
 0.72837783571E+01 0.78880941697E+01 0.90124199469E+01 0.11719756080E+02 0.18157246882E+02
 0.29385044524E+02 0.44688626025E+02 0.61537358670E+02 0.76154335849E+02 0.84690519790E+02
 0.56189490321E+02 0.53304841895E+02 0.45495211663E+02 0.34957825884E+02 0.24399606495E+02
 0.16059290907E+02 0.10959638229E+02 0.86413393592E+01 0.75546784583E+01 0.68578969041E+01
 0.66202311365E+01 0.68579027248E+01 0.75546737046E+01 0.86413221800E+01 0.10959634713E+02
 0.16059325114E+02 0.24399664740E+02 0.34957866598E+02 0.45495212842E+02 0.53304825402E+02
 0.53306013587E+02 0.53305055029E+02 0.47936291274E+02 0.38760036124E+02 0.28282660860E+02
 0.19015847927E+02 0.12590704256E+02 0.92392846689E+01 0.78360402848E+01 0.69701813071E+01