   2   2   0   0
  0.9638209E+01  0.2330000E-09  0.2330000E-09  0.4100000E-09  0.5000000E-15
  1.000000000000000E-004
  CAR 
 unknown system                          
     74.74807611     -5.32226650  301      7.56917950      1.00000000
     -5.322  0.0000E+00  0.0000E+00
     -5.055  0.0000E+00  0.0000E+00
     -4.788  0.0000E+00  0.0000E+00
     -4.522  0.0000E+00  0.0000E+00
     -4.255  0.0000E+00  0.0000E+00
     -3.988  0.0000E+00  0.0000E+00
     -3.721  0.0000E+00  0.0000E+00
     -3.454 -0.1295E-34 -0.3456E-35
     -3.187 -0.3416E-25 -0.9116E-26
     -2.920 -0.2477E-17 -0.6612E-18
     -2.653 -0.4660E-11 -0.1244E-11
     -2.386 -0.2310E-06 -0.6165E-07
     -2.119 -0.2530E-03 -0.6759E-04
     -1.853  0.1310E-03 -0.3263E-04
     -1.586  0.4850E-01  0.1291E-01
     -1.319  0.5538E-01  0.2769E-01
     -1.052  0.8027E-01  0.4912E-01
     -0.785 -0.4058E-02  0.4803E-01
     -0.518 -0.5203E-02  0.4664E-01
     -0.251  0.4796E-01  0.5944E-01
      0.016  0.3967E+00  0.1653E+00
      0.283  0.5782E+00  0.3196E+00
      0.550  0.1965E+00  0.3721E+00
      0.816 -0.3262E-01  0.3634E+00
      1.083  0.2253E+00  0.4235E+00
      1.350  0.6505E+00  0.5971E+00
      1.617 -0.1801E-01  0.5923E+00
      1.884 -0.1519E-01  0.5883E+00
      2.151  0.1959E+00  0.6406E+00
      2.418  0.2657E+01  0.1350E+01
      2.685  0.1850E+01  0.1844E+01
      2.952  0.1906E+01  0.2352E+01
      3.219  0.3324E+01  0.3240E+01
      3.485  0.2383E+01  0.3876E+01
      3.752  0.2063E+01  0.4426E+01
      4.019  0.1220E+01  0.4752E+01
      4.286  0.4543E+01  0.5965E+01
      4.553  0.3636E+01  0.6935E+01
      4.820  0.1621E+01  0.7367E+01
      5.087  0.2061E+01  0.7917E+01
      5.354  0.4359E+01  0.9081E+01
      5.621  0.3609E+01  0.1004E+02
      5.888  0.2694E+01  0.1076E+02
      6.154  0.3180E+01  0.1161E+02
      6.421  0.2486E+01  0.1228E+02
      6.688  0.4198E+01  0.1340E+02
      6.955  0.4403E+01  0.1457E+02
      7.222  0.3633E+01  0.1554E+02
      7.489  0.1201E+01  0.1586E+02
      7.756  0.2315E+01  0.1648E+02
      8.023  0.3351E+01  0.1737E+02
      8.290  0.4106E+01  0.1847E+02
      8.557  0.6078E+01  0.2009E+02
      8.823  0.3932E+01  0.2114E+02
      9.090  0.8920E+00  0.2138E+02
      9.357  0.1196E+01  0.2170E+02
      9.624  0.3794E+00  0.2180E+02
      9.891 -0.2793E-01  0.2179E+02
     10.158 -0.4544E-01  0.2178E+02
     10.425  0.6535E+00  0.2195E+02
     10.692  0.1574E+01  0.2237E+02
     10.959 -0.1747E-01  0.2237E+02
     11.226 -0.6443E-02  0.2237E+02
     11.493 -0.8887E-02  0.2237E+02
     11.759  0.1217E+00  0.2240E+02
     12.026  0.2571E+00  0.2247E+02
     12.293 -0.2606E-01  0.2246E+02
     12.560  0.5151E+00  0.2260E+02
     12.827  0.7819E+00  0.2281E+02
     13.094  0.1884E+01  0.2331E+02
     13.361  0.6276E-01  0.2333E+02
     13.628  0.5049E+00  0.2346E+02
     13.895  0.2141E+00  0.2352E+02
     14.162  0.4563E+00  0.2364E+02
     14.428  0.6167E+00  0.2380E+02
     14.695  0.7434E-02  0.2381E+02
     14.962  0.1964E+00  0.2386E+02
     15.229  0.1746E+00  0.2390E+02
     15.496  0.2335E+00  0.2397E+02
     15.763  0.5223E+00  0.2411E+02
     16.030  0.2129E-01  0.2411E+02
     16.297  0.1969E-01  0.2412E+02
     16.564  0.3098E+00  0.2420E+02
     16.831  0.2574E+00  0.2427E+02
     17.097  0.2235E+00  0.2433E+02
     17.364  0.2339E-01  0.2433E+02
     17.631  0.4069E-01  0.2435E+02
     17.898  0.9364E+00  0.2460E+02
     18.165  0.1797E+01  0.2508E+02
     18.432  0.1117E+00  0.2510E+02
     18.699  0.1059E+00  0.2513E+02
     18.966  0.1018E+01  0.2540E+02
     19.233  0.5843E+00  0.2556E+02
     19.500  0.9044E+00  0.2580E+02
     19.766  0.8756E+00  0.2604E+02
     20.033  0.7587E+00  0.2624E+02
     20.300  0.1126E+01  0.2654E+02
     20.567  0.2325E-01  0.2655E+02
     20.834  0.8641E+00  0.2678E+02
     21.101  0.3511E+00  0.2687E+02
     21.368 -0.2134E-01  0.2686E+02
     21.635  0.4601E+00  0.2699E+02
     21.902  0.1608E+01  0.2742E+02
     22.169  0.4714E+00  0.2754E+02
     22.435  0.3777E+00  0.2764E+02
     22.702  0.8635E+00  0.2787E+02
     22.969  0.8969E+00  0.2811E+02
     23.236  0.8581E+00  0.2834E+02
     23.503  0.1119E+01  0.2864E+02
     23.770  0.9463E+00  0.2889E+02
     24.037  0.2770E+00  0.2897E+02
     24.304  0.2845E-01  0.2897E+02
     24.571  0.1244E+00  0.2901E+02
     24.838  0.5852E+00  0.2916E+02
     25.104  0.5792E+00  0.2932E+02
     25.371  0.1247E+01  0.2965E+02
     25.638  0.1228E+01  0.2998E+02
     25.905  0.6857E+00  0.3016E+02
     26.172  0.1381E+01  0.3053E+02
     26.439  0.1207E+01  0.3085E+02
     26.706  0.8458E+00  0.3108E+02
     26.973  0.9974E+00  0.3134E+02
     27.240  0.9501E+00  0.3160E+02
     27.507  0.8014E+00  0.3181E+02
     27.773  0.9835E+00  0.3207E+02
     28.040  0.7749E+00  0.3228E+02
     28.307  0.1105E+01  0.3258E+02
     28.574  0.3684E+00  0.3267E+02
     28.841  0.1237E+01  0.3300E+02
     29.108  0.5791E+00  0.3316E+02
     29.375  0.6395E+00  0.3333E+02
     29.642  0.5594E+00  0.3348E+02
     29.909  0.3507E+00  0.3357E+02
     30.176  0.2846E+00  0.3365E+02
     30.442 -0.6471E-02  0.3365E+02
     30.709 -0.4494E-02  0.3365E+02
     30.976  0.9080E+00  0.3389E+02
     31.243  0.7232E+00  0.3408E+02
     31.510  0.1517E+01  0.3449E+02
     31.777  0.1407E+01  0.3486E+02
     32.044  0.2001E+01  0.3540E+02
     32.311  0.4770E+00  0.3552E+02
     32.578  0.6891E+00  0.3571E+02
     32.845  0.1974E+01  0.3623E+02
     33.111  0.1085E+01  0.3652E+02
     33.378  0.3047E+00  0.3661E+02
     33.645  0.5591E+00  0.3675E+02
     33.912  0.6853E-01  0.3677E+02
     34.179  0.8098E+00  0.3699E+02
     34.446  0.2272E+01  0.3760E+02
     34.713  0.4623E+00  0.3772E+02
     34.980  0.1218E+01  0.3804E+02
     35.247  0.2159E-01  0.3805E+02
     35.514 -0.4617E-01  0.3804E+02
     35.781  0.1020E+01  0.3831E+02
     36.047  0.4819E+00  0.3844E+02
     36.314  0.5327E+00  0.3858E+02
     36.581  0.4860E+00  0.3871E+02
     36.848  0.6934E+00  0.3889E+02
     37.115  0.8952E+00  0.3913E+02
     37.382  0.1067E+01  0.3942E+02
     37.649  0.9841E+00  0.3968E+02
     37.916  0.1847E+00  0.3973E+02
     38.183  0.1722E+01  0.4019E+02
     38.450  0.1073E+01  0.4048E+02
     38.716  0.6920E+00  0.4066E+02
     38.983  0.2738E-01  0.4067E+02
     39.250  0.5462E+00  0.4081E+02
     39.517  0.6100E+00  0.4098E+02
     39.784  0.1751E+01  0.4144E+02
     40.051  0.1432E+01  0.4183E+02
     40.318  0.4219E-01  0.4184E+02
     40.585  0.4990E+00  0.4197E+02
     40.852  0.1725E+01  0.4243E+02
     41.119  0.6804E+00  0.4261E+02
     41.385  0.3551E+00  0.4271E+02
     41.652  0.6913E+00  0.4289E+02
     41.919  0.1487E+01  0.4329E+02
     42.186  0.1689E+01  0.4374E+02
     42.453  0.6030E+00  0.4390E+02
     42.720  0.8495E+00  0.4413E+02
     42.987  0.2116E+00  0.4418E+02
     43.254  0.8284E+00  0.4441E+02
     43.521  0.5343E+00  0.4455E+02
     43.788  0.1969E+01  0.4507E+02
     44.054  0.1422E+01  0.4545E+02
     44.321  0.4316E+00  0.4557E+02
     44.588  0.1047E+01  0.4585E+02
     44.855  0.4864E+00  0.4598E+02
     45.122  0.1811E+01  0.4646E+02
     45.389  0.6179E+00  0.4663E+02
     45.656  0.1486E+01  0.4702E+02
     45.923  0.1455E+01  0.4741E+02
     46.190  0.5704E+00  0.4756E+02
     46.457  0.5764E+00  0.4772E+02
     46.723  0.1349E+01  0.4808E+02
     46.990  0.7994E+00  0.4829E+02
     47.257  0.9673E+00  0.4855E+02
     47.524  0.1602E+01  0.4898E+02
     47.791  0.1145E+01  0.4928E+02
     48.058  0.6011E+00  0.4944E+02
     48.325  0.3690E-01  0.4945E+02
     48.592  0.1168E+01  0.4976E+02
     48.859  0.2987E+00  0.4984E+02
     49.126  0.5302E-01  0.4986E+02
     49.392  0.1661E+01  0.5030E+02
     49.659  0.1524E+01  0.5071E+02
     49.926  0.5005E+00  0.5084E+02
     50.193  0.1037E+01  0.5112E+02
     50.460  0.1244E+01  0.5145E+02
     50.727  0.2155E+01  0.5203E+02
     50.994  0.1926E+01  0.5254E+02
     51.261  0.1675E+00  0.5258E+02
     51.528  0.8323E+00  0.5281E+02
     51.795  0.1340E+00  0.5284E+02
     52.061  0.4891E+00  0.5297E+02
     52.328  0.5148E+00  0.5311E+02
     52.595  0.4869E+00  0.5324E+02
     52.862  0.1543E+01  0.5365E+02
     53.129  0.3514E+00  0.5375E+02
     53.396  0.1002E+01  0.5401E+02
     53.663  0.9113E+00  0.5426E+02
     53.930  0.9733E+00  0.5452E+02
     54.197  0.1248E+01  0.5485E+02
     54.464  0.2287E+01  0.5546E+02
     54.730  0.1962E+01  0.5598E+02
     54.997  0.1343E+01  0.5634E+02
     55.264  0.7942E+00  0.5655E+02
     55.531  0.7955E+00  0.5677E+02
     55.798  0.1007E+01  0.5703E+02
     56.065  0.9171E+00  0.5728E+02
     56.332  0.4737E+00  0.5741E+02
     56.599  0.7201E+00  0.5760E+02
     56.866  0.1785E+01  0.5807E+02
     57.133  0.1843E+01  0.5857E+02
     57.400  0.2562E+01  0.5925E+02
     57.666  0.1399E+01  0.5962E+02
     57.933  0.1971E+01  0.6015E+02
     58.200  0.1845E+01  0.6064E+02
     58.467  0.2268E+01  0.6125E+02
     58.734  0.1104E+01  0.6154E+02
     59.001  0.2272E+01  0.6215E+02
     59.268  0.1682E+01  0.6260E+02
     59.535  0.1175E+01  0.6291E+02
     59.802  0.1521E+01  0.6332E+02
     60.069  0.2452E+01  0.6397E+02
     60.335  0.6005E+00  0.6413E+02
     60.602  0.3273E+00  0.6422E+02
     60.869  0.1648E+01  0.6466E+02
     61.136  0.1504E+01  0.6506E+02
     61.403  0.5449E+00  0.6521E+02
     61.670  0.4851E+00  0.6534E+02
     61.937  0.2712E+01  0.6606E+02
     62.204  0.2732E+01  0.6679E+02
     62.471  0.2149E+01  0.6736E+02
     62.738  0.1541E+01  0.6777E+02
     63.004  0.2145E+01  0.6835E+02
     63.271  0.1828E+01  0.6883E+02
     63.538  0.8293E-01  0.6886E+02
     63.805  0.1604E+01  0.6928E+02
     64.072  0.2608E+01  0.6998E+02
     64.339  0.1327E+01  0.7033E+02
     64.606  0.1120E+01  0.7063E+02
     64.873  0.1278E+01  0.7097E+02
     65.140  0.1620E+01  0.7141E+02
     65.407  0.1216E+01  0.7173E+02
     65.673  0.3053E+01  0.7255E+02
     65.940  0.2113E+01  0.7311E+02
     66.207  0.8183E+00  0.7333E+02
     66.474  0.2123E+01  0.7389E+02
     66.741  0.1198E+01  0.7421E+02
     67.008  0.1782E+00  0.7426E+02
     67.275  0.1620E+01  0.7469E+02
     67.542  0.1485E+01  0.7509E+02
     67.809  0.1672E+01  0.7554E+02
     68.076  0.1758E+01  0.7601E+02
     68.342  0.6057E+00  0.7617E+02
     68.609  0.2262E+01  0.7677E+02
     68.876  0.2039E+01  0.7732E+02
     69.143  0.1097E+01  0.7761E+02
     69.410  0.1028E+01  0.7788E+02
     69.677  0.1009E+01  0.7815E+02
     69.944  0.2258E+01  0.7876E+02
     70.211  0.1668E+01  0.7920E+02
     70.478  0.8712E+00  0.7943E+02
     70.745  0.6975E+00  0.7962E+02
     71.011  0.6022E+00  0.7978E+02
     71.278  0.8397E+00  0.8000E+02
     71.545 -0.1052E-01  0.8000E+02
     71.812 -0.3454E-02  0.8000E+02
     72.079 -0.2922E-05  0.8000E+02
     72.346 -0.5719E-10  0.8000E+02
     72.613  0.0000E+00  0.8000E+02
     72.880  0.0000E+00  0.8000E+02
     73.147  0.0000E+00  0.8000E+02
     73.414  0.0000E+00  0.8000E+02
     73.680  0.0000E+00  0.8000E+02
     73.947  0.0000E+00  0.8000E+02
     74.214  0.0000E+00  0.8000E+02
     74.481  0.0000E+00  0.8000E+02
     74.748  0.0000E+00  0.8000E+02
