    2    2    1    1
  0.9638209E+01  0.2330000E-09  0.2330000E-09  0.4100000E-09  0.5000000E-15
  1.000000000000000E-004
  CAR 
 unknown system                          
     16     15     40
 
  0.0000000E+00  0.0000000E+00  0.0000000E+00  0.8000000E-02
    1       -1.682705   1.000000
    2        2.180695   1.000000
    3        5.132358   1.000000
    4        5.781924   1.000000
    5        5.781950   1.000000
    6        6.123403   1.000000
    7        6.123430   1.000000
    8        6.793116   1.000000
    9        7.149572   1.005750
   10        7.149592   1.005752
   11        8.256199  -0.000007
   12        8.256222  -0.000007
   13       15.345873   0.000000
   14       31.456648   0.000000
   15       31.656129   0.000000
   16       34.587487   0.000000
   17       37.322552   0.000000
   18       37.322611   0.000000
   19       38.177928   0.000000
   20       38.177980   0.000000
   21       39.447586   0.000000
   22       40.712058   0.000000
   23       40.712085   0.000000
   24       41.743912   0.000000
   25       44.892461   0.000000
   26       44.892493   0.000000
   27       45.494738   0.000000
   28       49.158517   0.000000
   29       49.158625   0.000000
   30       50.702476   0.000000
   31       50.702588   0.000000
   32       53.325802   0.000000
   33       61.180948   0.000000
   34       63.159721   0.000000
   35       63.284448   0.000000
   36       63.284520   0.000000
   37       64.729117   0.000000
   38       66.200660   0.000000
   39       66.200729   0.000000
   40       67.802107   0.000000
 
  0.2000000E+00 -0.1306388E-16  0.0000000E+00  0.4800000E-01
    1       -0.111717   1.000000
    2        3.159097   1.000000
    3        4.530205   1.000000
    4        4.887818   1.000000
    5        5.478491   1.000000
    6        6.301465   1.000000
    7        6.547188   1.000000
    8        6.707974   1.000000
    9        6.744151   1.000000
   10        7.038014   1.000561
   11        8.369786  -0.000000
   12       11.804774  -0.000000
   13       15.502148   0.000000
   14       25.756185   0.000000
   15       30.947797   0.000000
   16       31.442311   0.000000
   17       31.593997   0.000000
   18       33.109461   0.000000
   19       37.130350   0.000000
   20       38.527906   0.000000
   21       38.625482   0.000000
   22       39.430275   0.000000
   23       41.999401   0.000000
   24       43.228861   0.000000
   25       46.707089   0.000000
   26       47.982203   0.000000
   27       49.293687   0.000000
   28       51.843457   0.000000
   29       53.342725   0.000000
   30       56.031751   0.000000
   31       57.195086   0.000000
   32       58.766053   0.000000
   33       59.494270   0.000000
   34       59.763826   0.000000
   35       60.132427   0.000000
   36       61.524588   0.000000
   37       64.451582   0.000000
   38       67.622213   0.000000
   39       68.532267   0.000000
   40       68.696730   0.000000
 
  0.4000000E+00  0.1037082E-16  0.0000000E+00  0.4800000E-01
    1        2.432904   1.000000
    2        2.929424   1.000000
    3        3.116896   1.000000
    4        5.311789   1.000000
    5        5.564802   1.000000
    6        5.929355   1.000000
    7        6.067567   1.000000
    8        8.410321  -0.000000
    9        8.460017  -0.000000
   10        8.593038  -0.000000
   11        8.937442  -0.000000
   12       14.956199   0.000000
   13       16.797410   0.000000
   14       19.278556   0.000000
   15       23.927262   0.000000
   16       26.099246   0.000000
   17       26.455630   0.000000
   18       31.779368   0.000000
   19       34.277044   0.000000
   20       36.995140   0.000000
   21       38.408366   0.000000
   22       40.655985   0.000000
   23       41.777664   0.000000
   24       43.479620   0.000000
   25       49.867500   0.000000
   26       52.872228   0.000000
   27       53.944742   0.000000
   28       57.294189   0.000000
   29       57.921079   0.000000
   30       58.077034   0.000000
   31       58.770545   0.000000
   32       61.239563   0.000000
   33       61.900038   0.000000
   34       62.145041   0.000000
   35       63.932143   0.000000
   36       65.658187   0.000000
   37       66.754026   0.000000
   38       67.788466   0.000000
   39       68.225806   0.000000
   40       68.973332   0.000000
 
  0.2000000E+00  0.2000000E+00  0.0000000E+00  0.4800000E-01
    1        2.353536   1.000000
    2        3.549384   1.000000
    3        4.010997   1.000000
    4        4.058969   1.000000
    5        5.480954   1.000000
    6        5.614244   1.000000
    7        6.391656   1.000000
    8        6.723492   1.000000
    9        8.180030  -0.000069
   10        8.284121  -0.000003
   11        9.122837  -0.000000
   12       15.648103   0.000000
   13       16.426776   0.000000
   14       21.505974   0.000000
   15       22.352959   0.000000
   16       27.607755   0.000000
   17       28.908880   0.000000
   18       31.071145   0.000000
   19       31.749533   0.000000
   20       38.268138   0.000000
   21       39.949564   0.000000
   22       43.715966   0.000000
   23       44.078213   0.000000
   24       46.483115   0.000000
   25       47.428340   0.000000
   26       49.371336   0.000000
   27       49.717416   0.000000
   28       54.245693   0.000000
   29       56.601835   0.000000
   30       56.987307   0.000000
   31       57.135426   0.000000
   32       61.815650   0.000000
   33       61.830746   0.000000
   34       62.805761   0.000000
   35       64.908112   0.000000
   36       65.706998   0.000000
   37       65.953622   0.000000
   38       67.385041   0.000000
   39       67.908065   0.000000
   40       71.045447   0.000000
 
  0.4000000E+00  0.2000000E+00  0.0000000E+00  0.4800000E-01
    1        3.227258   1.000000
    2        3.424279   1.000000
    3        3.616272   1.000000
    4        4.941258   1.000000
    5        5.375047   1.000000
    6        5.474347   1.000000
    7        6.175429   1.000000
    8        8.000586  -0.004660
    9        8.014535  -0.003593
   10        8.390317  -0.000000
   11       12.460471  -0.000000
   12       14.317289   0.000000
   13       19.688106   0.000000
   14       20.127179   0.000000
   15       20.862047   0.000000
   16       22.459241   0.000000
   17       25.071159   0.000000
   18       26.974227   0.000000
   19       29.997931   0.000000
   20       40.480826   0.000000
   21       42.552285   0.000000
   22       43.922336   0.000000
   23       45.251737   0.000000
   24       46.317979   0.000000
   25       50.295845   0.000000
   26       50.475232   0.000000
   27       51.431717   0.000000
   28       53.740598   0.000000
   29       55.478546   0.000000
   30       57.890085   0.000000
   31       58.799594   0.000000
   32       60.018514   0.000000
   33       62.144580   0.000000
   34       62.292397   0.000000
   35       67.298612   0.000000
   36       67.631579   0.000000
   37       69.602010   0.000000
   38       70.122449   0.000000
   39       70.192750   0.000000
   40       70.586712   0.000000
 
  0.0000000E+00  0.0000000E+00  0.2000000E+00  0.1600000E-01
    1       -1.284781   1.000000
    2        2.025811   1.000000
    3        5.036886   1.000000
    4        5.758959   1.000000
    5        5.758985   1.000000
    6        5.901180   1.000000
    7        6.056018   1.000000
    8        6.056045   1.000000
    9        7.367045   1.026200
   10        7.367065   1.026190
   11        8.212702  -0.000026
   12        8.212725  -0.000026
   13       17.052620   0.000000
   14       29.112706   0.000000
   15       31.848033   0.000000
   16       33.860163   0.000000
   17       37.516162   0.000000
   18       37.516218   0.000000
   19       38.202205   0.000000
   20       38.202256   0.000000
   21       40.634634   0.000000
   22       40.634674   0.000000
   23       40.947627   0.000000
   24       42.923444   0.000000
   25       43.743272   0.000000
   26       43.743320   0.000000
   27       46.996885   0.000000
   28       50.281445   0.000000
   29       50.281545   0.000000
   30       52.441079   0.000000
   31       52.441178   0.000000
   32       52.576552   0.000000
   33       58.521403   0.000000
   34       62.321984   0.000000
   35       62.322061   0.000000
   36       62.509538   0.000000
   37       62.509606   0.000000
   38       63.159432   0.000000
   39       64.115037   0.000000
   40       68.054797   0.000000
 
  0.2000000E+00 -0.1306388E-16  0.2000000E+00  0.9600000E-01
    1        0.222172   1.000000
    2        3.088396   1.000000
    3        4.257972   1.000000
    4        4.983795   1.000000
    5        5.283468   1.000000
    6        5.951899   1.000000
    7        6.535227   1.000000
    8        6.856276   1.000003
    9        7.020247   1.000362
   10        7.170110   1.008115
   11        8.268237  -0.000004
   12       10.411640  -0.000000
   13       17.747742   0.000000
   14       26.048373   0.000000
   15       29.614011   0.000000
   16       30.865962   0.000000
   17       31.404006   0.000000
   18       32.791327   0.000000
   19       35.708028   0.000000
   20       37.444238   0.000000
   21       39.183050   0.000000
   22       40.810831   0.000000
   23       43.580128   0.000000
   24       45.691132   0.000000
   25       47.662189   0.000000
   26       47.754725   0.000000
   27       48.495082   0.000000
   28       50.844078   0.000000
   29       52.757159   0.000000
   30       55.802956   0.000000
   31       56.858659   0.000000
   32       57.644653   0.000000
   33       58.146047   0.000000
   34       58.328476   0.000000
   35       61.847610   0.000000
   36       63.059089   0.000000
   37       64.658533   0.000000
   38       65.061717   0.000000
   39       66.311996   0.000000
   40       68.897911   0.000000
 
  0.4000000E+00  0.1037082E-16  0.2000000E+00  0.9600000E-01
    1        2.271945   1.000000
    2        2.830103   1.000000
    3        3.581869   1.000000
    4        4.418144   1.000000
    5        6.004267   1.000000
    6        6.271761   1.000000
    7        6.880980   1.000006
    8        8.097273  -0.000604
    9        8.500304  -0.000000
   10        8.643849  -0.000000
   11        8.645610  -0.000000
   12       12.947242  -0.000000
   13       18.032630   0.000000
   14       20.161735   0.000000
   15       23.192241   0.000000
   16       27.076123   0.000000
   17       27.578239   0.000000
   18       31.790367   0.000000
   19       34.070039   0.000000
   20       34.299797   0.000000
   21       37.326393   0.000000
   22       41.371235   0.000000
   23       42.046339   0.000000
   24       45.519082   0.000000
   25       49.459955   0.000000
   26       52.109754   0.000000
   27       54.445178   0.000000
   28       56.328331   0.000000
   29       56.692641   0.000000
   30       59.493589   0.000000
   31       59.830965   0.000000
   32       60.776513   0.000000
   33       62.224485   0.000000
   34       63.789233   0.000000
   35       64.006859   0.000000
   36       65.670743   0.000000
   37       66.323729   0.000000
   38       67.270524   0.000000
   39       69.814470   0.000000
   40       69.874449   0.000000
 
  0.2000000E+00  0.2000000E+00  0.2000000E+00  0.9600000E-01
    1        2.443348   1.000000
    2        3.368268   1.000000
    3        4.143145   1.000000
    4        4.210069   1.000000
    5        5.440159   1.000000
    6        5.527161   1.000000
    7        6.275390   1.000000
    8        7.014142   1.000310
    9        7.842468  -0.032926
   10        8.386549  -0.000000
   11        9.178731  -0.000000
   12       12.928610  -0.000000
   13       19.606377   0.000000
   14       21.817779   0.000000
   15       22.738461   0.000000
   16       26.340180   0.000000
   17       27.423526   0.000000
   18       32.371350   0.000000
   19       32.896701   0.000000
   20       35.761972   0.000000
   21       40.845718   0.000000
   22       43.797415   0.000000
   23       44.359084   0.000000
   24       44.957179   0.000000
   25       47.313555   0.000000
   26       49.472657   0.000000
   27       51.313879   0.000000
   28       53.300357   0.000000
   29       55.096745   0.000000
   30       58.216378   0.000000
   31       60.000469   0.000000
   32       61.746158   0.000000
   33       61.812596   0.000000
   34       62.284149   0.000000
   35       63.163813   0.000000
   36       65.459212   0.000000
   37       65.635070   0.000000
   38       67.260742   0.000000
   39       68.398399   0.000000
   40       68.490600   0.000000
 
  0.4000000E+00  0.2000000E+00  0.2000000E+00  0.9600000E-01
    1        3.014396   1.000000
    2        3.526057   1.000000
    3        4.154727   1.000000
    4        4.330369   1.000000
    5        5.191026   1.000000
    6        5.874849   1.000000
    7        6.492569   1.000000
    8        7.678360   0.105740
    9        8.052972  -0.001650
   10        8.467638  -0.000000
   11       12.611834  -0.000000
   12       14.134543   0.000000
   13       18.779365   0.000000
   14       19.308240   0.000000
   15       20.740305   0.000000
   16       24.658378   0.000000
   17       25.647117   0.000000
   18       26.628226   0.000000
   19       32.023763   0.000000
   20       38.089818   0.000000
   21       39.782906   0.000000
   22       41.922947   0.000000
   23       46.116994   0.000000
   24       47.336998   0.000000
   25       50.583675   0.000000
   26       50.771488   0.000000
   27       54.146720   0.000000
   28       54.803214   0.000000
   29       57.547336   0.000000
   30       57.836049   0.000000
   31       58.999021   0.000000
   32       59.258266   0.000000
   33       62.524798   0.000000
   34       63.032434   0.000000
   35       65.813769   0.000000
   36       67.874078   0.000000
   37       67.962559   0.000000
   38       69.686479   0.000000
   39       69.887015   0.000000
   40       71.108515   0.000000
 
  0.0000000E+00  0.0000000E+00  0.4000000E+00  0.1600000E-01
    1       -0.187888   1.000000
    2        1.197440   1.000000
    3        4.792838   1.000000
    4        4.893243   1.000000
    5        5.756376   1.000000
    6        5.756401   1.000000
    7        5.873927   1.000000
    8        5.873952   1.000000
    9        7.680890   0.099452
   10        7.680912   0.099398
   11        8.018215  -0.003348
   12        8.018238  -0.003347
   13       20.679113   0.000000
   14       24.962226   0.000000
   15       31.964820   0.000000
   16       32.678488   0.000000
   17       37.924395   0.000000
   18       37.924442   0.000000
   19       38.177490   0.000000
   20       38.177535   0.000000
   21       40.637380   0.000000
   22       40.637436   0.000000
   23       41.640522   0.000000
   24       41.640581   0.000000
   25       43.685837   0.000000
   26       44.652586   0.000000
   27       49.163777   0.000000
   28       50.808025   0.000000
   29       52.834060   0.000000
   30       52.834148   0.000000
   31       54.645879   0.000000
   32       54.645972   0.000000
   33       55.939589   0.000000
   34       57.698498   0.000000
   35       58.687595   0.000000
   36       58.687670   0.000000
   37       59.894233   0.000000
   38       59.894315   0.000000
   39       65.833602   0.000000
   40       68.644108   0.000000
 
  0.2000000E+00 -0.1306388E-16  0.4000000E+00  0.9600000E-01
    1        1.139244   1.000000
    2        2.331214   1.000000
    3        4.277992   1.000000
    4        4.767018   1.000000
    5        5.257235   1.000000
    6        5.625636   1.000000
    7        6.539666   1.000000
    8        6.695771   1.000000
    9        7.561660   0.531793
   10        7.782123  -0.030605
   11        7.988231  -0.005806
   12        8.859627  -0.000000
   13       21.706139   0.000000
   14       26.142934   0.000000
   15       26.899828   0.000000
   16       28.298815   0.000000
   17       32.771774   0.000000
   18       33.450320   0.000000
   19       34.323938   0.000000
   20       34.840641   0.000000
   21       42.186690   0.000000
   22       43.791333   0.000000
   23       45.090592   0.000000
   24       45.776968   0.000000
   25       46.672304   0.000000
   26       47.176062   0.000000
   27       50.697273   0.000000
   28       50.711050   0.000000
   29       53.495798   0.000000
   30       53.858682   0.000000
   31       54.576065   0.000000
   32       55.333506   0.000000
   33       57.378025   0.000000
   34       59.966723   0.000000
   35       61.057630   0.000000
   36       63.715976   0.000000
   37       63.984058   0.000000
   38       65.107885   0.000000
   39       65.600959   0.000000
   40       67.636051   0.000000
 
  0.4000000E+00  0.1037082E-16  0.4000000E+00  0.9600000E-01
    1        2.279505   1.000000
    2        2.605567   1.000000
    3        3.813878   1.000000
    4        4.053561   1.000000
    5        6.682405   1.000000
    6        6.791300   1.000000
    7        7.457415   0.900680
    8        7.760701  -0.020150
    9        8.549928  -0.000000
   10        8.552260  -0.000000
   11        8.614646  -0.000000
   12       10.505710  -0.000000
   13       18.946373   0.000000
   14       19.968360   0.000000
   15       25.139255   0.000000
   16       28.003504   0.000000
   17       28.785499   0.000000
   18       31.306766   0.000000
   19       31.875083   0.000000
   20       32.639433   0.000000
   21       36.876925   0.000000
   22       39.617552   0.000000
   23       44.954593   0.000000
   24       46.728626   0.000000
   25       48.531901   0.000000
   26       50.241432   0.000000
   27       54.551366   0.000000
   28       57.099380   0.000000
   29       58.418504   0.000000
   30       58.439154   0.000000
   31       59.705096   0.000000
   32       61.006986   0.000000
   33       64.224576   0.000000
   34       64.528186   0.000000
   35       64.855517   0.000000
   36       65.280879   0.000000
   37       66.193196   0.000000
   38       66.540067   0.000000
   39       68.687550   0.000000
   40       70.734115   0.000000
 
  0.2000000E+00  0.2000000E+00  0.4000000E+00  0.9600000E-01
    1        2.703275   1.000000
    2        3.052262   1.000000
    3        4.429357   1.000000
    4        4.535512   1.000000
    5        5.183279   1.000000
    6        5.220059   1.000000
    7        6.524730   1.000000
    8        7.105211   1.002493
    9        8.051336  -0.001709
   10        8.559302  -0.000000
   11        9.362146  -0.000000
   12       10.535542  -0.000000
   13       22.730871   0.000000
   14       23.221200   0.000000
   15       23.572539   0.000000
   16       25.351615   0.000000
   17       25.432791   0.000000
   18       28.684356   0.000000
   19       36.236447   0.000000
   20       38.009985   0.000000
   21       39.918653   0.000000
   22       41.708790   0.000000
   23       42.526806   0.000000
   24       43.069278   0.000000
   25       49.272980   0.000000
   26       50.073385   0.000000
   27       52.643700   0.000000
   28       54.854894   0.000000
   29       57.147181   0.000000
   30       58.905818   0.000000
   31       58.963070   0.000000
   32       60.604771   0.000000
   33       62.081422   0.000000
   34       62.099664   0.000000
   35       62.661175   0.000000
   36       62.809460   0.000000
   37       65.543297   0.000000
   38       68.882236   0.000000
   39       69.307292   0.000000
   40       70.072157   0.000000
 
  0.4000000E+00  0.2000000E+00  0.4000000E+00  0.9600000E-01
    1        3.010179   1.000000
    2        3.368700   1.000000
    3        4.132023   1.000000
    4        4.562565   1.000000
    5        5.135766   1.000000
    6        5.883300   1.000000
    7        6.903894   1.000013
    8        7.153263   1.006130
    9        8.227995  -0.000016
   10        8.482156  -0.000000
   11       12.968289  -0.000000
   12       13.581480   0.000000
   13       17.940324   0.000000
   14       18.067069   0.000000
   15       21.895528   0.000000
   16       23.509804   0.000000
   17       28.058102   0.000000
   18       29.274054   0.000000
   19       34.356437   0.000000
   20       34.792059   0.000000
   21       36.590404   0.000000
   22       39.681741   0.000000
   23       44.526638   0.000000
   24       45.630381   0.000000
   25       54.256630   0.000000
   26       54.314966   0.000000
   27       55.738673   0.000000
   28       56.707928   0.000000
   29       57.244834   0.000000
   30       57.898666   0.000000
   31       59.191225   0.000000
   32       60.771628   0.000000
   33       62.844042   0.000000
   34       63.719743   0.000000
   35       64.046795   0.000000
   36       66.500561   0.000000
   37       67.119683   0.000000
   38       68.552292   0.000000
   39       69.374713   0.000000
   40       70.311934   0.000000
