unknown system                          
   1.00000000000000     
     2.423200    0.000000    0.000000
    -1.211600    2.098553    0.000000
     0.000000    0.000000    4.221360
   Fe
     2
Direct
  0.000000  0.000000  0.000000
  0.333333  0.666667  0.500000
 
   20   20   36
  180.43      170.24      143.02      106.98      71.142      42.077      22.786      12.928      9.5264      8.4530    
  8.0975      8.4540      9.5271      12.928      22.785      42.076      71.143      106.98      143.02      170.24    
  170.25      170.24      151.58      120.19      84.780      53.112      29.850      16.223      10.471      8.7851    
  8.0872      8.0859      8.7837      10.472      16.225      29.848      53.109      84.787      120.21      151.60    
  143.04      151.56      143.02      120.19      89.865      59.671      35.319      19.459      11.671      9.0884    
  8.1112      7.7829      8.1081      9.0873      11.674      19.460      35.313      59.665      89.870      120.21    
  106.98      120.12      120.12      106.98      84.780      59.670      37.378      21.467      12.719      9.3616    
  8.1594      7.5710      7.5702      8.1584      9.3624      12.721      21.466      37.371      59.658      84.769    
  71.120      84.667      89.721      84.686      71.143      53.110      35.319      21.467      13.136      9.5484    
  8.2081      7.4485      7.2071      7.4496      8.2086      9.5488      13.139      21.473      35.320      53.098    
  42.075      53.031      59.529      59.535      53.042      42.076      29.850      19.460      12.719      9.5481    
  8.2289      7.3962      7.0065      7.0077      7.3972      8.2268      9.5470      12.726      19.475      29.861    
  22.802      29.849      35.272      37.304      35.265      29.836      22.786      16.224      11.672      9.3610    
  8.2083      7.3963      6.9432      6.8052      6.9449      7.3951      8.2024      9.3555      11.674      16.236    
  12.926      16.268      19.513      21.506      21.499      19.498      16.257      12.928      10.471      9.0877    
  8.1594      7.4489      7.0062      6.8051      6.8062      7.0082      7.4483      8.1526      9.0751      10.459    
  9.5081      10.510      11.762      12.834      13.254      12.829      11.761      10.522      9.5267      8.7848    
  8.1108      7.5715      7.2069      7.0075      6.9454      7.0083      7.2111      7.5773      8.1103      8.7724    
  8.4530      8.8274      9.1782      9.4951      9.7078      9.7099      9.5025      9.1904      8.8381      8.4533    
  8.0868      7.7834      7.5705      7.4492      7.3975      7.3954      7.4475      7.5771      7.7975      8.0982    
  8.1142      8.1545      8.2206      8.3074      8.3883      8.4243      8.3944      8.3133      8.2188      8.1426    
  8.0975      8.0858      8.1086      8.1580      8.2083      8.2271      8.2019      8.1522      8.1112      8.0985    
  8.4521      8.1541      7.9109      7.7430      7.6537      7.6232      7.6250      7.6545      7.7358      7.8969    
  8.1436      8.4534      8.7838      9.0873      9.3617      9.5490      9.5474      9.3554      9.0757      8.7729    
  9.5075      8.8270      8.2214      7.7433      7.4243      7.2541      7.2032      7.2539      7.4203      7.7367    
  8.2209      8.8391      9.5268      10.472      11.674      12.721      13.140      12.726      11.674      10.459    
  12.927      10.510      9.1788      8.3077      7.6531      7.2541      7.0757      7.0748      7.2526      7.6542    
  8.3146      9.1907      10.521      12.928      16.225      19.460      21.466      21.473      19.474      16.236    
  22.803      16.268      11.761      9.4949      8.3878      7.6232      7.2037      7.0747      7.2011      7.6238    
  8.3944      9.5017      11.759      16.255      22.786      29.848      35.313      37.371      35.319      29.861    
  42.075      29.849      19.512      12.834      9.7082      8.4246      7.6253      7.2536      7.2523      7.6241    
  8.4262      9.7091      12.827      19.498      29.838      42.076      53.108      59.665      59.659      53.098    
  71.119      53.030      35.271      21.507      13.255      9.7100      8.3940      7.6544      7.4202      7.6547    
  8.3945      9.7088      13.250      21.501      35.272      53.043      71.143      84.788      89.871      84.769    
  106.98      84.667      59.529      37.305      21.500      12.828      9.5018      8.3136      7.7361      7.7368    
  8.3145      9.5013      12.827      21.501      37.312      59.540      84.679      106.98      120.21      120.21    
  143.04      120.12      89.721      59.536      35.265      19.497      11.761      9.1910      8.2193      7.8964    
  8.2206      9.1907      11.759      19.499      35.272      59.541      89.714      120.10      143.02      151.60    
  170.25      151.56      120.12      84.685      53.041      29.836      16.257      10.523      8.8382      8.1419    
  8.1433      8.8397      10.521      16.255      29.838      53.044      84.679      120.10      151.53      170.24    
  170.79      161.15      135.40      101.26      67.284      39.778      21.630      12.471      9.3567      8.3211    
  7.9761      8.3220      9.3574      12.470      21.629      39.778      67.285      101.26      135.40      161.15    
  161.17      161.15      143.50      113.77      80.201      50.197      28.243      15.502      10.210      8.6373    
  7.9598      7.9585      8.6359      10.211      15.504      28.241      50.195      80.207      113.79      143.52    
  135.42      143.48      135.40      113.77      85.017      56.398      33.381      18.499      11.294      8.9257    
  7.9779      7.6608      7.9749      8.9247      11.296      18.500      33.376      56.393      85.022      113.78    
  101.25      113.71      113.71      101.26      80.201      56.398      35.319      20.366      12.245      9.1727    
  8.0208      7.4529      7.4522      8.0198      9.1733      12.246      20.365      35.312      56.387      80.190    
  67.264      80.115      84.910      80.132      67.285      50.196      33.381      20.367      12.625      9.3384    
  8.0656      7.3329      7.1009      7.3339      8.0661      9.3387      12.628      20.372      33.382      50.184    
  39.776      50.146      56.305      56.311      50.156      39.778      28.243      18.500      12.245      9.3382    
  8.0848      7.2814      6.9075      6.9087      7.2825      8.0830      9.3371      12.251      18.514      28.253    
  21.644      28.268      33.382      35.302      33.376      28.256      21.630      15.502      11.294      9.1721    
  8.0657      7.2815      6.8466      6.7143      6.8482      7.2806      8.0604      9.1671      11.296      15.514    
  12.469      15.566      18.594      20.459      20.453      18.579      15.556      12.471      10.211      8.9250    
  8.0208      7.3332      6.9072      6.7143      6.7153      6.9090      7.3326      8.0146      8.9135      10.200    
  9.3398      10.267      11.416      12.405      12.793      12.400      11.416      10.278      9.3570      8.6370    
  7.9775      7.4535      7.1008      6.9085      6.8487      6.9091      7.1045      7.4587      7.9770      8.6256    
  8.3211      8.6939      9.0428      9.3436      9.5406      9.5425      9.3502      9.0540      8.7037      8.3214    
  7.9594      7.6612      7.4525      7.3335      7.2828      7.2808      7.3319      7.4585      7.6742      7.9699    
  7.9916      8.0380      8.1098      8.2002      8.2824      8.3184      8.2879      8.2055      8.1081      8.0271    
  7.9761      7.9585      7.9754      8.0194      8.0657      8.0833      8.0599      8.0142      7.9779      7.9702    
  8.3202      8.0377      7.8086      7.6517      7.5690      7.5411      7.5427      7.5697      7.6450      7.7957    
  8.0281      8.3214      8.6361      8.9246      9.1727      9.3389      9.3375      9.1670      8.9141      8.6260    
  9.3392      8.6934      8.1106      7.6519      7.3465      7.1838      7.1352      7.1837      7.3430      7.6459    
  8.1101      8.7046      9.3571      10.212      11.296      12.246      12.629      12.251      11.296      10.200    
  12.469      10.267      9.0434      8.2005      7.5683      7.1838      7.0120      7.0112      7.1825      7.5694    
  8.2067      9.0543      10.277      12.471      15.504      18.500      20.365      20.372      18.513      15.513    
  21.645      15.567      11.416      9.3434      8.2819      7.5411      7.1357      7.0110      7.1332      7.5415    
  8.2879      9.3496      11.414      15.555      21.630      28.241      33.376      35.312      33.381      28.254    
  39.777      28.267      18.593      12.404      9.5410      8.3186      7.5430      7.1834      7.1822      7.5418    
  8.3201      9.5419      12.398      18.580      28.257      39.778      50.194      56.393      56.387      50.185    
  67.263      50.145      33.381      20.460      12.794      9.5426      8.2876      7.5696      7.3429      7.5699    
  8.2880      9.5416      12.789      20.454      33.382      50.158      67.285      80.208      85.023      80.191    
  101.25      80.115      56.306      35.303      20.453      12.399      9.3496      8.2058      7.6453      7.6460    
  8.2067      9.3491      12.398      20.454      35.309      56.316      80.126      101.26      113.79      113.78    
  135.42      113.71      84.910      56.311      33.376      18.579      11.416      9.0546      8.1086      7.7953    
  8.1098      9.0543      11.414      18.580      33.382      56.316      84.904      113.69      135.40      143.52    
  161.17      143.49      113.71      80.132      50.155      28.255      15.557      10.278      8.7038      8.0265    
  8.0277      8.7052      10.277      15.555      28.257      50.158      80.126      113.69      143.46      161.15    
  144.91      136.74      114.88      85.816      56.893      33.637      18.597      11.303      8.9061      7.9613    
  7.6474      7.9622      8.9067      11.303      18.596      33.637      56.893      85.817      114.88      136.74    
  136.75      136.74      121.75      96.453      67.852      42.375      23.986      13.635      9.5426      8.2297    
  7.6119      7.6108      8.2285      9.5438      13.637      23.986      42.373      67.856      96.468      121.77    
  114.89      121.75      114.88      96.453      71.943      47.600      28.223      15.994      10.329      8.4780    
  7.6114      7.3261      7.6088      8.4770      10.331      15.995      28.219      47.596      71.946      96.466    
  85.812      96.442      96.444      85.818      67.852      47.600      29.829      17.482      11.029      8.6704    
  7.6375      7.1280      7.1273      7.6366      8.6707      11.030      17.481      29.823      47.591      67.843    
  56.877      67.839      71.933      67.852      56.893      42.373      28.223      17.482      11.313      8.7875    
  7.6697      7.0130      6.8075      7.0140      7.6701      8.7874      11.314      17.486      28.223      42.365    
  33.636      42.404      47.639      47.643      42.412      33.636      23.986      15.995      11.029      8.7873    
  7.6842      6.9632      6.6326      6.6337      6.9643      7.6829      8.7864      11.034      16.006      23.995    
  18.608      24.080      28.354      29.968      28.350      24.071      18.597      13.636      10.329      8.6698    
  7.6698      6.9633      6.5777      6.4612      6.5791      6.9627      7.6659      8.6662      10.331      13.645    
  11.301      13.756      16.199      17.722      17.717      16.189      13.748      11.303      9.5429      8.4774    
  7.6374      7.0132      6.6323      6.4612      6.4619      6.6336      7.0128      7.6327      8.4686      9.5346    
  8.8929      9.6486      10.545      11.318      11.623      11.314      10.545      9.6575      8.9063      8.2294    
  7.6111      7.1285      6.8074      6.6335      6.5795      6.6337      6.8099      7.1324      7.6107      8.2204    
  7.9613      8.3296      8.6781      8.9546      9.1197      9.1210      8.9594      8.6866      8.3371      7.9616    
  7.6116      7.3265      7.1276      7.0136      6.9646      6.9630      7.0121      7.1322      7.3365      7.6197    
  7.6594      7.7255      7.8154      7.9182      8.0059      8.0426      8.0100      7.9221      7.8139      7.7171    
  7.6474      7.6108      7.6093      7.6362      7.6698      7.6832      7.6655      7.6324      7.6114      7.6200    
  7.9605      7.7253      7.5398      7.4177      7.3573      7.3392      7.3406      7.3580      7.4126      7.5299    
  7.7179      7.9616      8.2286      8.4770      8.6701      8.7876      8.7867      8.6661      8.4691      8.2208    
  8.8923      8.3292      7.8161      7.4179      7.1563      7.0187      6.9780      7.0190      7.1540      7.4134    
  7.8157      8.3380      8.9064      9.5441      10.331      11.030      11.315      11.034      10.330      9.5345    
  11.302      9.6488      8.6787      7.9184      7.3567      7.0186      6.8687      6.8682      7.0179      7.3576    
  7.9232      8.6869      9.6563      11.303      13.638      15.995      17.481      17.485      16.005      13.645    
  18.609      13.756      10.545      8.9544      8.0055      7.3392      6.9785      6.8681      6.9763      7.3393    
  8.0100      8.9591      10.543      13.746      18.597      23.986      28.219      29.823      28.223      23.995    
  33.636      24.080      16.199      11.317      9.1200      8.0428      7.3408      7.0187      7.0176      7.3395    
  8.0437      9.1208      11.313      16.189      24.071      33.636      42.372      47.596      47.592      42.365    
  56.876      42.403      28.354      17.723      11.623      9.1211      8.0097      7.3579      7.1539      7.3581    
  8.0101      9.1205      11.620      17.719      28.354      42.413      56.893      67.857      71.947      67.844    
  85.811      67.838      47.639      29.969      17.718      11.313      8.9589      7.9223      7.4129      7.4135    
  7.9232      8.9587      11.313      17.719      29.973      47.647      67.847      85.818      96.468      96.466    
  114.89      96.443      71.934      47.644      28.350      16.188      10.545      8.6871      7.8143      7.5294    
  7.8154      8.6869      10.543      16.189      28.354      47.647      71.929      96.430      114.88      121.77    
  136.75      121.76      96.445      67.851      42.411      24.071      13.748      9.6580      8.3373      7.7164    
  7.7175      8.3385      9.6567      13.746      24.071      42.413      67.847      96.429      121.74      136.74    
  110.21      103.98      87.267      65.023      42.987      25.583      14.778      9.9063      8.2843      7.4642    
  7.1983      7.4649      8.2848      9.9060      14.778      25.582      42.987      65.024      87.267      103.98    
  103.99      103.98      92.516      73.134      51.265      32.006      18.514      11.353      8.7165      7.6558    
  7.1310      7.1302      7.6548      8.7175      11.355      18.514      32.005      51.267      73.144      92.528    
  87.275      92.539      87.267      73.135      54.365      35.888      21.518      12.875      9.1643      7.8384    
  7.0986      6.8607      7.0965      7.8376      9.1660      12.876      21.516      35.885      54.367      73.143    
  65.021      73.185      73.186      65.025      51.265      35.887      22.669      13.858      9.5620      7.9799    
  7.0951      6.6718      6.6714      7.0943      7.9798      9.5623      13.857      22.665      35.882      51.259    
  42.977      51.350      54.487      51.358      42.987      32.005      21.518      13.858      9.7251      8.0565    
  7.1053      6.5597      6.3919      6.5606      7.1056      8.0560      9.7255      13.860      21.519      32.000    
  25.582      32.143      36.101      36.104      32.148      25.582      18.514      12.875      9.5620      8.0563    
  7.1114      6.5096      6.2396      6.2405      6.5108      7.1108      8.0556      9.5650      12.882      18.520    
  14.785      18.700      21.826      23.018      21.823      18.695      14.778      11.354      9.1644      7.9794    
  7.1054      6.5097      6.1918      6.0967      6.1929      6.5096      7.1032      7.9775      9.1660      11.360    
  9.9050      11.552      13.234      14.302      14.299      13.228      11.548      9.9063      8.7168      7.8379    
  7.0950      6.5599      6.2394      6.0967      6.0970      6.2400      6.5595      7.0923      7.8325      8.7114    
  8.2757      8.8959      9.5184      10.037      10.241      10.034      9.5183      8.9017      8.2845      7.6555    
  7.0984      6.6723      6.3918      6.2404      6.1933      6.2401      6.3929      6.6744      7.0980      7.6497    
  7.4642      7.8235      8.1679      8.4406      8.5909      8.5916      8.4432      8.1730      7.8281      7.4644    
  7.1308      6.8611      6.6716      6.5602      6.5110      6.5098      6.5590      6.6743      6.8674      7.1359    
  7.2060      7.3033      7.4210      7.5431      7.6399      7.6781      7.6422      7.5452      7.4199      7.2979    
  7.1983      7.1302      7.0969      7.0940      7.1054      7.1110      7.1029      7.0920      7.0986      7.1362    
  7.4636      7.3031      7.1862      7.1192      7.0950      7.0935      7.0945      7.0956      7.1161      7.1800    
  7.2985      7.4644      7.6549      7.8375      7.9793      8.0562      8.0559      7.9774      7.8329      7.6500    
  8.2752      7.8231      7.4216      7.1194      6.9279      6.8313      6.8039      6.8321      6.9270      7.1167    
  7.4213      7.8288      8.2845      8.7178      9.1658      9.5624      9.7261      9.5651      9.1657      8.7114    
  9.9053      8.8960      8.1684      7.5433      7.0945      6.8313      6.7171      6.7169      6.8311      7.0952    
  7.5462      8.1733      8.9007      9.9063      11.355      12.876      13.857      13.860      12.882      11.359    
  14.786      11.552      9.5181      8.4404      7.6395      7.0935      6.8043      6.7168      6.8025      7.0932    
  7.6422      8.4433      9.5169      11.546      14.778      18.514      21.516      22.665      21.518      18.520    
  25.582      18.700      13.234      10.037      8.5912      7.6783      7.0947      6.8318      6.8309      7.0934    
  7.6786      8.5918      10.034      13.227      18.695      25.582      32.005      35.885      35.882      32.001    
  42.977      32.143      21.826      14.303      10.242      8.5917      7.6419      7.0955      6.9269      7.0956    
  7.6423      8.5916      10.240      14.300      21.826      32.149      42.987      51.268      54.368      51.260    
  65.020      51.349      36.102      23.018      14.299      10.034      8.4428      7.5454      7.1163      7.1168    
  7.5461      8.4430      10.034      14.300      23.021      36.107      51.355      65.025      73.144      73.142    
  87.275      73.185      54.488      36.105      21.823      13.227      9.5181      8.1734      7.4202      7.1796    
  7.4210      8.1733      9.5170      13.227      21.826      36.107      54.485      73.177      87.267      92.527    
  103.99      92.541      73.186      51.357      32.148      18.695      11.548      8.9021      7.8282      7.2974    
  7.2982      7.8292      8.9010      11.546      18.695      32.149      51.355      73.176      92.528      103.98    
  74.997      70.708      59.213      43.998      29.171      17.895      11.385      8.7186      7.5950      6.9349    
  6.7266      6.9354      7.5954      8.7183      11.385      17.895      29.171      43.998      59.213      70.708    
  70.711      70.708      62.805      49.491      34.635      21.908      13.476      9.4048      7.8952      7.0326    
  6.6205      6.6200      7.0319      7.8960      9.4065      13.477      21.907      34.636      49.496      62.811    
  59.216      62.849      59.213      49.492      36.699      24.380      15.226      10.149      8.1295      7.1306    
  6.5462      6.3631      6.5447      7.1299      8.1307      10.150      15.225      24.379      36.699      49.495    
  43.997      49.601      49.601      43.998      34.635      24.380      15.909      10.648      8.2957      7.2082    
  6.5025      6.1775      6.1772      6.5019      7.2079      8.2956      10.647      15.907      24.377      34.632    
  29.166      34.814      36.948      34.818      29.171      21.907      15.226      10.648      8.3612      7.2505    
  6.4824      6.0617      5.9348      6.0625      6.4827      7.2498      8.3607      10.649      15.226      21.905    
  17.895      22.149      24.764      24.765      22.151      17.895      13.476      10.150      8.2957      7.2504    
  6.4771      6.0074      5.8014      5.8021      6.0084      6.4771      7.2499      8.2970      10.153      13.479    
  11.389      13.755      15.707      16.463      15.706      13.753      11.385      9.4052      8.1296      7.2078    
  6.4825      6.0074      5.7591      5.6853      5.7599      6.0077      6.4818      7.2073      8.1307      9.4082    
  8.7176      9.6847      10.666      11.299      11.297      10.663      9.6831      8.7186      7.8954      7.1302    
  6.5024      6.0619      5.8012      5.6853      5.6853      5.8013      6.0617      6.5013      7.1278      7.8927    
  7.5907      8.1545      8.6318      8.9695      9.0960      8.9681      8.6317      8.1575      7.5952      7.0324    
  6.5460      6.1778      5.9348      5.8020      5.7602      5.8013      5.9347      6.1786      6.5457      7.0295    
  6.9350      7.2768      7.6054      7.8667      8.0114      8.0115      7.8676      7.6075      7.2789      6.9350    
  6.6203      6.3634      6.1774      6.0622      6.0086      6.0078      6.0613      6.1784      6.3664      6.6229    
  6.7303      6.8616      7.0060      7.1438      7.2462      7.2848      7.2470      7.1444      7.0052      6.8590    
  6.7266      6.6199      6.5450      6.5017      6.4825      6.4772      6.4815      6.5011      6.5462      6.6230    
  6.9345      6.8614      6.8205      6.8115      6.8237      6.8383      6.8388      6.8242      6.8101      6.8176    
  6.8594      6.9351      7.0320      7.1299      7.2075      7.2500      7.2501      7.2072      7.1282      7.0298    
  7.5903      7.2765      7.0064      6.8116      6.6955      6.6416      6.6277      6.6426      6.6957      6.8105    
  7.0062      7.2793      7.5952      7.8962      8.1305      8.2956      8.3612      8.2970      8.1304      7.8927    
  8.7178      8.1546      7.6057      7.1440      6.8233      6.6416      6.5654      6.5655      6.6418      6.8238    
  7.1451      7.6078      8.1568      8.7186      9.4067      10.150      10.647      10.649      10.153      9.4080    
  11.389      9.6850      8.6316      7.8666      7.2460      6.8383      6.6280      6.5654      6.6268      6.8377    
  7.2470      7.8679      8.6307      9.6816      11.385      13.477      15.225      15.907      15.226      13.479    
  17.895      13.755      10.666      8.9693      8.0117      7.2849      6.8390      6.6424      6.6417      6.8378    
  7.2847      8.0120      8.9682      10.662      13.752      17.895      21.907      24.378      24.377      21.905    
  29.166      22.148      15.706      11.299      9.0965      8.0116      7.2468      6.8241      6.6956      6.8241    
  7.2471      8.0119      9.0961      11.298      15.706      22.151      29.171      34.637      36.699      34.633    
  43.996      34.814      24.764      16.463      11.298      8.9679      7.8672      7.1445      6.8103      6.8105    
  7.1451      7.8677      8.9682      11.298      16.465      24.767      34.817      43.998      49.496      49.495    
  59.216      49.601      36.948      24.766      15.705      10.663      8.6316      7.6078      7.0054      6.8173    
  7.0060      7.6078      8.6308      10.662      15.707      24.767      36.947      49.597      59.213      62.810    
  70.711      62.850      49.601      34.818      22.151      13.752      9.6832      8.1578      7.2790      6.8586    
  6.8592      7.2797      8.1570      9.6814      13.752      22.151      34.817      49.597      62.844      70.708    
  45.500      42.878      35.901      26.832      18.319      12.279      9.1483      7.8139      6.9491      6.4591    
  6.3082      6.4595      6.9493      7.8137      9.1479      12.279      18.319      26.832      35.901      42.878    
  42.879      42.878      38.056      30.035      21.332      14.268      10.002      8.1165      7.1154      6.4628    
  6.1638      6.1635      6.4624      7.1159      8.1178      10.003      14.268      21.332      30.036      38.058    
  35.902      38.115      35.901      30.035      22.488      15.536      10.757      8.3683      7.2443      6.4717    
  6.0447      5.9141      6.0438      6.4712      7.2451      8.3695      10.757      15.535      22.488      30.036    
  26.832      30.188      30.188      26.832      21.332      15.536      11.061      8.5338      7.3212      6.4794    
  5.9568      5.7243      5.7241      5.9564      6.4791      7.3209      8.5333      11.060      15.535      21.331    
  18.318      21.579      22.830      21.580      18.319      14.267      10.757      8.5339      7.3460      6.4834    
  5.9032      5.5980      5.5074      5.5986      5.9034      6.4827      7.3451      8.5336      10.757      14.267    
  12.279      14.585      16.044      16.044      14.585      12.279      10.002      8.3687      7.3212      6.4833    
  5.8853      5.5353      5.3842      5.3847      5.5361      5.8855      6.4830      7.3214      8.3699      10.003    
  9.1489      10.351      11.368      11.769      11.368      10.350      9.1481      8.1169      7.2444      6.4792    
  5.9033      5.5354      5.3444      5.2873      5.3448      5.5358      5.9034      6.4795      7.2451      8.1179    
  7.8132      8.4634      9.0113      9.3477      9.3474      9.0109      8.4635      7.8139      7.1155      6.4714    
  5.9567      5.5982      5.3841      5.2873      5.2871      5.3839      5.5981      5.9566      6.4710      7.1147    
  6.9477      7.4446      7.8748      8.1648      8.2664      8.1643      7.8747      7.4456      6.9492      6.4626    
  6.0446      5.7245      5.5074      5.3846      5.3450      5.3839      5.5068      5.7244      6.0444      6.4617    
  6.4593      6.7760      7.0768      7.3147      7.4462      7.4460      7.3144      7.0770      6.7764      6.4592    
  6.1637      5.9144      5.7243      5.5984      5.5362      5.5359      5.5978      5.7243      5.9151      6.1644    
  6.3093      6.4695      6.6314      6.7754      6.8765      6.9132      6.8764      6.7751      6.6310      6.4687    
  6.3082      6.1635      6.0440      5.9562      5.9033      5.8856      5.9033      5.9565      6.0447      6.1646    
  6.4589      6.4693      6.4953      6.5327      6.5710      6.5957      6.5960      6.5713      6.5325      6.4946    
  6.4689      6.4593      6.4624      6.4711      6.4788      6.4828      6.4832      6.4794      6.4712      6.4619    
  6.9474      6.7758      6.6318      6.5328      6.4788      6.4574      6.4530      6.4582      6.4795      6.5327    
  6.6316      6.7766      6.9492      7.1160      7.2450      7.3210      7.3454      7.3215      7.2449      7.1147    
  7.8134      7.4446      7.0771      6.7755      6.5707      6.4573      6.4110      6.4112      6.4577      6.5710    
  6.7756      7.0772      7.4451      7.8139      8.1180      8.3695      8.5334      8.5335      8.3695      8.1177    
  9.1493      8.4636      7.8746      7.3146      6.8764      6.5957      6.4531      6.4111      6.4524      6.5951    
  6.8764      7.3148      7.8741      8.4623      9.1481      10.003      10.757      11.060      10.757      10.003    
  12.280      10.351      9.0110      8.1646      7.4463      6.9132      6.5961      6.4581      6.4577      6.5952    
  6.9129      7.4465      8.1646      9.0101      10.350      12.279      14.267      15.535      15.535      14.267    
  18.318      14.585      11.367      9.3478      8.2667      7.4460      6.8763      6.5712      6.4795      6.5712    
  6.8765      7.4464      8.2671      9.3479      11.367      14.585      18.319      21.332      22.488      21.331    
  26.831      21.579      16.044      11.769      9.3476      8.1641      7.3142      6.7752      6.5326      6.5327    
  6.7756      7.3147      8.1645      9.3480      11.769      16.045      21.580      26.832      30.036      30.036    
  35.902      30.188      22.830      16.045      11.367      9.0106      7.8746      7.0773      6.6312      6.4944    
  6.6314      7.0773      7.8742      9.0101      11.368      16.045      22.830      30.187      35.901      38.057    
  42.879      38.116      30.188      21.580      14.585      10.350      8.4636      7.4458      6.7764      6.4684    
  6.4688      6.7769      7.4452      8.4622      10.349      14.585      21.580      30.187      38.114      42.878    
  24.917      23.565      20.024      15.594      11.712      9.2250      7.9459      7.0504      6.4268      6.0897    
  5.9875      6.0899      6.4270      7.0503      7.9457      9.2249      11.713      15.595      20.024      23.565    
  23.565      23.564      21.089      17.083      12.963      9.8994      8.2052      7.2126      6.4672      6.0105    
  5.8075      5.8073      6.0103      6.4674      7.2134      8.2059      9.8995      12.962      17.083      21.089    
  20.024      21.155      20.024      17.083      13.457      10.352      8.4055      7.3180      6.4947      5.9407    