    2    2    1    1
  0.1073326E+02  0.2423200E-09  0.2423200E-09  0.4221360E-09  0.5000000E-15
  1.000000000000000E-004
  CAR 
 unknown system                          
     16     96     40
 
  0.0000000E+00  0.0000000E+00  0.0000000E+00  0.7513148E-03
    1       -2.279231   1.000000
    2        1.605602   1.000000
    3        4.343745   1.000000
    4        4.858883   1.000000
    5        4.859055   1.000000
    6        5.154232   1.000000
    7        5.154410   1.000000
    8        5.779183   1.000567
    9        5.972704   1.019160
   10        5.972745   1.019169
   11        6.993218  -0.000008
   12        6.993262  -0.000008
   13       13.257864   0.000000
   14       29.126664   0.000000
   15       29.566091   0.000000
   16       32.030297   0.000000
   17       33.628603   0.000000
   18       33.628663   0.000000
   19       34.492759   0.000000
   20       34.492998   0.000000
   21       35.763535   0.000000
   22       37.662914   0.000000
   23       37.662946   0.000000
   24       38.688085   0.000000
   25       40.983573   0.000000
   26       40.983586   0.000000
   27       41.532951   0.000000
   28       44.267256   0.000000
   29       44.267654   0.000000
   30       45.947016   0.000000
   31       45.947184   0.000000
   32       48.484999   0.000000
   33       56.401211   0.000000
   34       60.141682   0.000000
   35       60.142962   0.000000
   36       60.866850   0.000000
   37       61.410265   0.000000
   38       61.902749   0.000000
   39       61.922478   0.000000
   40       62.256333   0.000000
 
  0.9090909E-01 -0.7876591E-17  0.0000000E+00  0.4507889E-02
    1       -1.964977   1.000000
    2        1.835484   1.000000
    3        4.330717   1.000000
    4        4.826181   1.000000
    5        4.941490   1.000000
    6        5.035361   1.000000
    7        5.054692   1.000000
    8        5.316989   1.000000
    9        5.849963   1.002702
   10        5.870838   1.004045
   11        7.025165  -0.000003
   12        8.092520  -0.000000
   13       13.285916   0.000000
   14       27.675849   0.000000
   15       29.883831   0.000000
   16       30.163854   0.000000
   17       30.993887   0.000000
   18       33.601275   0.000000
   19       33.795567   0.000000
   20       35.578805   0.000000
   21       37.036770   0.000000
   22       37.346461   0.000000
   23       37.724610   0.000000
   24       38.047747   0.000000
   25       41.698086   0.000000
   26       41.940543   0.000000
   27       42.182594   0.000000
   28       42.637576   0.000000
   29       45.849357   0.000000
   30       47.335502   0.000000
   31       48.453031   0.000000
   32       50.497139   0.000000
   33       56.045229   0.000000
   34       58.472019   0.000000
   35       58.708941   0.000000
   36       59.186587   0.000000
   37       60.243247   0.000000
   38       62.120836   0.000000
   39       63.186771   0.000000
   40       63.898874   0.000000
 
  0.1818182E+00 -0.3829387E-17  0.0000000E+00  0.4507889E-02
    1       -1.070558   1.000000
    2        2.383995   1.000000
    3        3.941583   1.000000
    4        4.123084   1.000000
    5        4.675269   1.000000
    6        5.190016   1.000000
    7        5.525714   1.000000
    8        5.543952   1.000000
    9        5.629712   1.000008
   10        5.767102   1.000422
   11        7.082377  -0.000000
   12        9.841055  -0.000000
   13       13.397142   0.000000
   14       23.838710   0.000000
   15       28.285061   0.000000
   16       28.960557   0.000000
   17       29.506134   0.000000
   18       30.783223   0.000000
   19       33.912943   0.000000
   20       35.152388   0.000000
   21       35.500796   0.000000
   22       36.126087   0.000000
   23       38.306241   0.000000
   24       39.204009   0.000000
   25       41.655308   0.000000
   26       43.111509   0.000000
   27       44.777780   0.000000
   28       46.893217   0.000000
   29       48.314183   0.000000
   30       51.175233   0.000000
   31       51.382490   0.000000
   32       54.003819   0.000000
   33       54.756864   0.000000
   34       55.239032   0.000000
   35       56.972647   0.000000
   36       58.754984   0.000000
   37       59.646395   0.000000
   38       61.944197   0.000000
   39       64.603254   0.000000
   40       64.941391   0.000000
 
  0.2727273E+00  0.2171810E-17  0.0000000E+00  0.4507889E-02
    1        0.221956   1.000000
    2        2.688855   1.000000
    3        3.180244   1.000000
    4        4.044975   1.000000
    5        4.508917   1.000000
    6        5.154897   1.000000
    7        5.353854   1.000000
    8        5.862012   1.003422
    9        6.221043   0.838017
   10        6.396923   0.167627
   11        7.115069  -0.000000
   12       11.823829   0.000000
   13       13.644258   0.000000
   14       19.926434   0.000000
   15       25.928156   0.000000
   16       25.976367   0.000000
   17       27.274777   0.000000
   18       30.590504   0.000000
   19       31.914690   0.000000
   20       35.434700   0.000000
   21       35.451914   0.000000
   22       35.958387   0.000000
   23       35.971299   0.000000
   24       39.802861   0.000000
   25       45.255478   0.000000
   26       46.943527   0.000000
   27       48.150569   0.000000
   28       49.355904   0.000000
   29       50.520405   0.000000
   30       51.479520   0.000000
   31       52.977211   0.000000
   32       53.936521   0.000000
   33       56.700272   0.000000
   34       56.889911   0.000000
   35       57.475348   0.000000
   36       58.615025   0.000000
   37       61.189270   0.000000
   38       61.618250   0.000000
   39       64.084570   0.000000
   40       65.334769   0.000000
 
  0.3636364E+00 -0.1958257E-16  0.0000000E+00  0.4507889E-02
    1        1.449078   1.000000
    2        2.471314   1.000000
    3        2.681802   1.000000
    4        4.193231   1.000000
    5        4.806364   1.000000
    6        4.833839   1.000000
    7        5.123347   1.000000
    8        6.916815  -0.000077
    9        6.961199  -0.000021
   10        7.025575  -0.000003
   11        7.124782  -0.000000
   12       13.586146   0.000000
   13       13.961725   0.000000
   14       17.111285   0.000000
   15       22.711243   0.000000
   16       24.220115   0.000000
   17       24.432187   0.000000
   18       29.698479   0.000000
   19       30.868273   0.000000
   20       34.024173   0.000000
   21       34.981825   0.000000
   22       36.743902   0.000000
   23       37.448771   0.000000
   24       40.212950   0.000000
   25       47.287269   0.000000
   26       48.288924   0.000000
   27       48.838148   0.000000
   28       52.000653   0.000000
   29       52.115315   0.000000
   30       52.916348   0.000000
   31       55.125934   0.000000
   32       55.835644   0.000000
   33       56.265752   0.000000
   34       58.234796   0.000000
   35       60.090486   0.000000
   36       61.256334   0.000000
   37       61.860635   0.000000
   38       62.829026   0.000000
   39       64.563232   0.000000
   40       64.980884   0.000000
 
  0.4545455E+00 -0.2941315E-16  0.0000000E+00  0.4507889E-02
    1        2.024232   1.000000
    2        2.229551   1.000000
    3        2.437943   1.000000
    4        4.604844   1.000000
    5        4.659521   1.000000
    6        4.994905   1.000000
    7        5.054248   1.000000
    8        7.122865  -0.000000
    9        7.341606  -0.000000
   10        7.452244  -0.000000
   11        8.504608  -0.000000
   12       11.748567  -0.000000
   13       16.003247   0.000000
   14       17.164815   0.000000
   15       20.157365   0.000000
   16       21.787597   0.000000
   17       23.244730   0.000000
   18       29.097368   0.000000
   19       30.537950   0.000000
   20       32.963581   0.000000
   21       34.774802   0.000000
   22       37.511167   0.000000
   23       39.744388   0.000000
   24       40.218469   0.000000
   25       43.971569   0.000000
   26       48.562064   0.000000
   27       50.495121   0.000000
   28       54.463332   0.000000
   29       54.842952   0.000000
   30       55.162923   0.000000
   31       56.220233   0.000000
   32       58.085372   0.000000
   33       58.577131   0.000000
   34       59.720566   0.000000
   35       60.156195   0.000000
   36       60.374856   0.000000
   37       63.298841   0.000000
   38       63.481180   0.000000
   39       63.891322   0.000000
   40       64.446257   0.000000
 
  0.9090909E-01  0.9090909E-01  0.0000000E+00  0.4507889E-02
    1       -1.358540   1.000000
    2        2.239977   1.000000
    3        4.166373   1.000000
    4        4.201878   1.000000
    5        4.860829   1.000000
    6        4.917607   1.000000
    7        5.393258   1.000000
    8        5.497717   1.000000
    9        5.666028   1.000026
   10        5.846414   1.002517
   11        7.042292  -0.000001
   12        9.353308  -0.000000
   13       13.359251   0.000000
   14       25.611404   0.000000
   15       26.687657   0.000000
   16       30.292915   0.000000
   17       31.139306   0.000000
   18       32.228030   0.000000
   19       32.599646   0.000000
   20       34.048258   0.000000
   21       35.142162   0.000000
   22       38.807932   0.000000
   23       39.567859   0.000000
   24       39.890668   0.000000
   25       41.103840   0.000000
   26       41.148352   0.000000
   27       41.276652   0.000000
   28       47.490329   0.000000
   29       49.236975   0.000000
   30       49.328538   0.000000
   31       49.355086   0.000000
   32       53.502029   0.000000
   33       55.331638   0.000000
   34       56.147140   0.000000
   35       56.936011   0.000000
   36       58.628369   0.000000
   37       59.509976   0.000000
   38       62.615854   0.000000
   39       64.452388   0.000000
   40       65.000551   0.000000
 
  0.1818182E+00  0.9090909E-01  0.0000000E+00  0.9015778E-02
    1       -0.245185   1.000000
    2        2.771174   1.000000
    3        3.454800   1.000000
    4        3.866985   1.000000
    5        4.599600   1.000000
    6        5.114336   1.000000
    7        5.309643   1.000000
    8        5.621453   1.000006
    9        6.032869   1.032299
   10        6.313136   0.486360
   11        7.048669  -0.000001
   12       11.123086  -0.000000
   13       13.578054   0.000000
   14       21.930074   0.000000
   15       24.420647   0.000000
   16       27.736495   0.000000
   17       29.907998   0.000000
   18       29.956790   0.000000
   19       32.959618   0.000000
   20       33.557021   0.000000
   21       34.124450   0.000000
   22       38.436556   0.000000
   23       38.936491   0.000000
   24       39.527311   0.000000
   25       42.733105   0.000000
   26       43.851346   0.000000
   27       45.598797   0.000000
   28       49.424610   0.000000
   29       51.785742   0.000000
   30       52.256069   0.000000
   31       52.314824   0.000000
   32       54.451190   0.000000
   33       55.426017   0.000000
   34       55.779876   0.000000
   35       56.878384   0.000000
   36       57.060060   0.000000
   37       60.393530   0.000000
   38       62.845388   0.000000
   39       64.580911   0.000000
   40       65.419623   0.000000
 
  0.2727273E+00  0.9090909E-01  0.0000000E+00  0.9015778E-02
    1        1.089903   1.000000
    2        2.764790   1.000000
    3        2.902322   1.000000
    4        3.906031   1.000000
    5        4.646793   1.000000
    6        4.803696   1.000000
    7        5.291426   1.000000
    8        5.994808   1.024199
    9        6.733097  -0.005400
   10        7.046308  -0.000001
   11        7.156123  -0.000000
   12       13.155277   0.000000
   13       13.936668   0.000000
   14       18.324109   0.000000
   15       22.778932   0.000000
   16       24.403042   0.000000
   17       26.643582   0.000000
   18       28.733742   0.000000
   19       32.094215   0.000000
   20       33.193313   0.000000
   21       35.021024   0.000000
   22       38.207014   0.000000
   23       38.451544   0.000000
   24       41.006784   0.000000
   25       44.582146   0.000000
   26       47.481829   0.000000
   27       48.858694   0.000000
   28       49.355888   0.000000
   29       50.542916   0.000000
   30       53.025874   0.000000
   31       54.644425   0.000000
   32       55.478232   0.000000
   33       56.485777   0.000000
   34       57.455163   0.000000
   35       59.296309   0.000000
   36       61.359388   0.000000
   37       61.794934   0.000000
   38       62.664542   0.000000
   39       63.384295   0.000000
   40       65.486465   0.000000
 
  0.3636364E+00  0.9090909E-01  0.0000000E+00  0.9015778E-02
    1        2.019566   1.000000
    2        2.480874   1.000000
    3        2.576299   1.000000
    4        4.245595   1.000000
    5        4.621964   1.000000
    6        4.973240   1.000000
    7        4.998133   1.000000
    8        6.814396  -0.001047
    9        7.037102  -0.000002
   10        7.220616  -0.000000
   11        8.255348  -0.000000
   12       13.119836   0.000000
   13       15.317158   0.000000
   14       16.936713   0.000000
   15       21.472098   0.000000
   16       21.519315   0.000000
   17       23.489037   0.000000
   18       27.888339   0.000000
   19       31.149930   0.000000
   20       32.682723   0.000000
   21       36.065250   0.000000
   22       38.682579   0.000000
   23       39.504381   0.000000
   24       40.784274   0.000000
   25       45.893799   0.000000
   26       47.334107   0.000000
   27       49.173309   0.000000
   28       51.098957   0.000000
   29       52.219080   0.000000
   30       54.792735   0.000000
   31       55.419370   0.000000
   32       57.284712   0.000000
   33       58.548781   0.000000
   34       60.203900   0.000000
   35       60.763119   0.000000
   36       61.641337   0.000000
   37       62.381353   0.000000
   38       63.207163   0.000000
   39       64.386539   0.000000
   40       64.729787   0.000000
 
  0.4545455E+00  0.9090909E-01  0.0000000E+00  0.4507889E-02
    1        2.266947   1.000000
    2        2.336689   1.000000
    3        2.469746   1.000000
    4        4.571151   1.000000
    5        4.577956   1.000000
    6        4.874539   1.000000
    7        5.082146   1.000000
    8        7.031552  -0.000002
    9        7.278755  -0.000000
   10        7.296672  -0.000000
   11        9.422769  -0.000000
   12       11.428277  -0.000000
   13       16.798000   0.000000
   14       17.617377   0.000000
   15       19.740288   0.000000
   16       20.697293   0.000000
   17       22.088206   0.000000
   18       27.591708   0.000000
   19       30.770441   0.000000
   20       32.523995   0.000000
   21       36.221469   0.000000
   22       39.607859   0.000000
   23       39.731669   0.000000
   24       41.325956   0.000000
   25       43.554347   0.000000
   26       48.802612   0.000000
   27       49.187747   0.000000
   28       52.060377   0.000000
   29       54.132698   0.000000
   30       54.578847   0.000000
   31       57.656581   0.000000
   32       58.232146   0.000000
   33       58.868610   0.000000
   34       59.041351   0.000000
   35       59.912190   0.000000
   36       62.100088   0.000000
   37       64.100657   0.000000
   38       64.175104   0.000000
   39       64.607979   0.000000
   40       65.807498   0.000000
 
  0.1818182E+00  0.1818182E+00  0.0000000E+00  0.4507889E-02
    1        0.970481   1.000000
    2        3.033107   1.000000
    3        3.192551   1.000000
    4        3.458523   1.000000
    5        4.645482   1.000000
    6        4.718973   1.000000
    7        5.424418   1.000000
    8        5.536143   1.000000
    9        6.710716  -0.007891
   10        6.961314  -0.000021
   11        7.213846  -0.000000
   12       12.897160   0.000000
   13       14.058693   0.000000
   14       20.041820   0.000000
   15       20.688950   0.000000
   16       25.987082   0.000000
   17       27.123254   0.000000
   18       28.879058   0.000000
   19       29.548107   0.000000
   20       34.694545   0.000000
   21       35.949606   0.000000
   22       39.411272   0.000000
   23       39.471890   0.000000
   24       42.220341   0.000000
   25       42.892632   0.000000
   26       44.791597   0.000000
   27       46.075255   0.000000
   28       50.847316   0.000000
   29       51.310079   0.000000
   30       52.890886   0.000000
   31       53.045680   0.000000
   32       56.130412   0.000000
   33       56.392461   0.000000
   34       58.788416   0.000000
   35       59.162693   0.000000
   36       60.001789   0.000000
   37       60.212258   0.000000
   38       63.765686   0.000000
   39       63.914043   0.000000
   40       66.071870   0.000000
 
  0.2727273E+00  0.1818182E+00  0.0000000E+00  0.9015778E-02
    1        2.173104   1.000000
    2        2.764130   1.000000
    3        2.974463   1.000000
    4        3.603074   1.000000
    5        4.494600   1.000000
    6        4.895832   1.000000
    7        5.071930   1.000000
    8        6.043825   1.033973
    9        6.887279  -0.000173
   10        7.169142  -0.000000
   11        8.375653  -0.000000
   12       14.569356   0.000000
   13       14.978713   0.000000
   14       17.229792   0.000000
   15       19.174037   0.000000
   16       23.327114   0.000000
   17       25.490782   0.000000
   18       25.647947   0.000000
   19       28.236823   0.000000
   20       36.393844   0.000000
   21       36.738657   0.000000
   22       39.548791   0.000000
   23       41.816539   0.000000
   24       42.632059   0.000000
   25       44.072694   0.000000
   26       46.015497   0.000000
   27       47.250115   0.000000
   28       48.585489   0.000000
   29       51.792951   0.000000
   30       52.182423   0.000000
   31       54.474689   0.000000
   32       57.401210   0.000000
   33       58.761046   0.000000
   34       59.846762   0.000000
   35       61.951790   0.000000
   36       62.201888   0.000000
   37       62.936817   0.000000
   38       63.986581   0.000000
   39       64.712537   0.000000
   40       66.093528   0.000000
 
  0.3636364E+00  0.1818182E+00  0.0000000E+00  0.9015778E-02
    1        2.642847   1.000000
    2        2.674239   1.000000
    3        2.756474   1.000000
    4        4.022074   1.000000
    5        4.489025   1.000000
    6        4.722246   1.000000
    7        5.141346   1.000000
    8        6.672114  -0.014012
    9        6.844422  -0.000518
   10        7.189770  -0.000000
   11        9.883690  -0.000000
   12       12.772606   0.000000
   13       17.126522   0.000000
   14       17.570097   0.000000
   15       18.415548   0.000000
   16       20.713044   0.000000
   17       22.631103   0.000000
   18       25.088351   0.000000
   19       27.604379   0.000000
   20       36.270634   0.000000
   21       38.534952   0.000000
   22       40.102044   0.000000
   23       41.701139   0.000000
   24       42.424589   0.000000
   25       45.820943   0.000000
   26       46.360373   0.000000
   27       48.339032   0.000000
   28       48.477965   0.000000
   29       51.879586   0.000000
   30       53.396742   0.000000
   31       53.824021   0.000000
   32       57.572522   0.000000
   33       57.904509   0.000000
   34       59.413136   0.000000
   35       62.862218   0.000000
   36       63.904111   0.000000
   37       64.756596   0.000000
   38       64.865742   0.000000
   39       65.088816   0.000000
   40       65.653183   0.000000
 
  0.2727273E+00  0.2727273E+00  0.0000000E+00  0.4507889E-02
    1        2.761688   1.000000
    2        2.977077   1.000000
    3        3.298911   1.000000
    4        3.343139   1.000000
    5        4.353288   1.000000
    6        4.726471   1.000000
    7        5.182054   1.000000
    8        6.287091   0.595872
    9        6.746998  -0.004198
   10        7.161970  -0.000000
   11        9.992744  -0.000000
   12       14.814969   0.000000
   13       15.348631   0.000000
   14       17.147673   0.000000
   15       18.201701   0.000000
   16       22.613401   0.000000
   17       22.733706   0.000000
   18       24.293438   0.000000
   19       25.148142   0.000000
   20       38.331116   0.000000
   21       39.179491   0.000000
   22       41.984453   0.000000
   23       42.860263   0.000000
   24       44.117248   0.000000
   25       44.152282   0.000000
   26       44.631934   0.000000
   27       46.808540   0.000000
   28       49.223480   0.000000
   29       49.499761   0.000000
   30       53.021487   0.000000
   31       53.479837   0.000000
   32       55.757082   0.000000
   33       57.727916   0.000000
   34       59.650042   0.000000
   35       63.040028   0.000000
   36       64.228409   0.000000
   37       64.479922   0.000000
   38       65.865198   0.000000
   39       65.874150   0.000000
   40       66.037882   0.000000
 
  0.3636364E+00  0.2727273E+00  0.0000000E+00  0.4507889E-02
    1        2.788162   1.000000
    2        3.162167   1.000000
    3        3.166454   1.000000
    4        3.635629   1.000000
    5        4.412568   1.000000
    6        4.462651   1.000000
    7        5.318123   1.000000
    8        6.618738  -0.025649
    9        6.694629  -0.010153
   10        6.889842  -0.000162
   11       11.707392  -0.000000
   12       12.861227   0.000000
   13       14.971846   0.000000
   14       19.037252   0.000000
   15       19.189999   0.000000
   16       20.504446   0.000000
   17       22.496477   0.000000
   18       22.670700   0.000000
   19       24.558197   0.000000
   20       38.778363   0.000000
   21       41.378143   0.000000
   22       42.255496   0.000000
   23       42.523171   0.000000
   24       43.395176   0.000000
   25       45.077528   0.000000
   26       45.416931   0.000000
   27       48.285631   0.000000
   28       48.346393   0.000000
   29       48.734107   0.000000
   30       52.249911   0.000000
   31       53.753852   0.000000
   32       54.087520   0.000000
   33       57.490462   0.000000
   34       58.192997   0.000000
   35       64.273073   0.000000
   36       64.732679   0.000000
   37       65.761015   0.000000
   38       65.871328   0.000000
   39       66.137798   0.000000
   40       66.271370   0.000000
 
  0.0000000E+00  0.0000000E+00  0.9090909E-01  0.1502630E-02
    1       -2.201790   1.000000
    2        1.569989   1.000000
    3        4.323050   1.000000
    4        4.849381   1.000000
    5        4.849550   1.000000
    6        5.137448   1.000000
    7        5.137624   1.000000
    8        5.559401   1.000001
    9        6.009903   1.027649
   10        6.009946   1.027659
   11        6.984880  -0.000010
   12        6.984924  -0.000010
   13       13.642031   0.000000
   14       28.624746   0.000000
   15       29.433501   0.000000
   16       31.868126   0.000000
   17       33.685828   0.000000
   18       33.685882   0.000000
   19       34.509715   0.000000
   20       34.509947   0.000000
   21       36.300435   0.000000
   22       37.552373   0.000000
   23       37.552393   0.000000
   24       38.923085   0.000000
   25       40.602686   0.000000
   26       40.602702   0.000000
   27       41.772703   0.000000
   28       44.542132   0.000000
   29       44.542508   0.000000
   30       46.416423   0.000000
   31       46.416571   0.000000
   32       48.407534   0.000000
   33       55.893396   0.000000
   34       59.789404   0.000000
   35       59.790547   0.000000
   36       59.902668   0.000000
   37       59.903019   0.000000
   38       60.874944   0.000000
   39       61.986090   0.000000
   40       62.720095   0.000000
 
  0.9090909E-01 -0.7876591E-17  0.9090909E-01  0.9015778E-02
    1       -1.889119   1.000000
    2        1.804262   1.000000
    3        4.323021   1.000000
    4        4.774544   1.000000
    5        4.792806   1.000000
    6        5.022391   1.000000
    7        5.102300   1.000000
    8        5.298247   1.000000
    9        5.893337   1.006061
   10        5.915588   1.008753
   11        7.015175  -0.000004
   12        7.932407  -0.000000
   13       13.705550   0.000000
   14       27.676873   0.000000
   15       29.180119   0.000000
   16       30.202719   0.000000
   17       31.064621   0.000000
   18       32.956488   0.000000
   19       34.309002   0.000000
   20       35.944252   0.000000
   21       36.678339   0.000000
   22       37.453971   0.000000
   23       37.765658   0.000000
   24       38.366275   0.000000
   25       41.706113   0.000000
   26       41.711733   0.000000
   27       42.587041   0.000000
   28       42.974691   0.000000
   29       45.661214   0.000000
   30       47.655697   0.000000
   31       48.794460   0.000000
   32       50.509291   0.000000
   33       54.923582   0.000000
   34       57.948894   0.000000
   35       58.526524   0.000000
   36       59.470150   0.000000
   37       60.448188   0.000000
   38       61.483404   0.000000
   39       62.729351   0.000000
   40       63.283590   0.000000
 
  0.1818182E+00 -0.3829387E-17  0.9090909E-01  0.9015778E-02
    1       -1.001094   1.000000
    2        2.366959   1.000000
    3        3.862646   1.000000
    4        4.139558   1.000000
    5        4.646726   1.000000
    6        5.111982   1.000000
    7        5.463231   1.000000
    8        5.656135   1.000019
    9        5.679836   1.000039
   10        5.794266   1.000811
   11        7.063619  -0.000001
   12        9.485201  -0.000000
   13       13.942352   0.000000
   14       23.900232   0.000000
   15       28.371368   0.000000
   16       28.480372   0.000000
   17       29.781249   0.000000
   18       30.134245   0.000000
   19       33.723281   0.000000
   20       35.208931   0.000000
   21       35.551526   0.000000
   22       36.075386   0.000000
   23       38.765238   0.000000
   24       39.845517   0.000000
   25       41.905021   0.000000
   26       43.091379   0.000000
   27       44.550068   0.000000
   28       46.909569   0.000000
   29       48.234269   0.000000
   30       51.154012   0.000000
   31       51.716097   0.000000
   32       52.958302   0.000000
   33       53.966183   0.000000
   34       56.243230   0.000000
   35       56.828194   0.000000
   36       58.457370   0.000000
   37       60.097829   0.000000
   38       62.160109   0.000000
   39       63.562445   0.000000
   40       64.711294   0.000000
 
  0.2727273E+00  0.2171810E-17  0.9090909E-01  0.9015778E-02
    1        0.273232   1.000000
    2        2.684839   1.000000
    3        3.154647   1.000000
    4        4.056321   1.000000
    5        4.464972   1.000000
    6        5.166375   1.000000
    7        5.372231   1.000000
    8        5.900069   1.006797
    9        6.230419   0.808714
   10        6.381138   0.218761
   11        7.095172  -0.000000
   12       11.119324  -0.000000
   13       14.484678   0.000000
   14       19.990867   0.000000
   15       25.421127   0.000000
   16       26.080555   0.000000
   17       27.689726   0.000000
   18       30.317168   0.000000
   19       31.922440   0.000000
   20       34.272046   0.000000
   21       34.386952   0.000000
   22       36.947586   0.000000
   23       37.133443   0.000000
   24       40.565944   0.000000
   25       45.344843   0.000000
   26       46.736303   0.000000
   27       47.800286   0.000000
   28       47.952789   0.000000
   29       51.383343   0.000000
   30       51.637367   0.000000
   31       53.239087   0.000000
   32       54.533873   0.000000
   33       55.735310   0.000000
   34       56.214744   0.000000
   35       57.786435   0.000000
   36       58.932898   0.000000
   37       61.457426   0.000000
   38       62.153035   0.000000
   39       63.473982   0.000000
   40       65.275169   0.000000
 
  0.3636364E+00 -0.1958257E-16  0.9090909E-01  0.9015778E-02
    1        1.450196   1.000000
    2        2.443890   1.000000
    3        2.751016   1.000000
    4        4.026051   1.000000
    5        4.839694   1.000000
    6        5.025206   1.000000
    7        5.155205   1.000000
    8        6.919741  -0.000071
    9        6.928759  -0.000055
   10        6.961582  -0.000020
   11        7.142177  -0.000000
   12       12.433310   0.000000
   13       15.104492   0.000000
   14       17.244207   0.000000
   15       22.245295   0.000000
   16       24.336051   0.000000
   17       24.955942   0.000000
   18       29.635762   0.000000
   19       30.868115   0.000000
   20       32.980152   0.000000
   21       35.410302   0.000000
   22       36.070646   0.000000
   23       38.106832   0.000000
   24       41.111367   0.000000
   25       45.779271   0.000000
   26       48.747991   0.000000
   27       49.730224   0.000000
   28       51.145858   0.000000
   29       51.934784   0.000000
   30       53.809342   0.000000
   31       54.544857   0.000000
   32       55.970771   0.000000
   33       56.591848   0.000000
   34       57.934991   0.000000
   35       60.268295   0.000000
   36       61.823869   0.000000
   37       61.873824   0.000000
   38       62.504345   0.000000
   39       64.731268   0.000000
   40       64.976138   0.000000
 
  0.4545455E+00 -0.2941315E-16  0.9090909E-01  0.9015778E-02
    1        1.943160   1.000000
    2        2.175122   1.000000
    3        2.630794   1.000000
    4        4.090983   1.000000
    5        5.028384   1.000000
    6        5.030953   1.000000
    7        5.281372   1.000000
    8        7.065633  -0.000001
    9        7.347026  -0.000000
   10        7.453625  -0.000000
   11        8.424588  -0.000000
   12       11.585024  -0.000000
   13       15.777757   0.000000
   14       17.274427   0.000000
   15       20.198224   0.000000
   16       22.245662   0.000000
   17       23.367844   0.000000
   18       29.078612   0.000000
   19       30.535504   0.000000
   20       32.140958   0.000000
   21       35.647218   0.000000