 vasp.6.2.0 18Jan21 (build Mar 17 2021 09:06:54) complex                        
  
 executed on             LinuxIFC date 2021.09.09  12:10:22
 serial version


--------------------------------------------------------------------------------------------------------


 INCAR:
   ENCUT = 280.000000
   SIGMA = 0.200000
   EDIFF = 1.00e-06
   GGA = PE
   PREC = normal
   IBRION = 1
   ICHARG = 1
   ISIF = 2
   ISMEAR = 1
   KPAR = 1
   NBANDS = 40
   NSW = 0
   NCORE = 1
   LCHARG = .TRUE.

 POTCAR:    PAW_PBE Fe 06Sep2000                  
 POTCAR:    PAW_PBE Fe 06Sep2000                  
   SHA256 =  cd5a22d9368cc8b5cc476bea79732366149640da08ac9009b0e1b7fc627eea28 Fe/POTCAR             
   COPYR  = (c) Copyright 06Sep2000 Georg Kresse                                                    
   COPYR  = This file is part of the software VASP. Any use, copying, and all other rights are regul
   COPYR  = If you do not have a valid VASP license, you may not use, copy or distribute this file. 
   VRHFIN =Fe:  d7 s1                                                                               
   LEXCH  = PE                                                                                      
   EATOM  =   594.3153 eV,   43.6809 Ry                                                             
                                                                                                    
   TITEL  = PAW_PBE Fe 06Sep2000                                                                    
   LULTRA =        F    use ultrasoft PP ?                                                          
   IUNSCR =        1    unscreen: 0-lin 1-nonlin 2-no                                               
   RPACOR =    2.000    partial core radius                                                         
   POMASS =   55.847; ZVAL   =    8.000    mass and valenz                                          
   RCORE  =    2.300    outmost cutoff radius                                                       
   RWIGS  =    2.460; RWIGS  =    1.302    wigner-seitz radius (au A)                               
   ENMAX  =  267.882; ENMIN  =  200.911 eV                                                          
   RCLOC  =    1.701    cutoff for local pot                                                        
   LCOR   =        T    correct aug charges                                                         
   LPAW   =        T    paw PP                                                                      
   EAUG   =  511.368                                                                                
   DEXC   =    0.000                                                                                
   RMAX   =    2.356    core radius for proj-oper                                                   
   RAUG   =    1.300    factor for augmentation sphere                                              
   RDEP   =    2.442    radius for radial grids                                                     
   RDEPT  =    1.890    core radius for aug-charge                                                  
                                                                                                    
   Atomic configuration                                                                             
    9 entries                                                                                       
     n  l   j            E        occ.                                                              
     1  0  0.50     -6993.8440   2.0000                                                             
     2  0  0.50      -814.6047   2.0000                                                             
     2  1  1.50      -693.3689   6.0000                                                             
     3  0  0.50       -89.4732   2.0000                                                             
     3  1  1.50       -55.6373   6.0000                                                             
     3  2  2.50        -3.8151   7.0000                                                             
     4  0  0.50        -4.2551   1.0000                                                             
     4  1  1.50        -3.4015   0.0000                                                             
     4  3  2.50        -1.3606   0.0000                                                             
   Description                                                                                      
     l       E           TYP  RCUT    TYP  RCUT                                                     
     2     -3.8151135     23  2.300                                                                 
     2     -5.1756961     23  2.300                                                                 
     0     -4.2550963     23  2.300                                                                 
     0      7.2035603     23  2.300                                                                 
     1     -2.7211652     23  2.300                                                                 
     1     18.4316424     23  2.300                                                                 
  local pseudopotential read in
  partial core-charges read in
  partial kinetic energy density read in
  atomic valenz-charges read in
  non local Contribution for L=           2  read in
    real space projection operators read in
  non local Contribution for L=           2  read in
    real space projection operators read in
  non local Contribution for L=           0  read in
    real space projection operators read in
  non local Contribution for L=           0  read in
    real space projection operators read in
  non local Contribution for L=           1  read in
    real space projection operators read in
  non local Contribution for L=           1  read in
    real space projection operators read in
    PAW grid and wavefunctions read in
 
   number of l-projection  operators is LMAX  =           6
   number of lm-projection operators is LMMAX =          18
 
  PAW_PBE Fe 06Sep2000                  :
 energy of atom  1       EATOM= -594.3153
 kinetic energy error for atom=    0.0278 (will be added to EATOM!!)
 
 
 POSCAR: Fe
  positions in cartesian coordinates
  No initial velocities read in
 exchange correlation table for  LEXCH =        8
   RHO(1)=    0.500       N(1)  =     2000
   RHO(2)=  100.500       N(2)  =     4000
 


--------------------------------------------------------------------------------------------------------


 ion  position               nearest neighbor table
   1  0.000  0.000  0.000-   2 2.53   2 2.53   2 2.53   2 2.53   2 2.53   2 2.53
   2  0.333  0.667  0.500-   1 2.53   1 2.53   1 2.53   1 2.53   1 2.53   1 2.53
 
  LATTYP: Found a hexagonal cell.
 ALAT       =     2.4232000000
 C/A-ratio  =     1.7420600858
  
  Lattice vectors:
  
 A1 = (   2.4232000000,   0.0000000000,   0.0000000000)
 A2 = (  -1.2116000000,   2.0985527585,   0.0000000000)
 A3 = (   0.0000000000,   0.0000000000,   4.2213600000)


Analysis of symmetry for initial positions (statically):
=====================================================================
 Subroutine PRICEL returns:
 Original cell was already a primitive cell.
 

 Routine SETGRP: Setting up the symmetry group for a 
 hexagonal supercell.


 Subroutine GETGRP returns: Found 24 space group operations
 (whereof 12 operations were pure point group operations)
 out of a pool of 24 trial point group operations.


The static configuration has the point symmetry D_3h.
 The point group associated with its full space group is D_6h.


Analysis of symmetry for dynamics (positions and initial velocities):
=====================================================================
 Subroutine PRICEL returns:
 Original cell was already a primitive cell.
 

 Routine SETGRP: Setting up the symmetry group for a 
 hexagonal supercell.


 Subroutine GETGRP returns: Found 24 space group operations
 (whereof 12 operations were pure point group operations)
 out of a pool of 24 trial point group operations.


The dynamic configuration has the point symmetry D_3h.
 The point group associated with its full space group is D_6h.


 Subroutine INISYM returns: Found 24 space group operations
 (whereof 12 operations are pure point group operations),
 and found     1 'primitive' translations


----------------------------------------------------------------------------------------

                                     Primitive cell                                     

  volume of cell :      21.4665

  direct lattice vectors                    reciprocal lattice vectors
     2.423200000  0.000000000  0.000000000     0.412677451  0.238259438  0.000000000
    -1.211600000  2.098552758  0.000000000     0.000000000  0.476518875  0.000000000
     0.000000000  0.000000000  4.221360000     0.000000000  0.000000000  0.236890481

  length of vectors
     2.423200000  2.423200000  4.221360000     0.476518875  0.476518875  0.236890481

  position of ions in fractional coordinates (direct lattice)
     0.000000000  0.000000000  0.000000000
     0.333333333  0.666666667  0.500000000

  ion indices of the primitive-cell ions
   primitive index   ion index
                 1           1
                 2           2

----------------------------------------------------------------------------------------

 
 
 KPOINTS: KPOINTS created by Atomic Simulation Env

Automatic generation of k-mesh.
 Grid dimensions read from file:
 generate k-points for:   11   11   11

 Generating k-lattice:

  Cartesian coordinates                     Fractional coordinates (reciprocal lattice)
     0.037516132  0.021659949  0.000000000     0.090909091 -0.000000000  0.000000000
     0.000000000  0.043319898  0.000000000     0.000000000  0.090909091  0.000000000
     0.000000000  0.000000000  0.021535498     0.000000000  0.000000000  0.090909091

  Length of vectors
     0.043319898  0.043319898  0.021535498

  Shift w.r.t. Gamma in fractional coordinates (k-lattice)
     0.000000000  0.000000000  0.000000000

 
 Subroutine IBZKPT returns following result:
 ===========================================
 
 Found     96 irreducible k-points:
 
 Following reciprocal coordinates:
            Coordinates               Weight
  0.000000  0.000000  0.000000      1.000000
  0.090909 -0.000000  0.000000      6.000000
  0.181818 -0.000000  0.000000      6.000000
  0.272727  0.000000  0.000000      6.000000
  0.363636 -0.000000  0.000000      6.000000
  0.454545 -0.000000  0.000000      6.000000
  0.090909  0.090909  0.000000      6.000000
  0.181818  0.090909  0.000000     12.000000
  0.272727  0.090909  0.000000     12.000000
  0.363636  0.090909  0.000000     12.000000
  0.454545  0.090909  0.000000      6.000000
  0.181818  0.181818  0.000000      6.000000
  0.272727  0.181818  0.000000     12.000000
  0.363636  0.181818  0.000000     12.000000
  0.272727  0.272727  0.000000      6.000000
  0.363636  0.272727  0.000000      6.000000
  0.000000  0.000000  0.090909      2.000000
  0.090909 -0.000000  0.090909     12.000000
  0.181818 -0.000000  0.090909     12.000000
  0.272727  0.000000  0.090909     12.000000
  0.363636 -0.000000  0.090909     12.000000
  0.454545 -0.000000  0.090909     12.000000
  0.090909  0.090909  0.090909     12.000000
  0.181818  0.090909  0.090909     24.000000
  0.272727  0.090909  0.090909     24.000000
  0.363636  0.090909  0.090909     24.000000
  0.454545  0.090909  0.090909     12.000000
  0.181818  0.181818  0.090909     12.000000
  0.272727  0.181818  0.090909     24.000000
  0.363636  0.181818  0.090909     24.000000
  0.272727  0.272727  0.090909     12.000000
  0.363636  0.272727  0.090909     12.000000
  0.000000  0.000000  0.181818      2.000000
  0.090909 -0.000000  0.181818     12.000000
  0.181818 -0.000000  0.181818     12.000000
  0.272727  0.000000  0.181818     12.000000
  0.363636 -0.000000  0.181818     12.000000
  0.454545 -0.000000  0.181818     12.000000
  0.090909  0.090909  0.181818     12.000000
  0.181818  0.090909  0.181818     24.000000
  0.272727  0.090909  0.181818     24.000000
  0.363636  0.090909  0.181818     24.000000
  0.454545  0.090909  0.181818     12.000000
  0.181818  0.181818  0.181818     12.000000
  0.272727  0.181818  0.181818     24.000000
  0.363636  0.181818  0.181818     24.000000
  0.272727  0.272727  0.181818     12.000000
  0.363636  0.272727  0.181818     12.000000
  0.000000  0.000000  0.272727      2.000000
  0.090909 -0.000000  0.272727     12.000000
  0.181818 -0.000000  0.272727     12.000000
  0.272727  0.000000  0.272727     12.000000
  0.363636 -0.000000  0.272727     12.000000
  0.454545 -0.000000  0.272727     12.000000
  0.090909  0.090909  0.272727     12.000000
  0.181818  0.090909  0.272727     24.000000
  0.272727  0.090909  0.272727     24.000000
  0.363636  0.090909  0.272727     24.000000
  0.454545  0.090909  0.272727     12.000000
  0.181818  0.181818  0.272727     12.000000
  0.272727  0.181818  0.272727     24.000000
  0.363636  0.181818  0.272727     24.000000
  0.272727  0.272727  0.272727     12.000000
  0.363636  0.272727  0.272727     12.000000
  0.000000  0.000000  0.363636      2.000000
  0.090909 -0.000000  0.363636     12.000000
  0.181818 -0.000000  0.363636     12.000000
  0.272727  0.000000  0.363636     12.000000
  0.363636 -0.000000  0.363636     12.000000
  0.454545 -0.000000  0.363636     12.000000
  0.090909  0.090909  0.363636     12.000000
  0.181818  0.090909  0.363636     24.000000
  0.272727  0.090909  0.363636     24.000000
  0.363636  0.090909  0.363636     24.000000
  0.454545  0.090909  0.363636     12.000000
  0.181818  0.181818  0.363636     12.000000
  0.272727  0.181818  0.363636     24.000000
  0.363636  0.181818  0.363636     24.000000
  0.272727  0.272727  0.363636     12.000000
  0.363636  0.272727  0.363636     12.000000
  0.000000  0.000000  0.454545      2.000000
  0.090909 -0.000000  0.454545     12.000000
  0.181818 -0.000000  0.454545     12.000000
  0.272727  0.000000  0.454545     12.000000
  0.363636 -0.000000  0.454545     12.000000
  0.454545 -0.000000  0.454545     12.000000
  0.090909  0.090909  0.454545     12.000000
  0.181818  0.090909  0.454545     24.000000
  0.272727  0.090909  0.454545     24.000000
  0.363636  0.090909  0.454545     24.000000
  0.454545  0.090909  0.454545     12.000000
  0.181818  0.181818  0.454545     12.000000
  0.272727  0.181818  0.454545     24.000000
  0.363636  0.181818  0.454545     24.000000
  0.272727  0.272727  0.454545     12.000000
  0.363636  0.272727  0.454545     12.000000
 
 Following cartesian coordinates:
            Coordinates               Weight
  0.000000  0.000000  0.000000      1.000000
  0.037516  0.021660  0.000000      6.000000
  0.075032  0.043320  0.000000      6.000000
  0.112548  0.064980  0.000000      6.000000
  0.150065  0.086640  0.000000      6.000000
  0.187581  0.108300  0.000000      6.000000
  0.037516  0.064980  0.000000      6.000000
  0.075032  0.086640  0.000000     12.000000
  0.112548  0.108300  0.000000     12.000000
  0.150065  0.129960  0.000000     12.000000
  0.187581  0.151620  0.000000      6.000000
  0.075032  0.129960  0.000000      6.000000
  0.112548  0.151620  0.000000     12.000000
  0.150065  0.173280  0.000000     12.000000
  0.112548  0.194940  0.000000      6.000000
  0.150065  0.216599  0.000000      6.000000
  0.000000  0.000000  0.021535      2.000000
  0.037516  0.021660  0.021535     12.000000
  0.075032  0.043320  0.021535     12.000000
  0.112548  0.064980  0.021535     12.000000
  0.150065  0.086640  0.021535     12.000000
  0.187581  0.108300  0.021535     12.000000
  0.037516  0.064980  0.021535     12.000000
  0.075032  0.086640  0.021535     24.000000
  0.112548  0.108300  0.021535     24.000000
  0.150065  0.129960  0.021535     24.000000
  0.187581  0.151620  0.021535     12.000000
  0.075032  0.129960  0.021535     12.000000
  0.112548  0.151620  0.021535     24.000000
  0.150065  0.173280  0.021535     24.000000
  0.112548  0.194940  0.021535     12.000000
  0.150065  0.216599  0.021535     12.000000
  0.000000  0.000000  0.043071      2.000000
  0.037516  0.021660  0.043071     12.000000
  0.075032  0.043320  0.043071     12.000000
  0.112548  0.064980  0.043071     12.000000
  0.150065  0.086640  0.043071     12.000000
  0.187581  0.108300  0.043071     12.000000
  0.037516  0.064980  0.043071     12.000000
  0.075032  0.086640  0.043071     24.000000
  0.112548  0.108300  0.043071     24.000000
  0.150065  0.129960  0.043071     24.000000
  0.187581  0.151620  0.043071     12.000000
  0.075032  0.129960  0.043071     12.000000
  0.112548  0.151620  0.043071     24.000000
  0.150065  0.173280  0.043071     24.000000
  0.112548  0.194940  0.043071     12.000000
  0.150065  0.216599  0.043071     12.000000
  0.000000  0.000000  0.064606      2.000000
  0.037516  0.021660  0.064606     12.000000
  0.075032  0.043320  0.064606     12.000000
  0.112548  0.064980  0.064606     12.000000
  0.150065  0.086640  0.064606     12.000000
  0.187581  0.108300  0.064606     12.000000
  0.037516  0.064980  0.064606     12.000000
  0.075032  0.086640  0.064606     24.000000
  0.112548  0.108300  0.064606     24.000000
  0.150065  0.129960  0.064606     24.000000
  0.187581  0.151620  0.064606     12.000000
  0.075032  0.129960  0.064606     12.000000
  0.112548  0.151620  0.064606     24.000000
  0.150065  0.173280  0.064606     24.000000
  0.112548  0.194940  0.064606     12.000000
  0.150065  0.216599  0.064606     12.000000
  0.000000  0.000000  0.086142      2.000000
  0.037516  0.021660  0.086142     12.000000
  0.075032  0.043320  0.086142     12.000000
  0.112548  0.064980  0.086142     12.000000
  0.150065  0.086640  0.086142     12.000000
  0.187581  0.108300  0.086142     12.000000
  0.037516  0.064980  0.086142     12.000000
  0.075032  0.086640  0.086142     24.000000
  0.112548  0.108300  0.086142     24.000000
  0.150065  0.129960  0.086142     24.000000
  0.187581  0.151620  0.086142     12.000000
  0.075032  0.129960  0.086142     12.000000
  0.112548  0.151620  0.086142     24.000000
  0.150065  0.173280  0.086142     24.000000
  0.112548  0.194940  0.086142     12.000000
  0.150065  0.216599  0.086142     12.000000
  0.000000  0.000000  0.107677      2.000000
  0.037516  0.021660  0.107677     12.000000
  0.075032  0.043320  0.107677     12.000000
  0.112548  0.064980  0.107677     12.000000
  0.150065  0.086640  0.107677     12.000000
  0.187581  0.108300  0.107677     12.000000
  0.037516  0.064980  0.107677     12.000000
  0.075032  0.086640  0.107677     24.000000
  0.112548  0.108300  0.107677     24.000000
  0.150065  0.129960  0.107677     24.000000
  0.187581  0.151620  0.107677     12.000000
  0.075032  0.129960  0.107677     12.000000
  0.112548  0.151620  0.107677     24.000000
  0.150065  0.173280  0.107677     24.000000
  0.112548  0.194940  0.107677     12.000000
  0.150065  0.216599  0.107677     12.000000
 


--------------------------------------------------------------------------------------------------------




 Dimension of arrays:
   k-points           NKPTS =     96   k-points in BZ     NKDIM =     96   number of bands    NBANDS=     40
   number of dos      NEDOS =    301   number of ions     NIONS =      2
   non local maximal  LDIM  =      6   non local SUM 2l+1 LMDIM =     18
   total plane-waves  NPLWV =   1800
   max r-space proj   IRMAX =      1   max aug-charges    IRDMAX=   3186
   dimension x,y,z NGX =    10 NGY =   10 NGZ =   18
   dimension x,y,z NGXF=    20 NGYF=   20 NGZF=   36
   support grid    NGXF=    20 NGYF=   20 NGZF=   36
   ions per type =               2
   NGX,Y,Z   is equivalent  to a cutoff of   6.86,  6.86,  7.09 a.u.
   NGXF,Y,Z  is equivalent  to a cutoff of  13.72, 13.72, 14.18 a.u.

 SYSTEM =  unknown system                          
 POSCAR =  Fe                                      

 Startparameter for this run:
   NWRITE =      2    write-flag & timer
   PREC   = normal    normal or accurate (medium, high low for compatibility)
   ISTART =      0    job   : 0-new  1-cont  2-samecut
   ICHARG =      1    charge: 1-file 2-atom 10-const
   ISPIN  =      1    spin polarized calculation?
   LNONCOLLINEAR =      F non collinear calculations
   LSORBIT =      F    spin-orbit coupling
   INIWAV =      1    electr: 0-lowe 1-rand  2-diag
   LASPH  =      F    aspherical Exc in radial PAW
   METAGGA=      F    non-selfconsistent MetaGGA calc.

 Electronic Relaxation 1
   ENCUT  =  280.0 eV  20.58 Ry    4.54 a.u.   3.31  3.31  5.76*2*pi/ulx,y,z
   ENINI  =  280.0     initial cutoff
   ENAUG  =  511.4 eV  augmentation charge cutoff
   NELM   =     60;   NELMIN=  2; NELMDL= -5     # of ELM steps 
   EDIFF  = 0.1E-05   stopping-criterion for ELM
   LREAL  =      F    real-space projection
   NLSPLINE    = F    spline interpolate recip. space projectors
   LCOMPAT=      F    compatible to vasp.4.4
   GGA_COMPAT  = T    GGA compatible to vasp.4.4-vasp.4.6
   LMAXPAW     = -100 max onsite density
   LMAXMIX     =    2 max onsite mixed and CHGCAR
   VOSKOWN=      0    Vosko Wilk Nusair interpolation
   ROPT   =    0.00000
 Ionic relaxation
   EDIFFG = 0.1E-04   stopping-criterion for IOM
   NSW    =      0    number of steps for IOM
   NBLOCK =      1;   KBLOCK =      1    inner block; outer block 
   IBRION =     -1    ionic relax: 0-MD 1-quasi-New 2-CG
   NFREE  =      0    steps in history (QN), initial steepest desc. (CG)
   ISIF   =      2    stress and relaxation
   IWAVPR =      0    prediction:  0-non 1-charg 2-wave 3-comb
   ISYM   =      2    0-nonsym 1-usesym 2-fastsym
   LCORR  =      T    Harris-Foulkes like correction to forces

   POTIM  = 0.5000    time-step for ionic-motion
   TEIN   =    0.0    initial temperature
   TEBEG  =    0.0;   TEEND  =   0.0 temperature during run
   SMASS  =  -3.00    Nose mass-parameter (am)
   estimated Nose-frequenzy (Omega)   =  0.10E-29 period in steps = 0.13E+47 mass=  -0.134E-27a.u.
   SCALEE = 1.0000    scale energy and forces
   NPACO  =    256;   APACO  = 16.0  distance and # of slots for P.C.
   PSTRESS=    0.0 pullay stress

  Mass of Ions in am
   POMASS =  55.85
  Ionic Valenz
   ZVAL   =   8.00
  Atomic Wigner-Seitz radii
   RWIGS  =  -1.00
  virtual crystal weights 
   VCA    =   1.00
   NELECT =      16.0000    total number of electrons
   NUPDOWN=      -1.0000    fix difference up-down

 DOS related values:
   EMIN   =  10.00;   EMAX   =-10.00  energy-range for DOS
   EFERMI =   0.00
   ISMEAR =     1;   SIGMA  =   0.20  broadening in eV -4-tet -1-fermi 0-gaus

 Electronic relaxation 2 (details)
   IALGO  =     38    algorithm
   LDIAG  =      T    sub-space diagonalisation (order eigenvalues)
   LSUBROT=      F    optimize rotation matrix (better conditioning)
   TURBO    =      0    0=normal 1=particle mesh
   IRESTART =      0    0=no restart 2=restart with 2 vectors
   NREBOOT  =      0    no. of reboots
   NMIN     =      0    reboot dimension
   EREF     =   0.00    reference energy to select bands
   IMIX   =      4    mixing-type and parameters
     AMIX     =   0.40;   BMIX     =  1.00
     AMIX_MAG =   1.60;   BMIX_MAG =  1.00
     AMIN     =   0.10
     WC   =   100.;   INIMIX=   1;  MIXPRE=   1;  MAXMIX= -45

 Intra band minimization:
   WEIMIN = 0.0000     energy-eigenvalue tresh-hold
   EBREAK =  0.62E-08  absolut break condition
   DEPER  =   0.30     relativ break condition  

   TIME   =   0.40     timestep for ELM

  volume/ion in A,a.u.               =      10.73        72.43
  Fermi-wavevector in a.u.,A,eV,Ry     =   1.484320  2.804959 29.976450  2.203207
  Thomas-Fermi vector in A             =   2.597872
 
 Write flags
   LWAVE        =      T    write WAVECAR
   LDOWNSAMPLE  =      F    k-point downsampling of WAVECAR
   LCHARG       =      T    write CHGCAR
   LVTOT        =      F    write LOCPOT, total local potential
   LVHAR        =      F    write LOCPOT, Hartree potential only
   LELF         =      F    write electronic localiz. function (ELF)
   LORBIT       =      0    0 simple, 1 ext, 2 COOP (PROOUT), +10 PAW based schemes


 Dipole corrections
   LMONO  =      F    monopole corrections only (constant potential shift)
   LDIPOL =      F    correct potential (dipole corrections)
   IDIPOL =      0    1-x, 2-y, 3-z, 4-all directions 
   EPSILON=  1.0000000 bulk dielectric constant

 Exchange correlation treatment:
   GGA     =    PE    GGA type
   LEXCH   =     8    internal setting for exchange type
   VOSKOWN=      0    Vosko Wilk Nusair interpolation
   LHFCALC =     F    Hartree Fock is set to
   LHFONE  =     F    Hartree Fock one center treatment
   AEXX    =    0.0000 exact exchange contribution

 Linear response parameters
   LEPSILON=     F    determine dielectric tensor
   LRPA    =     F    only Hartree local field effects (RPA)
   LNABLA  =     F    use nabla operator in PAW spheres
   LVEL    =     F    velocity operator in full k-point grid
   LINTERFAST=   F  fast interpolation
   KINTER  =     0    interpolate to denser k-point grid
   CSHIFT  =0.1000    complex shift for real part using Kramers Kronig
   OMEGAMAX=  -1.0    maximum frequency
   DEG_THRESHOLD= 0.2000000E-02 threshold for treating states as degnerate
   RTIME   =   -0.100 relaxation time in fs
  (WPLASMAI=    0.000 imaginary part of plasma frequency in eV, 0.658/RTIME)
   DFIELD  = 0.0000000 0.0000000 0.0000000 field for delta impulse in time
 
 Orbital magnetization related:
   ORBITALMAG=     F  switch on orbital magnetization
   LCHIMAG   =     F  perturbation theory with respect to B field
   DQ        =  0.001000  dq finite difference perturbation B field
   LLRAUG    =     F  two centre corrections for induced B field



--------------------------------------------------------------------------------------------------------


 Static calculation
 charge density and potential will be updated during run
 non-spin polarized calculation
 Variant of blocked Davidson
 Davidson routine will perform the subspace rotation
 perform sub-space diagonalisation
    after iterative eigenvector-optimisation
 modified Broyden-mixing scheme, WC =      100.0
 initial mixing is a Kerker type mixing with AMIX =  0.4000 and BMIX =      1.0000
 Hartree-type preconditioning will be used
 using additional bands           32
 reciprocal scheme for non local part
 use partial core corrections
 calculate Harris-corrections to forces 
   (improved forces if not selfconsistent)
 use gradient corrections 
 use of overlap-Matrix (Vanderbilt PP)
 Methfessel and Paxton  Order N= 1 SIGMA  =   0.20


--------------------------------------------------------------------------------------------------------


  energy-cutoff  :      280.00
  volume of cell :       21.47
      direct lattice vectors                 reciprocal lattice vectors
     2.423200000  0.000000000  0.000000000     0.412677451  0.238259438  0.000000000
    -1.211600000  2.098552758  0.000000000     0.000000000  0.476518875  0.000000000
     0.000000000  0.000000000  4.221360000     0.000000000  0.000000000  0.236890481

  length of vectors
     2.423200000  2.423200000  4.221360000     0.476518875  0.476518875  0.236890481


 
 k-points in units of 2pi/SCALE and weight: KPOINTS created by Atomic Simulation Env
   0.00000000  0.00000000  0.00000000       0.001
   0.03751613  0.02165995  0.00000000       0.005
   0.07503226  0.04331990  0.00000000       0.005
   0.11254840  0.06497985  0.00000000       0.005
   0.15006453  0.08663980  0.00000000       0.005
   0.18758066  0.10829974  0.00000000       0.005
   0.03751613  0.06497985  0.00000000       0.005
   0.07503226  0.08663980  0.00000000       0.009
   0.11254840  0.10829974  0.00000000       0.009
   0.15006453  0.12995969  0.00000000       0.009
   0.18758066  0.15161964  0.00000000       0.005
   0.07503226  0.12995969  0.00000000       0.005
   0.11254840  0.15161964  0.00000000       0.009
   0.15006453  0.17327959  0.00000000       0.009
   0.11254840  0.19493954  0.00000000       0.005
   0.15006453  0.21659949  0.00000000       0.005
   0.00000000  0.00000000  0.02153550       0.002
   0.03751613  0.02165995  0.02153550       0.009
   0.07503226  0.04331990  0.02153550       0.009
   0.11254840  0.06497985  0.02153550       0.009
   0.15006453  0.08663980  0.02153550       0.009
   0.18758066  0.10829974  0.02153550       0.009
   0.03751613  0.06497985  0.02153550       0.009
   0.07503226  0.08663980  0.02153550       0.018
   0.11254840  0.10829974  0.02153550       0.018
   0.15006453  0.12995969  0.02153550       0.018
   0.18758066  0.15161964  0.02153550       0.009
   0.07503226  0.12995969  0.02153550       0.009
   0.11254840  0.15161964  0.02153550       0.018
   0.15006453  0.17327959  0.02153550       0.018
   0.11254840  0.19493954  0.02153550       0.009
   0.15006453  0.21659949  0.02153550       0.009
   0.00000000  0.00000000  0.04307100       0.002
   0.03751613  0.02165995  0.04307100       0.009
   0.07503226  0.04331990  0.04307100       0.009
   0.11254840  0.06497985  0.04307100       0.009
   0.15006453  0.08663980  0.04307100       0.009
   0.18758066  0.10829974  0.04307100       0.009
   0.03751613  0.06497985  0.04307100       0.009
   0.07503226  0.08663980  0.04307100       0.018
   0.11254840  0.10829974  0.04307100       0.018
   0.15006453  0.12995969  0.04307100       0.018
   0.18758066  0.15161964  0.04307100       0.009
   0.07503226  0.12995969  0.04307100       0.009
   0.11254840  0.15161964  0.04307100       0.018
   0.15006453  0.17327959  0.04307100       0.018
   0.11254840  0.19493954  0.04307100       0.009
   0.15006453  0.21659949  0.04307100       0.009
   0.00000000  0.00000000  0.06460649       0.002
   0.03751613  0.02165995  0.06460649       0.009
   0.07503226  0.04331990  0.06460649       0.009
   0.11254840  0.06497985  0.06460649       0.009
   0.15006453  0.08663980  0.06460649       0.009
   0.18758066  0.10829974  0.06460649       0.009
   0.03751613  0.06497985  0.06460649       0.009
   0.07503226  0.08663980  0.06460649       0.018
   0.11254840  0.10829974  0.06460649       0.018
   0.15006453  0.12995969  0.06460649       0.018
   0.18758066  0.15161964  0.06460649       0.009
   0.07503226  0.12995969  0.06460649       0.009
   0.11254840  0.15161964  0.06460649       0.018
   0.15006453  0.17327959  0.06460649       0.018
   0.11254840  0.19493954  0.06460649       0.009
   0.15006453  0.21659949  0.06460649       0.009
   0.00000000  0.00000000  0.08614199       0.002
   0.03751613  0.02165995  0.08614199       0.009
   0.07503226  0.04331990  0.08614199       0.009
   0.11254840  0.06497985  0.08614199       0.009
   0.15006453  0.08663980  0.08614199       0.009
   0.18758066  0.10829974  0.08614199       0.009
   0.03751613  0.06497985  0.08614199       0.009
   0.07503226  0.08663980  0.08614199       0.018
   0.11254840  0.10829974  0.08614199       0.018
   0.15006453  0.12995969  0.08614199       0.018
   0.18758066  0.15161964  0.08614199       0.009
   0.07503226  0.12995969  0.08614199       0.009
   0.11254840  0.15161964  0.08614199       0.018
   0.15006453  0.17327959  0.08614199       0.018
   0.11254840  0.19493954  0.08614199       0.009
   0.15006453  0.21659949  0.08614199       0.009
   0.00000000  0.00000000  0.10767749       0.002
   0.03751613  0.02165995  0.10767749       0.009
   0.07503226  0.04331990  0.10767749       0.009
   0.11254840  0.06497985  0.10767749       0.009
   0.15006453  0.08663980  0.10767749       0.009
   0.18758066  0.10829974  0.10767749       0.009
   0.03751613  0.06497985  0.10767749       0.009
   0.07503226  0.08663980  0.10767749       0.018
   0.11254840  0.10829974  0.10767749       0.018
   0.15006453  0.12995969  0.10767749       0.018
   0.18758066  0.15161964  0.10767749       0.009
   0.07503226  0.12995969  0.10767749       0.009
   0.11254840  0.15161964  0.10767749       0.018
   0.15006453  0.17327959  0.10767749       0.018
   0.11254840  0.19493954  0.10767749       0.009
   0.15006453  0.21659949  0.10767749       0.009
 
 k-points in reciprocal lattice and weights: KPOINTS created by Atomic Simulation Env
   0.00000000  0.00000000  0.00000000       0.001
   0.09090909 -0.00000000  0.00000000       0.005
   0.18181818 -0.00000000  0.00000000       0.005
   0.27272727  0.00000000  0.00000000       0.005
   0.36363636 -0.00000000  0.00000000       0.005
   0.45454545 -0.00000000  0.00000000       0.005
   0.09090909  0.09090909  0.00000000       0.005
   0.18181818  0.09090909  0.00000000       0.009
   0.27272727  0.09090909  0.00000000       0.009
   0.36363636  0.09090909  0.00000000       0.009
   0.45454545  0.09090909  0.00000000       0.005
   0.18181818  0.18181818  0.00000000       0.005
   0.27272727  0.18181818  0.00000000       0.009
   0.36363636  0.18181818  0.00000000       0.009
   0.27272727  0.27272727  0.00000000       0.005
   0.36363636  0.27272727  0.00000000       0.005
   0.00000000  0.00000000  0.09090909       0.002
   0.09090909 -0.00000000  0.09090909       0.009
   0.18181818 -0.00000000  0.09090909       0.009
   0.27272727  0.00000000  0.09090909       0.009
   0.36363636 -0.00000000  0.09090909       0.009
   0.45454545 -0.00000000  0.09090909       0.009
   0.09090909  0.09090909  0.09090909       0.009
   0.18181818  0.09090909  0.09090909       0.018
   0.27272727  0.09090909  0.09090909       0.018
   0.36363636  0.09090909  0.09090909       0.018
   0.45454545  0.09090909  0.09090909       0.009
   0.18181818  0.18181818  0.09090909       0.009
   0.27272727  0.18181818  0.09090909       0.018
   0.36363636  0.18181818  0.09090909       0.018
   0.27272727  0.27272727  0.09090909       0.009
   0.36363636  0.27272727  0.09090909       0.009
   0.00000000  0.00000000  0.18181818       0.002
   0.09090909 -0.00000000  0.18181818       0.009
   0.18181818 -0.00000000  0.18181818       0.009
   0.27272727  0.00000000  0.18181818       0.009
   0.36363636 -0.00000000  0.18181818       0.009
   0.45454545 -0.00000000  0.18181818       0.009
   0.09090909  0.09090909  0.18181818       0.009
   0.18181818  0.09090909  0.18181818       0.018
   0.27272727  0.09090909  0.18181818       0.018
   0.36363636  0.09090909  0.18181818       0.018
   0.45454545  0.09090909  0.18181818       0.009
   0.18181818  0.18181818  0.18181818       0.009
   0.27272727  0.18181818  0.18181818       0.018
   0.36363636  0.18181818  0.18181818       0.018
   0.27272727  0.27272727  0.18181818       0.009
   0.36363636  0.27272727  0.18181818       0.009
   0.00000000  0.00000000  0.27272727       0.002
   0.09090909 -0.00000000  0.27272727       0.009
   0.18181818 -0.00000000  0.27272727       0.009
   0.27272727  0.00000000  0.27272727       0.009
   0.36363636 -0.00000000  0.27272727       0.009
   0.45454545 -0.00000000  0.27272727       0.009
   0.09090909  0.09090909  0.27272727       0.009
   0.18181818  0.09090909  0.27272727       0.018
   0.27272727  0.09090909  0.27272727       0.018
   0.36363636  0.09090909  0.27272727       0.018
   0.45454545  0.09090909  0.27272727       0.009
   0.18181818  0.18181818  0.27272727       0.009
   0.27272727  0.18181818  0.27272727       0.018
   0.36363636  0.18181818  0.27272727       0.018
   0.27272727  0.27272727  0.27272727       0.009
   0.36363636  0.27272727  0.27272727       0.009
   0.00000000  0.00000000  0.36363636       0.002
   0.09090909 -0.00000000  0.36363636       0.009
   0.18181818 -0.00000000  0.36363636       0.009
   0.27272727  0.00000000  0.36363636       0.009
   0.36363636 -0.00000000  0.36363636       0.009
   0.45454545 -0.00000000  0.36363636       0.009
   0.09090909  0.09090909  0.36363636       0.009
   0.18181818  0.09090909  0.36363636       0.018
   0.27272727  0.09090909  0.36363636       0.018
   0.36363636  0.09090909  0.36363636       0.018
   0.45454545  0.09090909  0.36363636       0.009
   0.18181818  0.18181818  0.36363636       0.009
   0.27272727  0.18181818  0.36363636       0.018
   0.36363636  0.18181818  0.36363636       0.018
   0.27272727  0.27272727  0.36363636       0.009
   0.36363636  0.27272727  0.36363636       0.009
   0.00000000  0.00000000  0.45454545       0.002
   0.09090909 -0.00000000  0.45454545       0.009
   0.18181818 -0.00000000  0.45454545       0.009
   0.27272727  0.00000000  0.45454545       0.009
   0.36363636 -0.00000000  0.45454545       0.009
   0.45454545 -0.00000000  0.45454545       0.009
   0.09090909  0.09090909  0.45454545       0.009
   0.18181818  0.09090909  0.45454545       0.018
   0.27272727  0.09090909  0.45454545       0.018
   0.36363636  0.09090909  0.45454545       0.018
   0.45454545  0.09090909  0.45454545       0.009
   0.18181818  0.18181818  0.45454545       0.009
   0.27272727  0.18181818  0.45454545       0.018
   0.36363636  0.18181818  0.45454545       0.018
   0.27272727  0.27272727  0.45454545       0.009
   0.36363636  0.27272727  0.45454545       0.009
 
 position of ions in fractional coordinates (direct lattice) 
   0.00000000  0.00000000  0.00000000
   0.33333333  0.66666667  0.50000000
 
 position of ions in cartesian coordinates  (Angst):
   0.00000000  0.00000000  0.00000000
   0.00000000  1.39903517  2.11068000
 


--------------------------------------------------------------------------------------------------------


 k-point   1 :   0.0000 0.0000 0.0000  plane waves:     245
 k-point   2 :   0.0909-0.0000 0.0000  plane waves:     235
 k-point   3 :   0.1818-0.0000 0.0000  plane waves:     230
 k-point   4 :   0.2727 0.0000 0.0000  plane waves:     224
 k-point   5 :   0.3636-0.0000 0.0000  plane waves:     230
 k-point   6 :   0.4545-0.0000 0.0000  plane waves:     230
 k-point   7 :   0.0909 0.0909 0.0000  plane waves:     229
 k-point   8 :   0.1818 0.0909 0.0000  plane waves:     229
 k-point   9 :   0.2727 0.0909 0.0000  plane waves:     234
 k-point  10 :   0.3636 0.0909 0.0000  plane waves:     229
 k-point  11 :   0.4545 0.0909 0.0000  plane waves:     226
 k-point  12 :   0.1818 0.1818 0.0000  plane waves:     231
 k-point  13 :   0.2727 0.1818 0.0000  plane waves:     227
 k-point  14 :   0.3636 0.1818 0.0000  plane waves:     226
 k-point  15 :   0.2727 0.2727 0.0000  plane waves:     227
 k-point  16 :   0.3636 0.2727 0.0000  plane waves:     218
 k-point  17 :   0.0000 0.0000 0.0909  plane waves:     245
 k-point  18 :   0.0909-0.0000 0.0909  plane waves:     234
 k-point  19 :   0.1818-0.0000 0.0909  plane waves:     231
 k-point  20 :   0.2727 0.0000 0.0909  plane waves:     226
 k-point  21 :   0.3636-0.0000 0.0909  plane waves:     229
 k-point  22 :   0.4545-0.0000 0.0909  plane waves:     230
 k-point  23 :   0.0909 0.0909 0.0909  plane waves:     229
 k-point  24 :   0.1818 0.0909 0.0909  plane waves:     231
 k-point  25 :   0.2727 0.0909 0.0909  plane waves:     230
 k-point  26 :   0.3636 0.0909 0.0909  plane waves:     228
 k-point  27 :   0.4545 0.0909 0.0909  plane waves:     223
 k-point  28 :   0.1818 0.1818 0.0909  plane waves:     229
 k-point  29 :   0.2727 0.1818 0.0909  plane waves:     227
 k-point  30 :   0.3636 0.1818 0.0909  plane waves:     227
 k-point  31 :   0.2727 0.2727 0.0909  plane waves:     225
 k-point  32 :   0.3636 0.2727 0.0909  plane waves:     220
 k-point  33 :   0.0000 0.0000 0.1818  plane waves:     239
 k-point  34 :   0.0909-0.0000 0.1818  plane waves:     234
 k-point  35 :   0.1818-0.0000 0.1818  plane waves:     233
 k-point  36 :   0.2727 0.0000 0.1818  plane waves:     225
 k-point  37 :   0.3636-0.0000 0.1818  plane waves:     229
 k-point  38 :   0.4545-0.0000 0.1818  plane waves:     231
 k-point  39 :   0.0909 0.0909 0.1818  plane waves:     233
 k-point  40 :   0.1818 0.0909 0.1818  plane waves:     230
 k-point  41 :   0.2727 0.0909 0.1818  plane waves:     231
 k-point  42 :   0.3636 0.0909 0.1818  plane waves:     226
 k-point  43 :   0.4545 0.0909 0.1818  plane waves:     225
 k-point  44 :   0.1818 0.1818 0.1818  plane waves:     225
 k-point  45 :   0.2727 0.1818 0.1818  plane waves:     227
 k-point  46 :   0.3636 0.1818 0.1818  plane waves:     227
 k-point  47 :   0.2727 0.2727 0.1818  plane waves:     224
 k-point  48 :   0.3636 0.2727 0.1818  plane waves:     226
 k-point  49 :   0.0000 0.0000 0.2727  plane waves:     228
 k-point  50 :   0.0909-0.0000 0.2727  plane waves:     233
 k-point  51 :   0.1818-0.0000 0.2727  plane waves:     238
 k-point  52 :   0.2727 0.0000 0.2727  plane waves:     227
 k-point  53 :   0.3636-0.0000 0.2727  plane waves:     225
 k-point  54 :   0.4545-0.0000 0.2727  plane waves:     229
 k-point  55 :   0.0909 0.0909 0.2727  plane waves:     233
 k-point  56 :   0.1818 0.0909 0.2727  plane waves:     229
 k-point  57 :   0.2727 0.0909 0.2727  plane waves:     225
 k-point  58 :   0.3636 0.0909 0.2727  plane waves:     228
 k-point  59 :   0.4545 0.0909 0.2727  plane waves:     230
 k-point  60 :   0.1818 0.1818 0.2727  plane waves:     227
 k-point  61 :   0.2727 0.1818 0.2727  plane waves:     226
 k-point  62 :   0.3636 0.1818 0.2727  plane waves:     224
 k-point  63 :   0.2727 0.2727 0.2727  plane waves:     226
 k-point  64 :   0.3636 0.2727 0.2727  plane waves:     228
 k-point  65 :   0.0000 0.0000 0.3636  plane waves:     228
 k-point  66 :   0.0909-0.0000 0.3636  plane waves:     231
 k-point  67 :   0.1818-0.0000 0.3636  plane waves:     228
 k-point  68 :   0.2727 0.0000 0.3636  plane waves:     225
 k-point  69 :   0.3636-0.0000 0.3636  plane waves:     231
 k-point  70 :   0.4545-0.0000 0.3636  plane waves:     232
 k-point  71 :   0.0909 0.0909 0.3636  plane waves:     234
 k-point  72 :   0.1818 0.0909 0.3636  plane waves:     230
 k-point  73 :   0.2727 0.0909 0.3636  plane waves:     227
 k-point  74 :   0.3636 0.0909 0.3636  plane waves:     228
 k-point  75 :   0.4545 0.0909 0.3636  plane waves:     230
 k-point  76 :   0.1818 0.1818 0.3636  plane waves:     224
 k-point  77 :   0.2727 0.1818 0.3636  plane waves:     227
 k-point  78 :   0.3636 0.1818 0.3636  plane waves:     229
 k-point  79 :   0.2727 0.2727 0.3636  plane waves:     230
 k-point  80 :   0.3636 0.2727 0.3636  plane waves:     229
 k-point  81 :   0.0000 0.0000 0.4545  plane waves:     228
 k-point  82 :   0.0909-0.0000 0.4545  plane waves:     233
 k-point  83 :   0.1818-0.0000 0.4545  plane waves:     227
 k-point  84 :   0.2727 0.0000 0.4545  plane waves:     225
 k-point  85 :   0.3636-0.0000 0.4545  plane waves:     226
 k-point  86 :   0.4545-0.0000 0.4545  plane waves:     228
 k-point  87 :   0.0909 0.0909 0.4545  plane waves:     228
 k-point  88 :   0.1818 0.0909 0.4545  plane waves:     225
 k-point  89 :   0.2727 0.0909 0.4545  plane waves:     226
 k-point  90 :   0.3636 0.0909 0.4545  plane waves:     227
 k-point  91 :   0.4545 0.0909 0.4545  plane waves:     231
 k-point  92 :   0.1818 0.1818 0.4545  plane waves:     230
 k-point  93 :   0.2727 0.1818 0.4545  plane waves:     229
 k-point  94 :   0.3636 0.1818 0.4545  plane waves:     231
 k-point  95 :   0.2727 0.2727 0.4545  plane waves:     230
 k-point  96 :   0.3636 0.2727 0.4545  plane waves:     232

 maximum number of plane-waves:       245
 maximum index in each direction: 
   IXMAX=    3   IYMAX=    3   IZMAX=    5
   IXMIN=   -3   IYMIN=   -3   IZMIN=   -6


 total amount of memory used by VASP MPI-rank0    51501. kBytes
=======================================================================

   base      :      30000. kBytes
   nonl-proj :       3394. kBytes
   grid      :        812. kBytes
   one-center:         31. kBytes
   wavefun   :      17264. kBytes
 
     INWAV:  cpu time    0.0000: real time    0.0000
 Broyden mixing: mesh for mixing (old mesh)
   NGX =  7   NGY =  7   NGZ = 11
  (NGX  = 20   NGY  = 20   NGZ  = 36)
  gives a total of    539 points

 initial charge density was supplied:
 charge density of overlapping atoms calculated
 number of electron      16.0000000 magnetization 
 keeping initial charge density in first step


--------------------------------------------------------------------------------------------------------


 Maximum index for augmentation-charges         2904 (set IRDMAX)


--------------------------------------------------------------------------------------------------------


 First call to EWALD:  gamma=   0.638
 Maximum number of real-space cells 3x 3x 2
 Maximum number of reciprocal cells 2x 2x 4

    FEWALD:  cpu time    0.0009: real time    0.0009


--------------------------------------- Iteration      1(   1)  ---------------------------------------


    POTLOK:  cpu time    0.0039: real time    0.0039
    SETDIJ:  cpu time    0.0024: real time    0.0024
     EDDAV:  cpu time    0.7993: real time    0.8197
       DOS:  cpu time    0.0057: real time    0.0057
    --------------------------------------------
      LOOP:  cpu time    0.8113: real time    0.8318

 eigenvalue-minimisations  :  9160
 total energy-change (2. order) : 0.6160556E+02  (-0.2742606E+03)
 number of electron      16.0000000 magnetization 
 augmentation part       16.0000000 magnetization 

 Free energy of the ion-electron system (eV)
  ---------------------------------------------------
  alpha Z        PSCENC =       128.78434381
  Ewald energy   TEWEN  =     -1205.92256990
  -Hartree energ DENC   =      -215.14998848
  -exchange      EXHF   =         0.00000000
  -V(xc)+E(xc)   XCENC  =         8.16773645
  PAW double counting   =      1109.69170683    -1125.09647265
  entropy T*S    EENTRO =         0.00029147
  eigenvalues    EBANDS =       172.55560682
  atomic energy  EATOM  =      1188.57490811
  Solvation  Ediel_sol  =         0.00000000
  ---------------------------------------------------
  free energy    TOTEN  =        61.60556247 eV

  energy without entropy =       61.60527099  energy(sigma->0) =       61.60546531


--------------------------------------------------------------------------------------------------------




--------------------------------------- Iteration      1(   2)  ---------------------------------------


     EDDAV:  cpu time    0.6997: real time    0.6997
       DOS:  cpu time    0.0064: real time    0.0064
    --------------------------------------------
      LOOP:  cpu time    0.7061: real time    0.7061

 eigenvalue-minimisations  :  7960
 total energy-change (2. order) :-0.7628750E+02  (-0.6444466E+02)
 number of electron      16.0000000 magnetization 
 augmentation part       16.0000000 magnetization 

 Free energy of the ion-electron system (eV)
  ---------------------------------------------------
  alpha Z        PSCENC =       128.78434381
  Ewald energy   TEWEN  =     -1205.92256990
  -Hartree energ DENC   =      -215.14998848
  -exchange      EXHF   =         0.00000000
  -V(xc)+E(xc)   XCENC  =         8.16773645
  PAW double counting   =      1109.69170683    -1125.09647265
  entropy T*S    EENTRO =         0.00106898
  eigenvalues    EBANDS =        96.26733396
  atomic energy  EATOM  =      1188.57490811
  Solvation  Ediel_sol  =         0.00000000
  ---------------------------------------------------
  free energy    TOTEN  =       -14.68193288 eV

  energy without entropy =      -14.68300186  energy(sigma->0) =      -14.68228921


--------------------------------------------------------------------------------------------------------




--------------------------------------- Iteration      1(   3)  ---------------------------------------


     EDDAV:  cpu time    0.7941: real time    0.7942
       DOS:  cpu time    0.0062: real time    0.0062
    --------------------------------------------
      LOOP:  cpu time    0.8004: real time    0.8004

 eigenvalue-minimisations  :  9464
 total energy-change (2. order) :-0.4611223E+01  (-0.4361592E+01)
 number of electron      16.0000000 magnetization 
 augmentation part       16.0000000 magnetization 

 Free energy of the ion-electron system (eV)
  ---------------------------------------------------
  alpha Z        PSCENC =       128.78434381
  Ewald energy   TEWEN  =     -1205.92256990
  -Hartree energ DENC   =      -215.14998848
  -exchange      EXHF   =         0.00000000
  -V(xc)+E(xc)   XCENC  =         8.16773645
  PAW double counting   =      1109.69170683    -1125.09647265
  entropy T*S    EENTRO =         0.00042184
  eigenvalues    EBANDS =        91.65675766
  atomic energy  EATOM  =      1188.57490811
  Solvation  Ediel_sol  =         0.00000000
  ---------------------------------------------------
  free energy    TOTEN  =       -19.29315632 eV

  energy without entropy =      -19.29357816  energy(sigma->0) =      -19.29329693


--------------------------------------------------------------------------------------------------------




--------------------------------------- Iteration      1(   4)  ---------------------------------------


     EDDAV:  cpu time    0.7753: real time    0.7753
       DOS:  cpu time    0.0062: real time    0.0062
    --------------------------------------------
      LOOP:  cpu time    0.7814: real time    0.7815

 eigenvalue-minimisations  :  9216
 total energy-change (2. order) :-0.2375317E-01  (-0.2373659E-01)
 number of electron      16.0000000 magnetization 
 augmentation part       16.0000000 magnetization 

 Free energy of the ion-electron system (eV)
  ---------------------------------------------------
  alpha Z        PSCENC =       128.78434381
  Ewald energy   TEWEN  =     -1205.92256990
  -Hartree energ DENC   =      -215.14998848
  -exchange      EXHF   =         0.00000000
  -V(xc)+E(xc)   XCENC  =         8.16773645
  PAW double counting   =      1109.69170683    -1125.09647265
  entropy T*S    EENTRO =         0.00047333
  eigenvalues    EBANDS =        91.63295300
  atomic energy  EATOM  =      1188.57490811
  Solvation  Ediel_sol  =         0.00000000
  ---------------------------------------------------
  free energy    TOTEN  =       -19.31690949 eV

  energy without entropy =      -19.31738282  energy(sigma->0) =      -19.31706727


--------------------------------------------------------------------------------------------------------




--------------------------------------- Iteration      1(   5)  ---------------------------------------


     EDDAV:  cpu time    0.7780: real time    0.7781
       DOS:  cpu time    0.0066: real time    0.0066
    CHARGE:  cpu time    0.0200: real time    0.0200
    MIXING:  cpu time    0.0001: real time    0.0001
    --------------------------------------------
      LOOP:  cpu time    0.8048: real time    0.8048

 eigenvalue-minimisations  :  9192
 total energy-change (2. order) :-0.3883362E-04  (-0.3883276E-04)
 number of electron      15.9999850 magnetization 
 augmentation part        7.0372900 magnetization 

 Broyden mixing:
  rms(total) = 0.16219E+01    rms(broyden)= 0.16219E+01
  rms(prec ) = 0.28973E+01
  weight for this iteration     100.00

 Free energy of the ion-electron system (eV)
  ---------------------------------------------------
  alpha Z        PSCENC =       128.78434381
  Ewald energy   TEWEN  =     -1205.92256990
  -Hartree energ DENC   =      -215.14998848
  -exchange      EXHF   =         0.00000000
  -V(xc)+E(xc)   XCENC  =         8.16773645
  PAW double counting   =      1109.69170683    -1125.09647265
  entropy T*S    EENTRO =         0.00047339
  eigenvalues    EBANDS =        91.63291411
  atomic energy  EATOM  =      1188.57490811
  Solvation  Ediel_sol  =         0.00000000
  ---------------------------------------------------
  free energy    TOTEN  =       -19.31694832 eV

  energy without entropy =      -19.31742171  energy(sigma->0) =      -19.31710612


--------------------------------------------------------------------------------------------------------




--------------------------------------- Iteration      1(   6)  ---------------------------------------


    POTLOK:  cpu time    0.0034: real time    0.0034
    SETDIJ:  cpu time    0.0021: real time    0.0021
     EDDAV:  cpu time    0.9147: real time    0.9147
       DOS:  cpu time    0.0068: real time    0.0068
    CHARGE:  cpu time    0.0195: real time    0.0195
    MIXING:  cpu time    0.0002: real time    0.0002
    --------------------------------------------
      LOOP:  cpu time    0.9466: real time    0.9467

 eigenvalue-minimisations  : 11120
 total energy-change (2. order) : 0.2913634E+01  (-0.2029488E+00)
 number of electron      15.9999811 magnetization 
 augmentation part        8.5651712 magnetization 

 Broyden mixing:
  rms(total) = 0.32314E+00    rms(broyden)= 0.32303E+00
  rms(prec ) = 0.56729E+00
  weight for this iteration     100.00

 eigenvalues of (default mixing * dielectric matrix)
  average eigenvalue GAMMA=   0.8799
  0.8799

 Free energy of the ion-electron system (eV)
  ---------------------------------------------------
  alpha Z        PSCENC =       128.78434381
  Ewald energy   TEWEN  =     -1205.92256990
  -Hartree energ DENC   =      -179.08048066
  -exchange      EXHF   =         0.00000000
  -V(xc)+E(xc)   XCENC  =         6.41078787
  PAW double counting   =      1226.09937980    -1236.58046843
  entropy T*S    EENTRO =         0.00298815
  eigenvalues    EBANDS =        55.30779668
  atomic energy  EATOM  =      1188.57490811
  Solvation  Ediel_sol  =         0.00000000
  ---------------------------------------------------
  free energy    TOTEN  =       -16.40331456 eV

  energy without entropy =      -16.40630271  energy(sigma->0) =      -16.40431061


--------------------------------------------------------------------------------------------------------




--------------------------------------- Iteration      1(   7)  ---------------------------------------


    POTLOK:  cpu time    0.0034: real time    0.0034
    SETDIJ:  cpu time    0.0021: real time    0.0021
     EDDAV:  cpu time    0.8368: real time    0.8368
       DOS:  cpu time    0.0069: real time    0.0069
    CHARGE:  cpu time    0.0196: real time    0.0196
    MIXING:  cpu time    0.0002: real time    0.0002
    --------------------------------------------
      LOOP:  cpu time    0.8688: real time    0.8689

 eigenvalue-minimisations  : 10096
 total energy-change (2. order) : 0.2624347E+00  (-0.1686572E-01)
 number of electron      15.9999820 magnetization 
 augmentation part        8.1857227 magnetization 

 Broyden mixing:
  rms(total) = 0.98924E-01    rms(broyden)= 0.98922E-01
  rms(prec ) = 0.20454E+00
  weight for this iteration     100.00

 eigenvalues of (default mixing * dielectric matrix)
  average eigenvalue GAMMA=   0.9274
  1.1391  0.7156

 Free energy of the ion-electron system (eV)
  ---------------------------------------------------
  alpha Z        PSCENC =       128.78434381
  Ewald energy   TEWEN  =     -1205.92256990
  -Hartree energ DENC   =      -184.76728389
  -exchange      EXHF   =         0.00000000
  -V(xc)+E(xc)   XCENC  =         6.72031564
  PAW double counting   =      1295.77243696    -1309.93561284
  entropy T*S    EENTRO =         0.00296941
  eigenvalues    EBANDS =        64.62961280
  atomic energy  EATOM  =      1188.57490811
  Solvation  Ediel_sol  =         0.00000000
  ---------------------------------------------------
  free energy    TOTEN  =       -16.14087991 eV

  energy without entropy =      -16.14384932  energy(sigma->0) =      -16.14186971


--------------------------------------------------------------------------------------------------------




--------------------------------------- Iteration      1(   8)  ---------------------------------------


    POTLOK:  cpu time    0.0034: real time    0.0034
    SETDIJ:  cpu time    0.0021: real time    0.0021
     EDDAV:  cpu time    0.8365: real time    0.8365
       DOS:  cpu time    0.0068: real time    0.0068
    CHARGE:  cpu time    0.0196: real time    0.0196
    MIXING:  cpu time    0.0002: real time    0.0002
    --------------------------------------------
      LOOP:  cpu time    0.8686: real time    0.8686

 eigenvalue-minimisations  : 10088
 total energy-change (2. order) : 0.2466997E-01  (-0.4450721E-03)
 number of electron      15.9999819 magnetization 
 augmentation part        8.2186713 magnetization 

 Broyden mixing:
  rms(total) = 0.46651E-01    rms(broyden)= 0.46650E-01
  rms(prec ) = 0.95459E-01
  weight for this iteration     100.00

 eigenvalues of (default mixing * dielectric matrix)
  average eigenvalue GAMMA=   1.4307
  0.7594  1.0424  2.4902

 Free energy of the ion-electron system (eV)
  ---------------------------------------------------
  alpha Z        PSCENC =       128.78434381
  Ewald energy   TEWEN  =     -1205.92256990
  -Hartree energ DENC   =      -182.74283144
  -exchange      EXHF   =         0.00000000
  -V(xc)+E(xc)   XCENC  =         6.64041506
  PAW double counting   =      1345.53614389    -1360.88435810
  entropy T*S    EENTRO =         0.00305007
  eigenvalues    EBANDS =        63.89468856
  atomic energy  EATOM  =      1188.57490811
  Solvation  Ediel_sol  =         0.00000000
  ---------------------------------------------------
  free energy    TOTEN  =       -16.11620994 eV

  energy without entropy =      -16.11926001  energy(sigma->0) =      -16.11722663


--------------------------------------------------------------------------------------------------------




--------------------------------------- Iteration      1(   9)  ---------------------------------------


    POTLOK:  cpu time    0.0033: real time    0.0033
    SETDIJ:  cpu time    0.0021: real time    0.0021
     EDDAV:  cpu time    0.9269: real time    0.9269
       DOS:  cpu time    0.0065: real time    0.0065
    CHARGE:  cpu time    0.0195: real time    0.0195
    MIXING:  cpu time    0.0002: real time    0.0002
    --------------------------------------------
      LOOP:  cpu time    0.9585: real time    0.9585

 eigenvalue-minimisations  : 11320
 total energy-change (2. order) : 0.1105950E-01  (-0.9234836E-04)
 number of electron      15.9999819 magnetization 
 augmentation part        8.2365360 magnetization 

 Broyden mixing:
  rms(total) = 0.63062E-02    rms(broyden)= 0.63036E-02
  rms(prec ) = 0.65905E-02
  weight for this iteration     100.00

 eigenvalues of (default mixing * dielectric matrix)
  average eigenvalue GAMMA=   1.4931
  2.5407  0.7580  1.0016  1.6721

 Free energy of the ion-electron system (eV)
  ---------------------------------------------------
  alpha Z        PSCENC =       128.78434381
  Ewald energy   TEWEN  =     -1205.92256990
  -Hartree energ DENC   =      -180.57582485
  -exchange      EXHF   =         0.00000000
  -V(xc)+E(xc)   XCENC  =         6.56285652
  PAW double counting   =      1417.11127383    -1434.18970600
  entropy T*S    EENTRO =         0.00305014
  eigenvalues    EBANDS =        63.54651790
  atomic energy  EATOM  =      1188.57490811
  Solvation  Ediel_sol  =         0.00000000
  ---------------------------------------------------
  free energy    TOTEN  =       -16.10515044 eV

  energy without entropy =      -16.10820058  energy(sigma->0) =      -16.10616715


--------------------------------------------------------------------------------------------------------




--------------------------------------- Iteration      1(  10)  ---------------------------------------


    POTLOK:  cpu time    0.0034: real time    0.0034
    SETDIJ:  cpu time    0.0021: real time    0.0021
     EDDAV:  cpu time    0.7626: real time    0.7626
       DOS:  cpu time    0.0067: real time    0.0067
    CHARGE:  cpu time    0.0199: real time    0.0199
    MIXING:  cpu time    0.0002: real time    0.0002
    --------------------------------------------
      LOOP:  cpu time    0.7949: real time    0.7949

 eigenvalue-minimisations  :  9072
 total energy-change (2. order) :-0.2715408E-04  (-0.3997117E-05)
 number of electron      15.9999819 magnetization 
 augmentation part        8.2370378 magnetization 

 Broyden mixing:
  rms(total) = 0.27203E-02    rms(broyden)= 0.27191E-02
  rms(prec ) = 0.32206E-02
  weight for this iteration     100.00

 eigenvalues of (default mixing * dielectric matrix)
  average eigenvalue GAMMA=   1.6096
  2.5504  2.5504  0.7581  1.0113  1.1776

 Free energy of the ion-electron system (eV)
  ---------------------------------------------------
  alpha Z        PSCENC =       128.78434381
  Ewald energy   TEWEN  =     -1205.92256990
  -Hartree energ DENC   =      -180.57412464
  -exchange      EXHF   =         0.00000000
  -V(xc)+E(xc)   XCENC  =         6.56389415
  PAW double counting   =      1419.44571191    -1436.51023854
  entropy T*S    EENTRO =         0.00304427
  eigenvalues    EBANDS =        63.52985323
  atomic energy  EATOM  =      1188.57490811
  Solvation  Ediel_sol  =         0.00000000
  ---------------------------------------------------
  free energy    TOTEN  =       -16.10517759 eV

  energy without entropy =      -16.10822186  energy(sigma->0) =      -16.10619235


--------------------------------------------------------------------------------------------------------




--------------------------------------- Iteration      1(  11)  ---------------------------------------


    POTLOK:  cpu time    0.0033: real time    0.0033
    SETDIJ:  cpu time    0.0021: real time    0.0021
     EDDAV:  cpu time    0.7745: real time    0.7745
       DOS:  cpu time    0.0068: real time    0.0068
    CHARGE:  cpu time    0.0197: real time    0.0197
    MIXING:  cpu time    0.0002: real time    0.0002
    --------------------------------------------
      LOOP:  cpu time    0.8066: real time    0.8066

 eigenvalue-minimisations  :  9072
 total energy-change (2. order) : 0.4966802E-05  (-0.4306624E-07)
 number of electron      15.9999819 magnetization 
 augmentation part        8.2367830 magnetization 

 Broyden mixing:
  rms(total) = 0.16327E-03    rms(broyden)= 0.16276E-03
  rms(prec ) = 0.19344E-03
  weight for this iteration     100.00

 eigenvalues of (default mixing * dielectric matrix)
  average eigenvalue GAMMA=   1.5350
  2.5691  2.5691  0.7580  1.0030  1.0030  1.3078

 Free energy of the ion-electron system (eV)
  ---------------------------------------------------
  alpha Z        PSCENC =       128.78434381
  Ewald energy   TEWEN  =     -1205.92256990
  -Hartree energ DENC   =      -180.62794325
  -exchange      EXHF   =         0.00000000
  -V(xc)+E(xc)   XCENC  =         6.56658139
  PAW double counting   =      1419.45568502    -1436.47008049
  entropy T*S    EENTRO =         0.00304417
  eigenvalues    EBANDS =        63.53085851
  atomic energy  EATOM  =      1188.57490811
  Solvation  Ediel_sol  =         0.00000000
  ---------------------------------------------------
  free energy    TOTEN  =       -16.10517263 eV

  energy without entropy =      -16.10821680  energy(sigma->0) =      -16.10618735


--------------------------------------------------------------------------------------------------------




--------------------------------------- Iteration      1(  12)  ---------------------------------------


    POTLOK:  cpu time    0.0034: real time    0.0034
    SETDIJ:  cpu time    0.0021: real time    0.0021
     EDDAV:  cpu time    0.5853: real time    0.5853
       DOS:  cpu time    0.0069: real time    0.0069
    --------------------------------------------
      LOOP:  cpu time    0.5976: real time    0.5976

 eigenvalue-minimisations  :  5936
 total energy-change (2. order) : 0.2757999E-06  (-0.4613634E-08)
 number of electron      15.9999819 magnetization 
 augmentation part        8.2367830 magnetization 

 Free energy of the ion-electron system (eV)
  ---------------------------------------------------
  alpha Z        PSCENC =       128.78434381
  Ewald energy   TEWEN  =     -1205.92256990
  -Hartree energ DENC   =      -180.62974692
  -exchange      EXHF   =         0.00000000
  -V(xc)+E(xc)   XCENC  =         6.56669554
  PAW double counting   =      1419.57790824    -1436.58984339
  entropy T*S    EENTRO =         0.00304451
  eigenvalues    EBANDS =        63.53008765
  atomic energy  EATOM  =      1188.57490811
  Solvation  Ediel_sol  =         0.00000000
  ---------------------------------------------------
  free energy    TOTEN  =       -16.10517235 eV

  energy without entropy =      -16.10821686  energy(sigma->0) =      -16.10618719


--------------------------------------------------------------------------------------------------------




 average (electrostatic) potential at core
  the test charge radii are     1.0103
  (the norm of the test charge is              1.0000)
       1 -43.1598       2 -43.1597
 
 
 
 E-fermi :   6.3099     XC(G=0): -13.4896     alpha+bet :-14.4415

 Fermi energy:         6.3099120033

 k-point     1 :       0.0000    0.0000    0.0000
  band No.  band energies     occupation 
      1      -2.2792      2.00000
      2       1.6056      2.00000
      3       4.3437      2.00000
      4       4.8589      2.00000
      5       4.8591      2.00000
      6       5.1542      2.00000
      7       5.1544      2.00000
      8       5.7792      2.00113
      9       5.9727      2.03832
     10       5.9727      2.03834
     11       6.9932     -0.00002
     12       6.9933     -0.00002
     13      13.2579      0.00000
     14      29.1267      0.00000
     15      29.5661      0.00000
     16      32.0303      0.00000
     17      33.6286      0.00000
     18      33.6287      0.00000
     19      34.4928      0.00000
     20      34.4930      0.00000
     21      35.7635      0.00000
     22      37.6629      0.00000
     23      37.6629      0.00000
     24      38.6881      0.00000
     25      40.9836      0.00000
     26      40.9836      0.00000
     27      41.5330      0.00000
     28      44.2673      0.00000
     29      44.2677      0.00000
     30      45.9470      0.00000
     31      45.9472      0.00000
     32      48.4850      0.00000
     33      56.4012      0.00000
     34      60.1417      0.00000
     35      60.1430      0.00000
     36      60.8669      0.00000
     37      61.4103      0.00000
     38      61.9027      0.00000
     39      61.9225      0.00000
     40      62.2563      0.00000

 k-point     2 :       0.0909   -0.0000    0.0000
  band No.  band energies     occupation 
      1      -1.9650      2.00000
      2       1.8355      2.00000
      3       4.3307      2.00000
      4       4.8262      2.00000
      5       4.9415      2.00000
      6       5.0354      2.00000
      7       5.0547      2.00000
      8       5.3170      2.00000
      9       5.8500      2.00540
     10       5.8708      2.00809
     11       7.0252     -0.00001
     12       8.0925     -0.00000
     13      13.2859      0.00000
     14      27.6758      0.00000
     15      29.8838      0.00000
     16      30.1639      0.00000
     17      30.9939      0.00000
     18      33.6013      0.00000
     19      33.7956      0.00000
     20      35.5788      0.00000
     21      37.0368      0.00000
     22      37.3465      0.00000
     23      37.7246      0.00000
     24      38.0477      0.00000
     25      41.6981      0.00000
     26      41.9405      0.00000
     27      42.1826      0.00000
     28      42.6376      0.00000
     29      45.8494      0.00000
     30      47.3355      0.00000
     31      48.4530      0.00000
     32      50.4971      0.00000
     33      56.0452      0.00000
     34      58.4720      0.00000
     35      58.7089      0.00000
     36      59.1866      0.00000
     37      60.2432      0.00000
     38      62.1208      0.00000
     39      63.1868      0.00000
     40      63.8989      0.00000

 k-point     3 :       0.1818   -0.0000    0.0000
  band No.  band energies     occupation 
      1      -1.0706      2.00000
      2       2.3840      2.00000
      3       3.9416      2.00000
      4       4.1231      2.00000
      5       4.6753      2.00000
      6       5.1900      2.00000
      7       5.5257      2.00000
      8       5.5440      2.00000
      9       5.6297      2.00002
     10       5.7671      2.00084
     11       7.0824     -0.00000
     12       9.8411     -0.00000
     13      13.3971      0.00000
     14      23.8387      0.00000
     15      28.2851      0.00000
     16      28.9606      0.00000
     17      29.5061      0.00000
     18      30.7832      0.00000
     19      33.9129      0.00000
     20      35.1524      0.00000
     21      35.5008      0.00000
     22      36.1261      0.00000
     23      38.3062      0.00000
     24      39.2040      0.00000
     25      41.6553      0.00000
     26      43.1115      0.00000
     27      44.7778      0.00000
     28      46.8932      0.00000
     29      48.3142      0.00000
     30      51.1752      0.00000
     31      51.3825      0.00000
     32      54.0038      0.00000
     33      54.7569      0.00000
     34      55.2390      0.00000
     35      56.9726      0.00000
     36      58.7550      0.00000
     37      59.6464      0.00000
     38      61.9442      0.00000
     39      64.6033      0.00000
     40      64.9414      0.00000

 k-point     4 :       0.2727    0.0000    0.0000
  band No.  band energies     occupation 
      1       0.2220      2.00000
      2       2.6889      2.00000
      3       3.1802      2.00000
      4       4.0450      2.00000
      5       4.5089      2.00000
      6       5.1549      2.00000
      7       5.3539      2.00000
      8       5.8620      2.00684
      9       6.2210      1.67603
     10       6.3969      0.33525
     11       7.1151     -0.00000
     12      11.8238      0.00000
     13      13.6443      0.00000
     14      19.9264      0.00000
     15      25.9282      0.00000
     16      25.9764      0.00000
     17      27.2748      0.00000
     18      30.5905      0.00000
     19      31.9147      0.00000
     20      35.4347      0.00000
     21      35.4519      0.00000
     22      35.9584      0.00000
     23      35.9713      0.00000
     24      39.8029      0.00000
     25      45.2555      0.00000
     26      46.9435      0.00000
     27      48.1506      0.00000
     28      49.3559      0.00000
     29      50.5204      0.00000
     30      51.4795      0.00000
     31      52.9772      0.00000
     32      53.9365      0.00000
     33      56.7003      0.00000
     34      56.8899      0.00000
     35      57.4753      0.00000
     36      58.6150      0.00000
     37      61.1893      0.00000
     38      61.6183      0.00000
     39      64.0846      0.00000
     40      65.3348      0.00000

 k-point     5 :       0.3636   -0.0000    0.0000
  band No.  band energies     occupation 
      1       1.4491      2.00000
      2       2.4713      2.00000
      3       2.6818      2.00000
      4       4.1932      2.00000
      5       4.8064      2.00000
      6       4.8338      2.00000
      7       5.1233      2.00000
      8       6.9168     -0.00015
      9       6.9612     -0.00004
     10       7.0256     -0.00001
     11       7.1248     -0.00000
     12      13.5861      0.00000
     13      13.9617      0.00000
     14      17.1113      0.00000
     15      22.7112      0.00000
     16      24.2201      0.00000
     17      24.4322      0.00000
     18      29.6985      0.00000
     19      30.8683      0.00000
     20      34.0242      0.00000
     21      34.9818      0.00000
     22      36.7439      0.00000
     23      37.4488      0.00000
     24      40.2129      0.00000
     25      47.2873      0.00000
     26      48.2889      0.00000
     27      48.8381      0.00000
     28      52.0007      0.00000
     29      52.1153      0.00000
     30      52.9163      0.00000
     31      55.1259      0.00000
     32      55.8356      0.00000
     33      56.2658      0.00000
     34      58.2348      0.00000
     35      60.0905      0.00000
     36      61.2563      0.00000
     37      61.8606      0.00000
     38      62.8290      0.00000
     39      64.5632      0.00000
     40      64.9809      0.00000

 k-point     6 :       0.4545   -0.0000    0.0000
  band No.  band energies     occupation 
      1       2.0242      2.00000
      2       2.2296      2.00000
      3       2.4379      2.00000
      4       4.6048      2.00000
      5       4.6595      2.00000
      6       4.9949      2.00000
      7       5.0542      2.00000
      8       7.1229     -0.00000
      9       7.3416     -0.00000
     10       7.4522     -0.00000
     11       8.5046     -0.00000
     12      11.7486     -0.00000
     13      16.0032      0.00000
     14      17.1648      0.00000
     15      20.1574      0.00000
     16      21.7876      0.00000
     17      23.2447      0.00000
     18      29.0974      0.00000
     19      30.5380      0.00000
     20      32.9636      0.00000
     21      34.7748      0.00000
     22      37.5112      0.00000
     23      39.7444      0.00000
     24      40.2185      0.00000
     25      43.9716      0.00000
     26      48.5621      0.00000
     27      50.4951      0.00000
     28      54.4633      0.00000
     29      54.8430      0.00000
     30      55.1629      0.00000
     31      56.2202      0.00000
     32      58.0854      0.00000
     33      58.5771      0.00000
     34      59.7206      0.00000
     35      60.1562      0.00000
     36      60.3749      0.00000
     37      63.2988      0.00000
     38      63.4812      0.00000
     39      63.8913      0.00000
     40      64.4463      0.00000

 k-point     7 :       0.0909    0.0909    0.0000
  band No.  band energies     occupation 
      1      -1.3585      2.00000
      2       2.2400      2.00000
      3       4.1664      2.00000
      4       4.2019      2.00000
      5       4.8608      2.00000
      6       4.9176      2.00000
      7       5.3933      2.00000
      8       5.4977      2.00000
      9       5.6660      2.00005
     10       5.8464      2.00503
     11       7.0423     -0.00000
     12       9.3533     -0.00000
     13      13.3593      0.00000
     14      25.6114      0.00000
     15      26.6877      0.00000
     16      30.2929      0.00000
     17      31.1393      0.00000
     18      32.2280      0.00000
     19      32.5996      0.00000
     20      34.0483      0.00000
     21      35.1422      0.00000
     22      38.8079      0.00000
     23      39.5679      0.00000
     24      39.8907      0.00000
     25      41.1038      0.00000
     26      41.1484      0.00000
     27      41.2767      0.00000
     28      47.4903      0.00000
     29      49.2370      0.00000
     30      49.3285      0.00000
     31      49.3551      0.00000
     32      53.5020      0.00000
     33      55.3316      0.00000
     34      56.1471      0.00000
     35      56.9360      0.00000
     36      58.6284      0.00000
     37      59.5100      0.00000
     38      62.6159      0.00000
     39      64.4524      0.00000
     40      65.0006      0.00000

 k-point     8 :       0.1818    0.0909    0.0000
  band No.  band energies     occupation 
      1      -0.2452      2.00000
      2       2.7712      2.00000
      3       3.4548      2.00000
      4       3.8670      2.00000
      5       4.5996      2.00000
      6       5.1143      2.00000
      7       5.3096      2.00000
      8       5.6215      2.00001
      9       6.0329      2.06460
     10       6.3131      0.97272
     11       7.0487     -0.00000
     12      11.1231     -0.00000
     13      13.5781      0.00000
     14      21.9301      0.00000
     15      24.4206      0.00000
     16      27.7365      0.00000
     17      29.9080      0.00000
     18      29.9568      0.00000
     19      32.9596      0.00000
     20      33.5570      0.00000
     21      34.1244      0.00000
     22      38.4366      0.00000
     23      38.9365      0.00000
     24      39.5273      0.00000
     25      42.7331      0.00000
     26      43.8513      0.00000
     27      45.5988      0.00000
     28      49.4246      0.00000
     29      51.7857      0.00000
     30      52.2561      0.00000
     31      52.3148      0.00000
     32      54.4512      0.00000
     33      55.4260      0.00000
     34      55.7799      0.00000
     35      56.8784      0.00000
     36      57.0601      0.00000
     37      60.3935      0.00000
     38      62.8454      0.00000
     39      64.5809      0.00000
     40      65.4196      0.00000

 k-point     9 :       0.2727    0.0909    0.0000
  band No.  band energies     occupation 
      1       1.0899      2.00000
      2       2.7648      2.00000
      3       2.9023      2.00000
      4       3.9060      2.00000
      5       4.6468      2.00000
      6       4.8037      2.00000
      7       5.2914      2.00000
      8       5.9948      2.04840
      9       6.7331     -0.01080
     10       7.0463     -0.00000
     11       7.1561     -0.00000
     12      13.1553      0.00000
     13      13.9367      0.00000
     14      18.3241      0.00000
     15      22.7789      0.00000
     16      24.4030      0.00000
     17      26.6436      0.00000
     18      28.7337      0.00000
     19      32.0942      0.00000
     20      33.1933      0.00000
     21      35.0210      0.00000
     22      38.2070      0.00000
     23      38.4515      0.00000
     24      41.0068      0.00000
     25      44.5821      0.00000
     26      47.4818      0.00000
     27      48.8587      0.00000
     28      49.3559      0.00000
     29      50.5429      0.00000
     30      53.0259      0.00000
     31      54.6444      0.00000
     32      55.4782      0.00000
     33      56.4858      0.00000
     34      57.4552      0.00000
     35      59.2963      0.00000
     36      61.3594      0.00000
     37      61.7949      0.00000
     38      62.6645      0.00000
     39      63.3843      0.00000
     40      65.4865      0.00000

 k-point    10 :       0.3636    0.0909    0.0000
  band No.  band energies     occupation 
      1       2.0196      2.00000
      2       2.4809      2.00000
      3       2.5763      2.00000
      4       4.2456      2.00000
      5       4.6220      2.00000
      6       4.9732      2.00000
      7       4.9981      2.00000
      8       6.8144     -0.00209
      9       7.0371     -0.00000
     10       7.2206     -0.00000
     11       8.2553     -0.00000
     12      13.1198      0.00000
     13      15.3172      0.00000
     14      16.9367      0.00000
     15      21.4721      0.00000
     16      21.5193      0.00000
     17      23.4890      0.00000
     18      27.8883      0.00000
     19      31.1499      0.00000
     20      32.6827      0.00000
     21      36.0652      0.00000
     22      38.6826      0.00000
     23      39.5044      0.00000
     24      40.7843      0.00000
     25      45.8938      0.00000
     26      47.3341      0.00000
     27      49.1733      0.00000
     28      51.0990      0.00000
     29      52.2191      0.00000
     30      54.7927      0.00000
     31      55.4194      0.00000
     32      57.2847      0.00000
     33      58.5488      0.00000
     34      60.2039      0.00000
     35      60.7631      0.00000
     36      61.6413      0.00000
     37      62.3814      0.00000
     38      63.2072      0.00000
     39      64.3865      0.00000
     40      64.7298      0.00000

 k-point    11 :       0.4545    0.0909    0.0000
  band No.  band energies     occupation 
      1       2.2669      2.00000
      2       2.3367      2.00000
      3       2.4697      2.00000
      4       4.5712      2.00000
      5       4.5780      2.00000
      6       4.8745      2.00000
      7       5.0821      2.00000
      8       7.0316     -0.00000
      9       7.2788     -0.00000
     10       7.2967     -0.00000
     11       9.4228     -0.00000
     12      11.4283     -0.00000
     13      16.7980      0.00000
     14      17.6174      0.00000
     15      19.7403      0.00000
     16      20.6973      0.00000
     17      22.0882      0.00000
     18      27.5917      0.00000
     19      30.7704      0.00000
[...]
     18      25.7269      0.00000
     19      30.7504      0.00000
     20      31.5315      0.00000
     21      34.4541      0.00000
     22      35.0951      0.00000
     23      39.9294      0.00000
     24      41.1370      0.00000
     25      46.6678      0.00000
     26      48.4151      0.00000
     27      50.2347      0.00000
     28      51.0357      0.00000
     29      53.8875      0.00000
     30      55.7804      0.00000
     31      57.2216      0.00000
     32      57.4898      0.00000
     33      59.6102      0.00000
     34      59.8035      0.00000
     35      61.2226      0.00000
     36      61.2782      0.00000
     37      62.6819      0.00000
     38      62.9264      0.00000
     39      64.0385      0.00000
     40      64.6575      0.00000

 k-point    91 :       0.4545    0.0909    0.4545
  band No.  band energies     occupation 
      1       1.9394      2.00000
      2       2.0743      2.00000
      3       3.2446      2.00000
      4       3.3346      2.00000
      5       5.3264      2.00000
      6       5.7015      2.00015
      7       6.2842      1.21576
      8       6.5599     -0.07073
      9       7.1629     -0.00000
     10       7.1757     -0.00000
     11       9.3759     -0.00000
     12       9.8371     -0.00000
     13      15.3586      0.00000
     14      15.3839      0.00000
     15      23.4195      0.00000
     16      24.2010      0.00000
     17      25.3023      0.00000
     18      25.7872      0.00000
     19      30.4083      0.00000
     20      30.6614      0.00000
     21      33.8778      0.00000
     22      34.0657      0.00000
     23      39.9897      0.00000
     24      41.2094      0.00000
     25      46.7635      0.00000
     26      48.5243      0.00000
     27      53.4040      0.00000
     28      54.4240      0.00000
     29      54.7837      0.00000
     30      55.4132      0.00000
     31      55.6150      0.00000
     32      56.5740      0.00000
     33      60.6174      0.00000
     34      60.6662      0.00000
     35      61.8717      0.00000
     36      61.9872      0.00000
     37      62.6473      0.00000
     38      62.9662      0.00000
     39      65.1443      0.00000
     40      65.3173      0.00000

 k-point    92 :       0.1818    0.1818    0.4545
  band No.  band energies     occupation 
      1       1.8494      2.00000
      2       2.1440      2.00000
      3       3.7180      2.00000
      4       3.7911      2.00000
      5       4.2087      2.00000
      6       4.2693      2.00000
      7       5.6505      2.00003
      8       5.8709      2.00811
      9       6.9744     -0.00003
     10       7.0847     -0.00000
     11       7.5284     -0.00000
     12       8.0312     -0.00000
     13      21.5044      0.00000
     14      21.5500      0.00000
     15      22.0514      0.00000
     16      22.9696      0.00000
     17      23.4486      0.00000
     18      24.6635      0.00000
     19      34.7771      0.00000
     20      35.7805      0.00000
     21      36.4321      0.00000
     22      37.4334      0.00000
     23      38.7194      0.00000
     24      38.8399      0.00000
     25      44.5739      0.00000
     26      44.9762      0.00000
     27      49.3225      0.00000
     28      50.0167      0.00000
     29      51.5524      0.00000
     30      52.7793      0.00000
     31      54.3531      0.00000
     32      54.8889      0.00000
     33      57.1394      0.00000
     34      57.2439      0.00000
     35      59.0762      0.00000
     36      59.5164      0.00000
     37      62.5348      0.00000
     38      63.3890      0.00000
     39      64.2651      0.00000
     40      64.6767      0.00000

 k-point    93 :       0.2727    0.1818    0.4545
  band No.  band energies     occupation 
      1       2.2893      2.00000
      2       2.4021      2.00000
      3       3.5649      2.00000
      4       3.7455      2.00000
      5       4.4704      2.00000
      6       4.6050      2.00000
      7       5.5796      2.00000
      8       5.7986      2.00179
      9       7.0653     -0.00000
     10       7.2908     -0.00000
     11       8.9086     -0.00000
     12       9.4136     -0.00000
     13      18.3416      0.00000
     14      18.9131      0.00000
     15      20.9837      0.00000
     16      21.6865      0.00000
     17      24.0451      0.00000
     18      25.7423      0.00000
     19      32.5697      0.00000
     20      34.1312      0.00000
     21      35.0820      0.00000
     22      36.5146      0.00000
     23      39.4665      0.00000
     24      39.8922      0.00000
     25      45.9521      0.00000
     26      46.4791      0.00000
     27      50.3399      0.00000
     28      52.1399      0.00000
     29      53.7782      0.00000
     30      55.6509      0.00000
     31      56.3929      0.00000
     32      57.3194      0.00000
     33      58.4585      0.00000
     34      58.7150      0.00000
     35      60.1687      0.00000
     36      60.3078      0.00000
     37      61.7547      0.00000
     38      63.0297      0.00000
     39      64.1302      0.00000
     40      64.5421      0.00000

 k-point    94 :       0.3636    0.1818    0.4545
  band No.  band energies     occupation 
      1       2.3616      2.00000
      2       2.4984      2.00000
      3       3.4737      2.00000
      4       3.6506      2.00000
      5       4.5888      2.00000
      6       4.8836      2.00000
      7       5.8719      2.00825
      8       5.9843      2.04354
      9       7.0356     -0.00000
     10       7.1878     -0.00000
     11      10.5385     -0.00000
     12      10.9600     -0.00000
     13      15.8013      0.00000
     14      16.1764      0.00000
     15      20.3838      0.00000
     16      21.1101      0.00000
     17      25.6310      0.00000
     18      26.7134      0.00000
     19      30.9416      0.00000
     20      31.9888      0.00000
     21      34.1795      0.00000
     22      35.6184      0.00000
     23      40.0908      0.00000
     24      40.4118      0.00000
     25      49.3612      0.00000
     26      50.0039      0.00000
     27      50.6339      0.00000
     28      52.3135      0.00000
     29      54.1294      0.00000
     30      54.7355      0.00000
     31      55.5294      0.00000
     32      57.2589      0.00000
     33      59.2859      0.00000
     34      59.9393      0.00000
     35      61.2724      0.00000
     36      62.0129      0.00000
     37      63.0816      0.00000
     38      63.1855      0.00000
     39      64.0386      0.00000
     40      64.3757      0.00000

 k-point    95 :       0.2727    0.2727    0.4545
  band No.  band energies     occupation 
      1       2.7377      2.00000
      2       2.7739      2.00000
      3       3.6446      2.00000
      4       3.8506      2.00000
      5       4.1888      2.00000
      6       4.3811      2.00000
      7       5.5023      2.00000
      8       5.6901      2.00011
      9       7.0478     -0.00000
     10       7.2129     -0.00000
     11      10.9240     -0.00000
     12      11.4359     -0.00000
     13      16.9162      0.00000
     14      17.3160      0.00000
     15      18.5679      0.00000
     16      18.9373      0.00000
     17      25.7588      0.00000
     18      27.3344      0.00000
     19      31.0752      0.00000
     20      32.4131      0.00000
     21      33.9803      0.00000
     22      35.0205      0.00000
     23      42.2976      0.00000
     24      42.6834      0.00000
     25      46.2058      0.00000
     26      46.3289      0.00000
     27      53.0996      0.00000
     28      53.7543      0.00000
     29      54.1529      0.00000
     30      55.3370      0.00000
     31      56.6438      0.00000
     32      56.9654      0.00000
     33      57.9654      0.00000
     34      58.2779      0.00000
     35      60.1562      0.00000
     36      61.1581      0.00000
     37      63.0130      0.00000
     38      63.1403      0.00000
     39      64.1237      0.00000
     40      64.1342      0.00000

 k-point    96 :       0.3636    0.2727    0.4545
  band No.  band energies     occupation 
      1       2.9278      2.00000
      2       3.0436      2.00000
      3       3.5836      2.00000
      4       3.6664      2.00000
      5       4.1997      2.00000
      6       4.3119      2.00000
      7       5.5591      2.00000
      8       5.7032      2.00015
      9       7.0239     -0.00001
     10       7.0846     -0.00000
     11      12.6875      0.00000
     12      12.8059      0.00000
     13      15.2859      0.00000
     14      15.5984      0.00000
     15      17.9254      0.00000
     16      18.3738      0.00000
     17      27.4373      0.00000
     18      28.0705      0.00000
     19      30.1494      0.00000
     20      30.5604      0.00000
     21      33.6941      0.00000
     22      34.5036      0.00000
     23      43.3817      0.00000
     24      44.0073      0.00000
     25      47.9976      0.00000
     26      48.3938      0.00000
     27      50.3686      0.00000
     28      50.7416      0.00000
     29      54.5127      0.00000
     30      55.8611      0.00000
     31      56.9145      0.00000
     32      58.2541      0.00000
     33      58.3113      0.00000
     34      58.9086      0.00000
     35      59.9020      0.00000
     36      60.8722      0.00000
     37      62.3180      0.00000
     38      62.5295      0.00000
     39      65.6938      0.00000
     40      65.7074      0.00000


--------------------------------------------------------------------------------------------------------


 soft charge-density along one line, spin component           1
         0         1         2         3         4         5         6         7         8         9
x     7.7632    0.0000    0.1225   -0.2122   -0.0629   -0.1089    0.0137   -0.0000    0.0020   -0.0035
x     0.0000    0.0000
y     7.7632    0.0000    0.1225    0.2122   -0.0629    0.1089    0.0137    0.0000    0.0020    0.0035
y     0.0000    0.0000
z     7.7632    0.0000    0.0000    0.0000    0.5442    0.0000    0.0000    0.0000   -0.1779   -0.0000
z     0.0000    0.0000    0.0144   -0.0000    0.0000   -0.0000    0.0084   -0.0000    0.0000    0.0000
 total charge-density along one line
x    16.0000    0.0000    1.5372   -2.6625    0.3371    0.5838    0.0536   -0.0000   -0.0002    0.0002
x     0.0007    0.0012   -0.0012    0.0000    0.0002   -0.0003   -0.0001   -0.0001    0.0002   -0.0000
x    -0.0001    0.0000
y    16.0000    0.0000    1.5372    2.6625    0.3371   -0.5838    0.0536    0.0000   -0.0002   -0.0002
y     0.0007   -0.0012   -0.0012   -0.0000    0.0002    0.0003   -0.0001    0.0001    0.0002    0.0000
y    -0.0001   -0.0000
z    16.0000    0.0000   -0.0000    0.0000    6.2297   -0.0000   -0.0000    0.0000    1.4531   -0.0000
z    -0.0000   -0.0000    0.0635   -0.0000   -0.0000   -0.0000   -0.0001   -0.0000   -0.0000   -0.0000
z     0.0033    0.0000    0.0000   -0.0000   -0.0015    0.0000    0.0000    0.0000    0.0008    0.0000
z     0.0000    0.0000   -0.0005    0.0000   -0.0000   -0.0000    0.0004   -0.0000
 
 pseudopotential strength for first ion, spin component:           1
 -4.777  -0.000  -0.000   0.000  -0.000  -5.331  -0.000  -0.000
 -0.000  -4.774   0.000  -0.000   0.000  -0.000  -5.328   0.000
 -0.000   0.000  -4.782  -0.000  -0.000  -0.000   0.000  -5.336
  0.000  -0.000  -0.000  -4.774  -0.000   0.000  -0.000  -0.000
 -0.000   0.000  -0.000  -0.000  -4.777  -0.000   0.000  -0.000
 -5.331  -0.000  -0.000   0.000  -0.000  -5.843  -0.000  -0.000
 -0.000  -5.328   0.000  -0.000   0.000  -0.000  -5.840   0.000
 -0.000   0.000  -5.336  -0.000  -0.000  -0.000   0.000  -5.848
  0.000  -0.000  -0.000  -5.328  -0.000   0.000  -0.000  -0.000
 -0.000   0.000  -0.000  -0.000  -5.331  -0.000   0.000  -0.000
  0.000  -0.000   0.001   0.000  -0.000   0.000  -0.000   0.001
  0.000  -0.000   0.003   0.000  -0.000   0.000  -0.000   0.002
 -0.000   0.000   0.000  -0.000  -0.001  -0.000   0.000   0.000
 -0.000  -0.000   0.000   0.000   0.000  -0.000  -0.000   0.000
 -0.001  -0.000   0.000   0.000  -0.000  -0.001  -0.000   0.000
 -0.000   0.000   0.000  -0.000  -0.001  -0.000   0.000   0.000
 -0.000  -0.000   0.000  -0.000   0.000  -0.000  -0.000   0.000
 -0.001  -0.000   0.000   0.000  -0.000  -0.001  -0.000   0.000
 total augmentation occupancy for first ion, spin component:           1
  1.559  -0.000   0.000   0.000   0.000  -0.782   0.000  -0.000   0.000  -0.000   0.000  -0.000   0.000   0.000   0.030  -0.000
  0.000   1.987  -0.000  -0.000  -0.000   0.000  -1.005   0.000   0.000   0.000  -0.000  -0.000  -0.000  -0.000  -0.000  -0.000
  0.000  -0.000   1.295   0.000  -0.000  -0.000   0.000  -0.572   0.000   0.000   0.025  -0.009  -0.000   0.000   0.000   0.000
  0.000  -0.000   0.000   1.987   0.000   0.000   0.000   0.000  -1.005   0.000   0.000   0.000  -0.000   0.000   0.000   0.000
  0.000   0.000  -0.000   0.000   1.559  -0.000   0.000   0.000   0.000  -0.782   0.000  -0.000   0.030  -0.000  -0.000  -0.002
 -0.782   0.000  -0.000   0.000  -0.000   1.365   0.000   0.000  -0.000  -0.000   0.000   0.000  -0.000   0.000  -0.045   0.000
  0.000  -1.005   0.000   0.000   0.000   0.000   1.360  -0.000  -0.000   0.000   0.000   0.000  -0.000   0.000  -0.000  -0.000
 -0.000  -0.000  -0.572  -0.000   0.000   0.000   0.000   1.195   0.000  -0.000  -0.093   0.009   0.000   0.000  -0.000   0.000
  0.000   0.000  -0.000  -1.005   0.000  -0.000  -0.000  -0.000   1.360   0.000   0.000   0.000   0.000   0.000   0.000   0.000
 -0.000   0.000   0.000   0.000  -0.782   0.000   0.000  -0.000   0.000   1.365  -0.000   0.000  -0.045   0.000   0.000   0.003
  0.000  -0.000   0.025  -0.000   0.000  -0.000  -0.000  -0.093   0.000  -0.000   2.505  -0.280   0.000   0.000   0.000   0.000
 -0.000  -0.000  -0.009  -0.000  -0.000   0.000   0.000   0.009   0.000   0.000  -0.280   0.035  -0.000   0.000   0.000   0.000
  0.000   0.000   0.000   0.000   0.030  -0.000   0.000   0.000   0.000  -0.045   0.000  -0.000   0.323   0.000  -0.000  -0.026
 -0.000  -0.000   0.000  -0.000  -0.000   0.000   0.000   0.000   0.000   0.000   0.000   0.000   0.000   0.303  -0.000   0.000
  0.030  -0.000   0.000   0.000  -0.000  -0.045  -0.000  -0.000  -0.000   0.000   0.000   0.000  -0.000  -0.000   0.323   0.000
 -0.000   0.000  -0.000   0.000  -0.002   0.000  -0.000   0.000   0.000   0.003  -0.000   0.000  -0.026   0.000   0.000   0.002
  0.000   0.000   0.000   0.000   0.000   0.000   0.000   0.000   0.000  -0.000   0.000   0.000  -0.000  -0.027   0.000   0.000
 -0.002  -0.000  -0.000  -0.000   0.000   0.003   0.000   0.000  -0.000  -0.000   0.000  -0.000   0.000   0.000  -0.026  -0.000


------------------------ aborting loop because EDIFF is reached ----------------------------------------


    CHARGE:  cpu time    0.0196: real time    0.0196
    FORLOC:  cpu time    0.0002: real time    0.0002
    FORNL :  cpu time    0.1011: real time    0.1011
    STRESS:  cpu time    0.1599: real time    0.1599
    FORCOR:  cpu time    0.0035: real time    0.0035
    FORHAR:  cpu time    0.0008: real time    0.0008
    MIXING:  cpu time    0.0002: real time    0.0002

  FORCE on cell =-STRESS in cart. coord.  units (eV):
  Direction    XX          YY          ZZ          XY          YZ          ZX
  --------------------------------------------------------------------------------------
  Alpha Z   128.78434   128.78434   128.78434
  Ewald    -390.01572  -390.01572  -425.89172     0.00000    -0.00000     0.00000
  Hartree    64.90427    64.90427    50.82046    -0.00000    -0.00000    -0.00000
  E(xc)     -78.06254   -78.06269   -77.85748     0.00039    -0.00000     0.00000
  Local     103.35073   103.35098   151.82509    -0.00093    -0.00000     0.00000
  n-local   -53.97881   -53.12934   -55.35447    -3.41474     1.43165     0.94504
  augment    76.02212    76.02115    76.13734     0.00143     0.00000    -0.00000
  Kinetic   151.47324   145.29466   146.46413     1.22587    -0.99866     0.16424
  Fock        0.00000     0.00000     0.00000     0.00000     0.00000     0.00000
  -------------------------------------------------------------------------------------
  Total      -0.18735    -0.18735    -5.07229    -0.00000     0.00000     0.00000
  in kB     -13.98322   -13.98322  -378.57607    -0.00000     0.00000     0.00000
  external pressure =     -135.51 kB  Pullay stress =        0.00 kB


 VOLUME and BASIS-vectors are now :
 -----------------------------------------------------------------------------
  energy-cutoff  :      280.00
  volume of cell :       21.47
      direct lattice vectors                 reciprocal lattice vectors
     2.423200000  0.000000000  0.000000000     0.412677451  0.238259438  0.000000000
    -1.211600000  2.098552758  0.000000000     0.000000000  0.476518875  0.000000000
     0.000000000  0.000000000  4.221360000     0.000000000  0.000000000  0.236890481

  length of vectors
     2.423200000  2.423200000  4.221360000     0.476518875  0.476518875  0.236890481


 FORCES acting on ions
    electron-ion (+dipol)            ewald-force                    non-local-force                 convergence-correction
 -----------------------------------------------------------------------------------------------
   0.135E-05 -.182E-05 0.684E-14   0.595E-12 -.304E-12 -.213E-13   0.372E-17 -.201E-18 0.648E-20   -.472E-08 0.252E-08 -.525E-14
   0.997E-05 0.570E-05 0.243E-12   -.588E-12 0.301E-12 0.213E-13   -.509E-17 0.989E-18 0.718E-20   0.472E-08 -.252E-08 0.657E-13
 -----------------------------------------------------------------------------------------------
   0.113E-04 0.388E-05 0.250E-12   0.783E-14 -.314E-14 -.155E-17   -.137E-17 0.787E-18 0.137E-19   -.529E-11 0.121E-11 0.604E-13
 
 
 POSITION                                       TOTAL-FORCE (eV/Angst)
 -----------------------------------------------------------------------------------
      0.00000      0.00000      0.00000        -0.000000     -0.000000      0.000000
      0.00000      1.39904      2.11068         0.000000      0.000000     -0.000000
 -----------------------------------------------------------------------------------
    total drift:                                0.000011      0.000004      0.000000


--------------------------------------------------------------------------------------------------------



  FREE ENERGIE OF THE ION-ELECTRON SYSTEM (eV)
  ---------------------------------------------------
  free  energy   TOTEN  =       -16.10517235 eV

  energy  without entropy=      -16.10821686  energy(sigma->0) =      -16.10618719
 


--------------------------------------------------------------------------------------------------------


    POTLOK:  cpu time    0.0056: real time    0.0056


--------------------------------------------------------------------------------------------------------


 writing wavefunctions
     LOOP+:  cpu time   10.0785: real time   10.0992
    4ORBIT:  cpu time    0.0000: real time    0.0000

 total amount of memory used by VASP MPI-rank0    51501. kBytes
=======================================================================

   base      :      30000. kBytes
   nonl-proj :       3394. kBytes
   grid      :        812. kBytes
   one-center:         31. kBytes
   wavefun   :      17264. kBytes
 
  
  
 General timing and accounting informations for this job:
 ========================================================
  
                  Total CPU time used (sec):       10.265
                            User time (sec):       10.209
                          System time (sec):        0.056
                         Elapsed time (sec):       10.274
  
                   Maximum memory used (kb):       55652.
                   Average memory used (kb):          N/A
  
                          Minor page faults:         7685
                          Major page faults:            0
                 Voluntary context switches:           26
