unknown system                          
   1.00000000000000     
     3.635000    0.000000    0.000000
     0.000000    3.635000    0.000000
     0.000000    0.000000    3.635000
   Pd   Ir   Pt   Cu
     1     1     1     1
Direct
  0.000000  0.000000  0.000000
  0.500000  0.500000  0.000000
  0.500000  0.000000  0.500000
  0.000000  0.500000  0.500000
 
   32   32   32
  297.25      285.08      253.36      212.54      171.10      132.09      95.923      64.439      40.958      26.908    
  19.653      15.316      12.844      11.551      10.862      10.465      10.322      10.465      10.862      11.551    
  12.844      15.316      19.653      26.908      40.958      64.439      95.923      132.09      171.10      212.54    
  253.36      285.08      285.27      273.72      243.56      204.58      164.79      127.18      92.338      62.154    
  39.794      26.481      19.540      15.347      12.959      11.710      11.043      10.658      10.519      10.658    
  11.043      11.710      12.959      15.347      19.540      26.481      39.794      62.154      92.338      127.18    
  164.79      204.58      243.56      273.72      253.56      243.59      217.42      183.18      147.69      113.84    
  82.622      56.017      36.711      25.371      19.252      15.473      13.332      12.214      11.618      11.276    
  11.152      11.276      11.618      12.214      13.332      15.473      19.252      25.371      36.711      56.017    
  82.622      113.84      147.69      183.18      217.42      243.59      211.60      203.59      182.33      154.04    
  124.15      95.440      69.358      47.811      32.714      23.978      18.932      15.795      14.053      13.166    
  12.710      12.454      12.362      12.454      12.710      13.166      14.053      15.795      18.932      23.978    
  32.714      47.811      69.358      95.440      124.15      154.04      182.33      203.59      167.94      161.76    
  145.19      122.75      98.703      75.725      55.482      39.542      28.888      22.701      18.811      16.494    
  15.301      14.774      14.559      14.457      14.421      14.457      14.559      14.774      15.301      16.494    
  18.811      22.701      28.888      39.542      55.482      75.725      98.703      122.75      145.19      161.76    
  126.96      122.36      109.92      92.902      74.662      57.602      43.275      32.682      25.933      21.779    
  19.168      17.826      17.344      17.336      17.500      17.646      17.700      17.646      17.500      17.336    
  17.344      17.826      19.168      21.779      25.933      32.682      43.275      57.602      74.662      92.902    
  109.92      122.36      90.452      87.239      78.549      66.682      54.151      42.866      33.963      27.829    
  23.965      21.495      20.278      20.045      20.461      21.245      22.097      22.737      22.972      22.737    
  22.097      21.245      20.461      20.045      20.278      21.495      23.965      27.829      33.963      42.866    
  54.151      66.682      78.549      87.239      60.301      58.330      53.026      45.879      38.556      32.308    
  27.733      24.743      22.859      22.082      22.327      23.461      25.273      27.423      29.465      30.933    
  31.467      30.933      29.465      27.423      25.273      23.461      22.327      22.082      22.859      24.743    
  27.733      32.308      38.556      45.879      53.026      58.330      38.622      37.645      35.042      31.628    
  28.293      25.648      23.844      22.821      22.739      23.653      25.646      28.640      32.345      36.287    
  39.841      42.337      43.237      42.337      39.841      36.287      32.345      28.640      25.646      23.653    
  22.739      22.821      23.844      25.648      28.293      31.628      35.042      37.645      25.662      25.315    
  24.409      23.267      22.220      21.486      21.338      22.011      23.628      26.435      30.506      35.618    
  41.336      47.067      52.072      55.532      56.775      55.532      52.072      47.067      41.336      35.618    
  30.506      26.435      23.628      22.011      21.338      21.486      22.220      23.267      24.409      25.315    
  18.691      18.616      18.430      18.255      18.294      18.806      20.049      22.201      25.585      30.479    
  36.713      43.808      51.192      58.268      64.323      68.491      69.988      68.491      64.323      58.268    
  51.192      43.808      36.713      30.479      25.585      22.201      20.049      18.806      18.294      18.255    
  18.430      18.616      14.375      14.429      14.620      15.043      15.871      17.347      19.709      23.249    
  28.512      35.536      43.761      52.407      60.867      68.729      75.451      80.140      81.843      80.140    
  75.451      68.729      60.867      52.407      43.761      35.536      28.512      23.249      19.709      17.347    
  15.871      15.043      14.620      14.429      11.826      11.957      12.377      13.178      14.541      16.726    
  19.997      24.945      32.109      41.157      51.065      60.803      69.905      78.326      85.743      91.110    
  93.102      91.110      85.743      78.326      69.905      60.803      51.065      41.157      32.109      24.945    
  19.997      16.726      14.541      13.178      12.377      11.957      10.427      10.598      11.140      12.163    
  13.877      16.580      20.644      26.955      35.910      46.757      58.037      68.599      78.289      87.526    
  96.130      102.65      105.14      102.65      96.130      87.526      78.289      68.599      58.037      46.757    
  35.910      26.955      20.644      16.580      13.877      12.163      11.140      10.598      9.6450      9.8351    
  10.443      11.599      13.549      16.624      21.370      28.858      39.316      51.622      63.987      75.270    
  85.709      96.163      106.46      114.55      117.68      114.55      106.46      96.163      85.709      75.270    
  63.987      51.622      39.316      28.858      21.370      16.624      13.549      11.599      10.443      9.8351    
  9.1901      9.3913      10.038      11.275      13.373      16.690      21.919      30.222      41.698      54.975    
  68.077      79.932      91.100      102.75      114.63      124.15      127.86      124.15      114.63      102.75    
  91.100      79.932      68.077      54.975      41.698      30.222      21.919      16.690      13.373      11.275    
  10.038      9.3913      9.0275      9.2329      9.8938      11.160      13.311      16.715      22.121      30.717    
  42.556      56.177      69.546      81.626      93.106      105.26      117.80      127.90      131.84      127.90    
  117.80      105.26      93.106      81.626      69.546      56.177      42.556      30.717      22.121      16.715    
  13.311      11.160      9.8938      9.2329      9.1901      9.3913      10.038      11.275      13.373      16.690    
  21.919      30.222      41.698      54.975      68.077      79.932      91.100      102.75      114.63      124.15    
  127.86      124.15      114.63      102.75      91.100      79.932      68.077      54.975      41.698      30.222    
  21.919      16.690      13.373      11.275      10.038      9.3913      9.6450      9.8351      10.443      11.599    
  13.549      16.624      21.370      28.858      39.316      51.622      63.987      75.270      85.709      96.163    
  106.46      114.55      117.68      114.55      106.46      96.163      85.709      75.270      63.987      51.622    
  39.316      28.858      21.370      16.624      13.549      11.599      10.443      9.8351      10.427      10.598    
  11.140      12.163      13.877      16.580      20.644      26.955      35.910      46.757      58.037      68.599    
  78.289      87.526      96.130      102.65      105.14      102.65      96.130      87.526      78.289      68.599    
  58.037      46.757      35.910      26.955      20.644      16.580      13.877      12.163      11.140      10.598    
  11.826      11.957      12.377      13.178      14.541      16.726      19.997      24.945      32.109      41.157    
  51.065      60.803      69.905      78.326      85.743      91.110      93.102      91.110      85.743      78.326    
  69.905      60.803      51.065      41.157      32.109      24.945      19.997      16.726      14.541      13.178    
  12.377      11.957      14.375      14.429      14.620      15.043      15.871      17.347      19.709      23.249    
  28.512      35.536      43.761      52.407      60.867      68.729      75.451      80.140      81.843      80.140    
  75.451      68.729      60.867      52.407      43.761      35.536      28.512      23.249      19.709      17.347    
  15.871      15.043      14.620      14.429      18.691      18.616      18.430      18.255      18.294      18.806    
  20.049      22.201      25.585      30.479      36.713      43.808      51.192      58.268      64.323      68.491    
  69.988      68.491      64.323      58.268      51.192      43.808      36.713      30.479      25.585      22.201    
  20.049      18.806      18.294      18.255      18.430      18.616      25.662      25.315      24.409      23.267    
  22.220      21.486      21.338      22.011      23.628      26.435      30.506      35.618      41.336      47.067    
  52.072      55.532      56.775      55.532      52.072      47.067      41.336      35.618      30.506      26.435    
  23.628      22.011      21.338      21.486      22.220      23.267      24.409      25.315      38.622      37.645    
  35.042      31.628      28.293      25.648      23.844      22.821      22.739      23.653      25.646      28.640    
  32.345      36.287      39.841      42.337      43.237      42.337      39.841      36.287      32.345      28.640    
  25.646      23.653      22.739      22.821      23.844      25.648      28.293      31.628      35.042      37.645    
  60.301      58.330      53.026      45.879      38.556      32.308      27.733      24.743      22.859      22.082    
  22.327      23.461      25.273      27.423      29.465      30.933      31.467      30.933      29.465      27.423    
  25.273      23.461      22.327      22.082      22.859      24.743      27.733      32.308      38.556      45.879    
  53.026      58.330      90.452      87.239      78.549      66.682      54.151      42.866      33.963      27.829    
  23.965      21.495      20.278      20.045      20.461      21.245      22.097      22.737      22.972      22.737    
  22.097      21.245      20.461      20.045      20.278      21.495      23.965      27.829      33.963      42.866    
  54.151      66.682      78.549      87.239      126.96      122.36      109.92      92.902      74.662      57.602    
  43.275      32.682      25.933      21.779      19.168      17.826      17.344      17.336      17.500      17.646    
  17.700      17.646      17.500      17.336      17.344      17.826      19.168      21.779      25.933      32.682    
  43.275      57.602      74.662      92.902      109.92      122.36      167.94      161.76      145.19      122.75    
  98.703      75.725      55.482      39.542      28.888      22.701      18.811      16.494      15.301      14.774    
  14.559      14.457      14.421      14.457      14.559      14.774      15.301      16.494      18.811      22.701    
  28.888      39.542      55.482      75.725      98.703      122.75      145.19      161.76      211.60      203.59    
  182.33      154.04      124.15      95.440      69.358      47.811      32.714      23.978      18.932      15.795    
  14.053      13.166      12.710      12.454      12.362      12.454      12.710      13.166      14.053      15.795    
  18.932      23.978      32.714      47.811      69.358      95.440      124.15      154.04      182.33      203.59    
  253.56      243.59      217.42      183.18      147.69      113.84      82.622      56.017      36.711      25.371    
  19.252      15.473      13.332      12.214      11.618      11.276      11.152      11.276      11.618      12.214    
  13.332      15.473      19.252      25.371      36.711      56.017      82.622      113.84      147.69      183.18    
  217.42      243.59      285.27      273.72      243.56      204.58      164.79      127.18      92.338      62.154    
  39.794      26.481      19.540      15.347      12.959      11.710      11.043      10.658      10.519      10.658    
  11.043      11.710      12.959      15.347      19.540      26.481      39.794      62.154      92.338      127.18    
  164.79      204.58      243.56      273.72      285.40      273.78      243.45      204.30      164.42      126.83    
  92.074      61.993      39.709      26.437      19.516      15.336      12.957      11.714      11.051      10.670    
  10.532      10.670      11.051      11.714      12.957      15.336      19.516      26.437      39.709      61.993    
  92.074      126.83      164.42      204.30      243.45      273.78      274.27      263.22      234.31      196.85    
  158.48      122.19      88.684      59.837      38.614      26.035      19.406      15.367      13.070      11.869    
  11.227      10.858      10.725      10.858      11.227      11.869      13.070      15.367      19.406      26.035    
  38.614      59.837      88.684      122.19      158.48      196.85      234.31      263.22      244.67      235.07    
  209.83      176.73      142.34      109.57      79.487      54.041      35.711      24.987      19.125      15.489    
  13.433      12.360      11.789      11.461      11.343      11.461      11.789      12.360      13.433      15.489    
  19.125      24.987      35.711      54.041      79.487      109.57      142.34      176.73      209.83      235.07    
  205.14      197.35      176.68      149.11      119.98      92.077      66.901      46.280      31.944      23.665    
  18.813      15.800      14.132      13.286      12.852      12.610      12.523      12.610      12.852      13.286    
  14.132      15.800      18.813      23.665      31.944      46.280      66.901      92.077      119.98      149.11    
  176.68      197.35      163.44      157.38      141.15      119.15      95.620      73.246      53.697      38.447    
  28.329      22.432      18.692      16.476      15.343      14.848      14.651      14.560      14.528      14.560    
  14.651      14.848      15.343      16.476      18.692      22.432      28.329      38.447      53.697      73.246    
  95.620      119.15      141.15      157.38      123.75      119.23      107.00      90.300      72.454      55.866    
  42.056      31.936      25.518      21.529      19.033      17.764      17.323      17.337      17.512      17.664    
  17.719      17.664      17.512      17.337      17.323      17.764      19.033      21.529      25.518      31.936    
  42.056      55.866      72.454      90.300      107.00      119.23      88.117      84.966      76.450      64.844    
  52.637      41.714      33.165      27.315      23.611      21.246      20.103      19.913      20.344      21.120    
  21.956      22.583      22.813      22.583      21.956      21.120      20.344      19.913      20.103      21.246    
  23.611      27.315      33.165      41.714      52.637      64.844      76.450      84.966      58.707      56.787    
  51.624      44.684      37.601      31.590      27.211      24.338      22.530      21.810      22.084      23.208    
  24.981      27.076      29.064      30.493      31.014      30.493      29.064      27.076      24.981      23.208    
  22.084      21.810      22.530      24.338      27.211      31.590      37.601      44.684      51.624      56.787    
  37.697      36.752      34.241      30.951      27.746      25.205      23.455      22.468      22.413      23.327    
  25.279      28.200      31.811      35.652      39.116      41.548      42.425      41.548      39.116      35.652    
  31.811      28.200      25.279      23.327      22.413      22.468      23.455      25.205      27.746      30.951    
  34.241      36.752      25.229      24.896      24.023      22.920      21.895      21.171      21.026      21.690    
  23.275      26.008      29.972      34.958      40.543      46.146      51.036      54.416      55.629      54.416    
  51.036      46.146      40.543      34.958      29.972      26.008      23.275      21.690      21.026      21.171    
  21.895      22.920      24.023      24.896      18.497      18.421      18.234      18.057      18.088      18.580    
  19.789      21.885      25.166      29.919      35.997      42.939      50.181      57.124      63.056      67.132    
  68.594      67.132      63.056      57.124      50.181      42.939      35.997      29.919      25.166      21.885    
  19.789      18.580      18.088      18.057      18.234      18.421      14.311      14.363      14.546      14.953    
  15.753      17.182      19.478      22.907      28.001      34.832      42.875      51.370      59.702      67.434    
  74.015      78.586      80.242      78.586      74.015      67.434      59.702      51.370      42.875      34.832    
  28.001      22.907      19.478      17.182      15.753      14.953      14.546      14.363      11.853      11.979    
  12.385      13.160      14.479      16.597      19.772      24.553      31.496      40.314      50.033      59.638    
  68.621      76.886      84.102      89.283      91.200      89.283      84.102      76.886      68.621      59.638    
  50.033      40.314      31.496      24.553      19.772      16.597      14.479      13.160      12.385      11.979    
  10.509      10.674      11.199      12.188      13.849      16.472      20.409      26.507      35.196      45.790    
  56.884      67.322      76.872      85.874      94.149      100.37      102.72      100.37      94.149      85.874    
  76.872      67.322      56.884      45.790      35.196      26.507      20.409      16.472      13.849      12.188    
  11.199      10.674      9.7618      9.9455      10.534      11.652      13.541      16.528      21.119      28.358    
  38.518      50.554      62.734      73.885      84.129      94.223      104.02      111.65      114.59      111.65    
  104.02      94.223      84.129      73.885      62.734      50.554      38.518      28.358      21.119      16.528    
  13.541      11.652      10.534      9.9455      9.3283      9.5227      10.148      11.345      13.378      16.601    
  21.656      29.686      40.843      53.841      66.754      78.458      89.371      100.54      111.77      120.70    
  124.17      120.70      111.77      100.54      89.371      78.458      66.754      53.841      40.843      29.686    
  21.656      16.601      13.378      11.345      10.148      9.5227      9.1737      9.3720      10.011      11.236    
  13.322      16.628      21.853      30.168      41.680      55.019      68.197      80.118      91.316      102.95    
  114.77      124.23      127.91      124.23      114.77      102.95      91.316      80.118      68.197      55.019    
  41.680      30.168      21.853      16.628      13.322      11.236      10.011      9.3720      9.3283      9.5227    
  10.148      11.345      13.378      16.601      21.656      29.686      40.843      53.841      66.754      78.458    
  89.371      100.54      111.77      120.70      124.17      120.70      111.77      100.54      89.371      78.458    
  66.754      53.841      40.843      29.686      21.656      16.601      13.378      11.345      10.148      9.5227    
  9.7618      9.9455      10.534      11.652      13.541      16.528      21.119      28.358      38.518      50.554    
  62.734      73.885      84.129      94.223      104.02      111.65      114.59      111.65      104.02      94.223    
  84.129      73.885      62.734      50.554      38.518      28.358      21.119      16.528      13.541      11.652    
  10.534      9.9455      10.509      10.674      11.199      12.188      13.849      16.472      20.409      26.507    
  35.196      45.790      56.884      67.322      76.872      85.874      94.149      100.37      102.72      100.37    
  94.149      85.874      76.872      67.322      56.884      45.790      35.196      26.507      20.409      16.472    
  13.849      12.188      11.199      10.674      11.853      11.979      12.385      13.160      14.479      16.597    
  19.772      24.553      31.496      40.314      50.033      59.638      68.621      76.886      84.102      89.283    
  91.200      89.283      84.102      76.886      68.621      59.638      50.033      40.314      31.496      24.553    
  19.772      16.597      14.479      13.160      12.385      11.979      14.311      14.363      14.546      14.953    
  15.753      17.182      19.478      22.907      28.001      34.832      42.875      51.370      59.702      67.434    
  74.015      78.586      80.242      78.586      74.015      67.434      59.702      51.370      42.875      34.832    
  28.001      22.907      19.478      17.182      15.753      14.953      14.546      14.363      18.497      18.421    
  18.234      18.057      18.088      18.580      19.789      21.885      25.166      29.919      35.997      42.939    
  50.181      57.124      63.056      67.132      68.594      67.132      63.056      57.124      50.181      42.939    
  35.997      29.919      25.166      21.885      19.789      18.580      18.088      18.057      18.234      18.421    
  25.229      24.896      24.023      22.920      21.895      21.171      21.026      21.690      23.275      26.008    
  29.972      34.958      40.543      46.146      51.036      54.416      55.629      54.416      51.036      46.146    
  40.543      34.958      29.972      26.008      23.275      21.690      21.026      21.171      21.895      22.920    
  24.023      24.896      37.697      36.752      34.241      30.951      27.746      25.205      23.455      22.468    
  22.413      23.327      25.279      28.200      31.811      35.652      39.116      41.548      42.425      41.548    
  39.116      35.652      31.811      28.200      25.279      23.327      22.413      22.468      23.455      25.205    
  27.746      30.951      34.241      36.752      58.707      56.787      51.624      44.684      37.601      31.590    
  27.211      24.338      22.530      21.810      22.084      23.208      24.981      27.076      29.064      30.493    
  31.014      30.493      29.064      27.076      24.981      23.208      22.084      21.810      22.530      24.338    
  27.211      31.590      37.601      44.684      51.624      56.787      88.117      84.966      76.450      64.844    
  52.637      41.714      33.165      27.315      23.611      21.246      20.103      19.913      20.344      21.120    
  21.956      22.583      22.813      22.583      21.956      21.120      20.344      19.913      20.103      21.246    
  23.611      27.315      33.165      41.714      52.637      64.844      76.450      84.966      123.75      119.23    
  107.00      90.300      72.454      55.866      42.056      31.936      25.518      21.529      19.033      17.764    
  17.323      17.337      17.512      17.664      17.719      17.664      17.512      17.337      17.323      17.764    
  19.033      21.529      25.518      31.936      42.056      55.866      72.454      90.300      107.00      119.23    
  163.44      157.38      141.15      119.15      95.620      73.246      53.697      38.447      28.329      22.432    
  18.692      16.476      15.343      14.848      14.651      14.560      14.528      14.560      14.651      14.848    
  15.343      16.476      18.692      22.432      28.329      38.447      53.697      73.246      95.620      119.15    
  141.15      157.38      205.14      197.35      176.68      149.11      119.98      92.077      66.901      46.280    
  31.944      23.665      18.813      15.800      14.132      13.286      12.852      12.610      12.523      12.610    
  12.852      13.286      14.132      15.800      18.813      23.665      31.944      46.280      66.901      92.077    
  119.98      149.11      176.68      197.35      244.67      235.07      209.83      176.73      142.34      109.57    
  79.487      54.041      35.711      24.987      19.125      15.489      13.433      12.360      11.789      11.461    
  11.343      11.461      11.789      12.360      13.433      15.489      19.125      24.987      35.711      54.041    
  79.487      109.57      142.34      176.73      209.83      235.07      274.27      263.22      234.31      196.85    
  158.48      122.19      88.684      59.837      38.614      26.035      19.406      15.367      13.070      11.869    
  11.227      10.858      10.725      10.858      11.227      11.869      13.070      15.367      19.406      26.035    
  38.614      59.837      88.684      122.19      158.48      196.85      234.31      263.22      254.10      243.89    
  217.14      182.31      146.50      112.69      81.761      55.492      36.428      25.215      19.161      15.424    
  13.312      12.213      11.631      11.298      11.178      11.298      11.631      12.213      13.312      15.424    
  19.161      25.215      36.428      55.492      81.761      112.69      146.50      182.31      217.14      243.89    
  245.08      235.31      209.66      176.13      141.51      108.76      78.884      53.672      35.512      24.876    
  19.059      15.452      13.415      12.356      11.794      11.473      11.357      11.473      11.794      12.356    
  13.415      15.452      19.059      24.876      35.512      53.672      78.884      108.76      141.51      176.13    
  209.66      235.31      220.74      212.12      189.33      159.23      127.81      97.984      71.048      48.770    
  33.079      23.982      18.796      15.561      13.747      12.808      12.312      12.030      11.929      12.030    
  12.312      12.808      13.747      15.561      18.796      23.982      33.079      48.770      71.048      97.984    
  127.81      159.23      189.33      212.12      187.29      180.13      161.05      135.50      108.49      82.885    
  60.252      42.184      29.909      22.828      18.502      15.839      14.383      13.656      13.290      13.089    
  13.017      13.089      13.290      13.656      14.383      15.839      18.502      22.828      29.909      42.184    
  60.252      82.885      108.49      135.50      161.05      180.13      150.59      144.91      129.66      108.99    
  87.005      66.410      48.843      35.506      26.838      21.698      18.377      16.446      15.482      15.082    
  14.941      14.883      14.863      14.883      14.941      15.082      15.482      16.446      18.377      21.698    
  26.838      35.506      48.843      66.410      87.005      108.99      129.66      144.91      114.38      110.10    
  98.564      82.857      66.235      51.057      38.729      29.924      24.390      20.846      18.669      17.606    
  17.282      17.358      17.568      17.740      17.802      17.740      17.568      17.358      17.282      17.606    
  18.669      20.846      24.390      29.924      38.729      51.057      66.235      82.857      98.564      110.10    
  81.289      78.338      70.379      59.596      48.385      38.532      30.990      25.911      22.632      20.562    
  19.625      19.554      20.030      20.793      21.591      22.183      22.401      22.183      21.591      20.793    
  20.030      19.554      19.625      20.562      22.632      25.911      30.990      38.532      48.385      59.596    
  70.379      78.338      54.127      52.363      47.634      41.320      34.948      29.618      25.778      23.213    
  21.620      21.060      21.414      22.515      24.183      26.132      27.973      29.295      29.777      29.295    
  27.973      26.132      24.183      22.515      21.414      21.060      21.620      23.213      25.778      29.618    
  34.948      41.320      47.634      52.363      35.103      34.256      32.010      29.083      26.242      23.979    
  22.372      21.495      21.511      22.428      24.268      26.984      30.333      33.894      37.105      39.358    
  40.172      39.358      37.105      33.894      30.333      26.984      24.268      22.428      21.511      21.495    
  22.372      23.979      26.242      29.083      32.010      34.256      24.036      23.739      22.959      21.956    
  20.988      20.297      20.165      20.804      22.303      24.829      28.490      33.118      38.327      43.566    
  48.138      51.295      52.426      51.295      48.138      43.566      38.327      33.118      28.490      24.829    
  22.303      20.804      20.165      20.297      20.988      21.956      22.959      23.739      17.941      17.867    
  17.683      17.505      17.519      17.963      19.075      21.017      24.015      28.367      33.995      40.498    
  47.335      53.903      59.499      63.326      64.696      63.326      59.499      53.903      47.335      40.498    
  33.995      28.367      24.015      21.017      19.075      17.963      17.519      17.505      17.683      17.867    
  14.113      14.161      14.328      14.698      15.426      16.732      18.842      21.967      26.593      32.868    
  40.381      48.439      56.408      63.788      70.008      74.279      75.816      74.279      70.008      63.788    
  56.408      48.439      40.381      32.868      26.593      21.967      18.842      16.732      15.426      14.698    
  14.328      14.161      11.887      12.005      12.380      13.092      14.301      16.242      19.154      23.480    