unknown system                          
   1.00000000000000     
     3.635000    0.000000    0.000000
     0.000000    3.635000    0.000000
     0.000000    0.000000    3.635000
   Pd   Ir   Pt   Cu
     1     1     1     1
Direct
  0.000000  0.000000  0.000000
  0.500000  0.500000  0.000000
  0.500000  0.000000  0.500000
  0.000000  0.500000  0.500000
 
   32   32   32
 0.29725387185E+03 0.28508101008E+03 0.25336406828E+03 0.21254142128E+03 0.17109948459E+03
 0.13208946273E+03 0.95923200043E+02 0.64438668266E+02 0.40958315113E+02 0.26908104046E+02
 0.19652676763E+02 0.15315673549E+02 0.12843522080E+02 0.11551348431E+02 0.10862392330E+02
 0.10465305442E+02 0.10321565393E+02 0.10465305442E+02 0.10862392330E+02 0.11551348431E+02
 0.12843522080E+02 0.15315673549E+02 0.19652676763E+02 0.26908104046E+02 0.40958315113E+02
 0.64438668266E+02 0.95923200043E+02 0.13208946273E+03 0.17109948459E+03 0.21254142128E+03
 0.25336406828E+03 0.28508101008E+03 0.28527363318E+03 0.27372147124E+03 0.24356123626E+03
 0.20458121752E+03 0.16478976557E+03 0.12718148623E+03 0.92337735125E+02 0.62154000380E+02
 0.39793946180E+02 0.26481344290E+02 0.19540192916E+02 0.15347360623E+02 0.12959430590E+02
 0.11709856238E+02 0.11042520425E+02 0.10657985863E+02 0.10518947642E+02 0.10657985863E+02
 0.11042520425E+02 0.11709856238E+02 0.12959430590E+02 0.15347360623E+02 0.19540192916E+02
 0.26481344290E+02 0.39793946180E+02 0.62154000380E+02 0.92337735125E+02 0.12718148623E+03
 0.16478976557E+03 0.20458121752E+03 0.24356123626E+03 0.27372147124E+03 0.25355905773E+03
 0.24359338631E+03 0.21741693379E+03 0.18317592689E+03 0.14769134306E+03 0.11383981342E+03
 0.82621647129E+02 0.56017432556E+02 0.36710768979E+02 0.25370525293E+02 0.19251751973E+02
 0.15473340807E+02 0.13332420960E+02 0.12213971786E+02 0.11617712505E+02 0.11275520057E+02
 0.11152188634E+02 0.11275520057E+02 0.11617712505E+02 0.12213971786E+02 0.13332420960E+02
 0.15473340807E+02 0.19251751973E+02 0.25370525293E+02 0.36710768979E+02 0.56017432556E+02
 0.82621647129E+02 0.11383981342E+03 0.14769134306E+03 0.18317592689E+03 0.21741693379E+03
 0.24359338631E+03 0.21160056510E+03 0.20358612188E+03 0.18233292477E+03 0.15403676548E+03
 0.12414767961E+03 0.95439736029E+02 0.69357615447E+02 0.47811221991E+02 0.32713500294E+02
 0.23978169502E+02 0.18932295497E+02 0.15794519997E+02 0.14052553656E+02 0.13166148125E+02
 0.12709758983E+02 0.12454041645E+02 0.12362353210E+02 0.12454041645E+02 0.12709758983E+02
 0.13166148125E+02 0.14052553656E+02 0.15794519997E+02 0.18932295497E+02 0.23978169502E+02
 0.32713500294E+02 0.47811221991E+02 0.69357615447E+02 0.95439736029E+02 0.12414767961E+03
 0.15403676548E+03 0.18233292477E+03 0.20358612188E+03 0.16794189828E+03 0.16175965896E+03
 0.14519136230E+03 0.12274523093E+03 0.98702984943E+02 0.75724560390E+02 0.55482070922E+02
 0.39542297629E+02 0.28887715243E+02 0.22700575605E+02 0.18810663649E+02 0.16494086851E+02
 0.15300957454E+02 0.14773649029E+02 0.14558685089E+02 0.14457111492E+02 0.14421112329E+02
 0.14457111492E+02 0.14558685089E+02 0.14773649029E+02 0.15300957454E+02 0.16494086851E+02
 0.18810663649E+02 0.22700575605E+02 0.28887715243E+02 0.39542297629E+02 0.55482070922E+02
 0.75724560390E+02 0.98702984943E+02 0.12274523093E+03 0.14519136230E+03 0.16175965896E+03
 0.12696490332E+03 0.12235831306E+03 0.10991963291E+03 0.92902437236E+02 0.74662279248E+02
 0.57602387176E+02 0.43275350504E+02 0.32681972596E+02 0.25932546155E+02 0.21778711123E+02
 0.19167944170E+02 0.17825910217E+02 0.17343881496E+02 0.17336260061E+02 0.17499513219E+02
 0.17645867376E+02 0.17699589101E+02 0.17645867376E+02 0.17499513219E+02 0.17336260061E+02
 0.17343881496E+02 0.17825910217E+02 0.19167944170E+02 0.21778711123E+02 0.25932546155E+02
 0.32681972596E+02 0.43275350504E+02 0.57602387176E+02 0.74662279248E+02 0.92902437236E+02
 0.10991963291E+03 0.12235831306E+03 0.90451757004E+02 0.87238924660E+02 0.78549200609E+02
 0.66682158761E+02 0.54150578908E+02 0.42865907043E+02 0.33962590397E+02 0.27829100542E+02
 0.23964937568E+02 0.21495005523E+02 0.20277867934E+02 0.20044738750E+02 0.20461469071E+02
 0.21245455788E+02 0.22097028775E+02 0.22736504113E+02 0.22971839433E+02 0.22736504113E+02
 0.22097028775E+02 0.21245455788E+02 0.20461469071E+02 0.20044738750E+02 0.20277867934E+02
 0.21495005523E+02 0.23964937568E+02 0.27829100542E+02 0.33962590397E+02 0.42865907043E+02
 0.54150578908E+02 0.66682158761E+02 0.78549200609E+02 0.87238924660E+02 0.60300828369E+02
 0.58330376657E+02 0.53025797103E+02 0.45879434175E+02 0.38556466289E+02 0.32307560345E+02
 0.27732936413E+02 0.24742854435E+02 0.22859062292E+02 0.22082309873E+02 0.22327278488E+02
 0.23461157562E+02 0.25273359412E+02 0.27422628297E+02 0.29464578570E+02 0.30932555015E+02
 0.31466976990E+02 0.30932555015E+02 0.29464578570E+02 0.27422628297E+02 0.25273359412E+02
 0.23461157562E+02 0.22327278488E+02 0.22082309873E+02 0.22859062292E+02 0.24742854435E+02
 0.27732936413E+02 0.32307560345E+02 0.38556466289E+02 0.45879434175E+02 0.53025797103E+02
 0.58330376657E+02 0.38622338776E+02 0.37644697607E+02 0.35042348995E+02 0.31627749221E+02
 0.28292999300E+02 0.25648235092E+02 0.23844201212E+02 0.22820845152E+02 0.22739243269E+02
 0.23652824008E+02 0.25645728933E+02 0.28639884905E+02 0.32345036553E+02 0.36286812420E+02
 0.39841431716E+02 0.42336878883E+02 0.43237477342E+02 0.42336878883E+02 0.39841431716E+02
 0.36286812420E+02 0.32345036553E+02 0.28639884905E+02 0.25645728933E+02 0.23652824008E+02
 0.22739243269E+02 0.22820845152E+02 0.23844201212E+02 0.25648235092E+02 0.28292999300E+02
 0.31627749221E+02 0.35042348995E+02 0.37644697607E+02 0.25662104448E+02 0.25315272618E+02
 0.24409066472E+02 0.23267163965E+02 0.22220154058E+02 0.21486274805E+02 0.21338042751E+02
 0.22010657273E+02 0.23627999238E+02 0.26434643430E+02 0.30505845732E+02 0.35617538980E+02
 0.41335605315E+02 0.47067400078E+02 0.52071543244E+02 0.55532295321E+02 0.56774643438E+02
 0.55532295321E+02 0.52071543244E+02 0.47067400078E+02 0.41335605315E+02 0.35617538980E+02
 0.30505845732E+02 0.26434643430E+02 0.23627999238E+02 0.22010657273E+02 0.21338042751E+02
 0.21486274805E+02 0.22220154058E+02 0.23267163965E+02 0.24409066472E+02 0.25315272618E+02
 0.18691147288E+02 0.18615819394E+02 0.18429678886E+02 0.18254841677E+02 0.18293778618E+02
 0.18805661838E+02 0.20049000173E+02 0.22200950616E+02 0.25584577606E+02 0.30478868411E+02
 0.36713381186E+02 0.43808052410E+02 0.51191521787E+02 0.58268277734E+02 0.64323010568E+02
 0.68490708770E+02 0.69987841396E+02 0.68490708770E+02 0.64323010568E+02 0.58268277734E+02
 0.51191521787E+02 0.43808052410E+02 0.36713381186E+02 0.30478868411E+02 0.25584577606E+02
 0.22200950616E+02 0.20049000173E+02 0.18805661838E+02 0.18293778618E+02 0.18254841677E+02
 0.18429678886E+02 0.18615819394E+02 0.14375028824E+02 0.14429268949E+02 0.14620481240E+02
 0.15043130546E+02 0.15871248203E+02 0.17346808654E+02 0.19709288099E+02 0.23249302753E+02
 0.28511505448E+02 0.35535936051E+02 0.43761189468E+02 0.52406763802E+02 0.60866579593E+02
 0.68729399563E+02 0.75450835431E+02 0.80139654930E+02 0.81842660481E+02 0.80139654930E+02
 0.75450835431E+02 0.68729399563E+02 0.60866579593E+02 0.52406763802E+02 0.43761189468E+02
 0.35535936051E+02 0.28511505448E+02 0.23249302753E+02 0.19709288099E+02 0.17346808654E+02
 0.15871248203E+02 0.15043130546E+02 0.14620481240E+02 0.14429268949E+02 0.11826026490E+02
 0.11957285364E+02 0.12377334789E+02 0.13178253429E+02 0.14541127757E+02 0.16725877040E+02
 0.19997206117E+02 0.24944552868E+02 0.32108957329E+02 0.41157433428E+02 0.51064771058E+02
 0.60802811539E+02 0.69904636618E+02 0.78326186267E+02 0.85743379522E+02 0.91109520337E+02
 0.93102056881E+02 0.91109520337E+02 0.85743379522E+02 0.78326186267E+02 0.69904636618E+02
 0.60802811539E+02 0.51064771058E+02 0.41157433428E+02 0.32108957329E+02 0.24944552868E+02
 0.19997206117E+02 0.16725877040E+02 0.14541127757E+02 0.13178253429E+02 0.12377334789E+02
 0.11957285364E+02 0.10427100849E+02 0.10597541992E+02 0.11139989029E+02 0.12162728724E+02
 0.13877212460E+02 0.16579632185E+02 0.20644314800E+02 0.26954765753E+02 0.35909572050E+02
 0.46757190073E+02 0.58036927270E+02 0.68599493517E+02 0.78288932223E+02 0.87526481629E+02
 0.96130347755E+02 0.10265393763E+03 0.10513508665E+03 0.10265393763E+03 0.96130347755E+02
 0.87526481629E+02 0.78288932223E+02 0.68599493517E+02 0.58036927270E+02 0.46757190073E+02
 0.35909572050E+02 0.26954765753E+02 0.20644314800E+02 0.16579632185E+02 0.13877212460E+02
 0.12162728724E+02 0.11139989029E+02 0.10597541992E+02 0.96450383299E+01 0.98351146291E+01
 0.10443384711E+02 0.11599192570E+02 0.13548563967E+02 0.16624054916E+02 0.21369977307E+02
 0.28858328419E+02 0.39316465330E+02 0.51621775857E+02 0.63986708249E+02 0.75270419395E+02
 0.85708693349E+02 0.96162601608E+02 0.10645616150E+03 0.11455024149E+03 0.11767896471E+03
 0.11455024149E+03 0.10645616150E+03 0.96162601608E+02 0.85708693349E+02 0.75270419395E+02
 0.63986708249E+02 0.51621775857E+02 0.39316465330E+02 0.28858328419E+02 0.21369977307E+02
 0.16624054916E+02 0.13548563967E+02 0.11599192570E+02 0.10443384711E+02 0.98351146291E+01
 0.91900550721E+01 0.93912806778E+01 0.10038081017E+02 0.11275051104E+02 0.13372569376E+02
 0.16689664311E+02 0.21918916000E+02 0.30222016993E+02 0.41697997373E+02 0.54975174912E+02
 0.68077311657E+02 0.79931562499E+02 0.91099660420E+02 0.10274876828E+03 0.11462827405E+03
 0.12415018113E+03 0.12785904753E+03 0.12415018113E+03 0.11462827405E+03 0.10274876828E+03
 0.91099660420E+02 0.79931562499E+02 0.68077311657E+02 0.54975174912E+02 0.41697997373E+02
 0.30222016993E+02 0.21918916000E+02 0.16689664311E+02 0.13372569376E+02 0.11275051104E+02
 0.10038081017E+02 0.93912806778E+01 0.90275058122E+01 0.92328661230E+01 0.98938209438E+01
 0.11160223650E+02 0.13310828285E+02 0.16714712098E+02 0.22121090553E+02 0.30717405701E+02
 0.42555588066E+02 0.56177139596E+02 0.69546213074E+02 0.81626403757E+02 0.93106001223E+02
 0.10526070865E+03 0.11779645843E+03 0.12790069032E+03 0.13184458923E+03 0.12790069032E+03
 0.11779645843E+03 0.10526070865E+03 0.93106001223E+02 0.81626403757E+02 0.69546213074E+02
 0.56177139596E+02 0.42555588066E+02 0.30717405701E+02 0.22121090553E+02 0.16714712098E+02
 0.13310828285E+02 0.11160223650E+02 0.98938209438E+01 0.92328661230E+01 0.91900550721E+01
 0.93912806778E+01 0.10038081017E+02 0.11275051104E+02 0.13372569376E+02 0.16689664311E+02
 0.21918916000E+02 0.30222016993E+02 0.41697997373E+02 0.54975174912E+02 0.68077311657E+02
 0.79931562499E+02 0.91099660420E+02 0.10274876828E+03 0.11462827405E+03 0.12415018113E+03
 0.12785904753E+03 0.12415018113E+03 0.11462827405E+03 0.10274876828E+03 0.91099660420E+02
 0.79931562499E+02 0.68077311657E+02 0.54975174912E+02 0.41697997373E+02 0.30222016993E+02
 0.21918916000E+02 0.16689664311E+02 0.13372569376E+02 0.11275051104E+02 0.10038081017E+02
 0.93912806778E+01 0.96450383299E+01 0.98351146291E+01 0.10443384711E+02 0.11599192570E+02
 0.13548563967E+02 0.16624054916E+02 0.21369977307E+02 0.28858328419E+02 0.39316465330E+02
 0.51621775857E+02 0.63986708249E+02 0.75270419395E+02 0.85708693349E+02 0.96162601608E+02
 0.10645616150E+03 0.11455024149E+03 0.11767896471E+03 0.11455024149E+03 0.10645616150E+03
 0.96162601608E+02 0.85708693349E+02 0.75270419395E+02 0.63986708249E+02 0.51621775857E+02
 0.39316465330E+02 0.28858328419E+02 0.21369977307E+02 0.16624054916E+02 0.13548563967E+02
 0.11599192570E+02 0.10443384711E+02 0.98351146291E+01 0.10427100849E+02 0.10597541992E+02
 0.11139989029E+02 0.12162728724E+02 0.13877212460E+02 0.16579632185E+02 0.20644314800E+02
 0.26954765753E+02 0.35909572050E+02 0.46757190073E+02 0.58036927270E+02 0.68599493517E+02
 0.78288932223E+02 0.87526481629E+02 0.96130347755E+02 0.10265393763E+03 0.10513508665E+03
 0.10265393763E+03 0.96130347755E+02 0.87526481629E+02 0.78288932223E+02 0.68599493517E+02
 0.58036927270E+02 0.46757190073E+02 0.35909572050E+02 0.26954765753E+02 0.20644314800E+02
 0.16579632185E+02 0.13877212460E+02 0.12162728724E+02 0.11139989029E+02 0.10597541992E+02
 0.11826026490E+02 0.11957285364E+02 0.12377334789E+02 0.13178253429E+02 0.14541127757E+02
 0.16725877040E+02 0.19997206117E+02 0.24944552868E+02 0.32108957329E+02 0.41157433428E+02
 0.51064771058E+02 0.60802811539E+02 0.69904636618E+02 0.78326186267E+02 0.85743379522E+02
 0.91109520337E+02 0.93102056881E+02 0.91109520337E+02 0.85743379522E+02 0.78326186267E+02
 0.69904636618E+02 0.60802811539E+02 0.51064771058E+02 0.41157433428E+02 0.32108957329E+02
 0.24944552868E+02 0.19997206117E+02 0.16725877040E+02 0.14541127757E+02 0.13178253429E+02
 0.12377334789E+02 0.11957285364E+02 0.14375028824E+02 0.14429268949E+02 0.14620481240E+02
 0.15043130546E+02 0.15871248203E+02 0.17346808654E+02 0.19709288099E+02 0.23249302753E+02
 0.28511505448E+02 0.35535936051E+02 0.43761189468E+02 0.52406763802E+02 0.60866579593E+02
 0.68729399563E+02 0.75450835431E+02 0.80139654930E+02 0.81842660481E+02 0.80139654930E+02
 0.75450835431E+02 0.68729399563E+02 0.60866579593E+02 0.52406763802E+02 0.43761189468E+02
 0.35535936051E+02 0.28511505448E+02 0.23249302753E+02 0.19709288099E+02 0.17346808654E+02
 0.15871248203E+02 0.15043130546E+02 0.14620481240E+02 0.14429268949E+02 0.18691147288E+02
 0.18615819394E+02 0.18429678886E+02 0.18254841677E+02 0.18293778618E+02 0.18805661838E+02
 0.20049000173E+02 0.22200950616E+02 0.25584577606E+02 0.30478868411E+02 0.36713381186E+02
 0.43808052410E+02 0.51191521787E+02 0.58268277734E+02 0.64323010568E+02 0.68490708770E+02
 0.69987841396E+02 0.68490708770E+02 0.64323010568E+02 0.58268277734E+02 0.51191521787E+02
 0.43808052410E+02 0.36713381186E+02 0.30478868411E+02 0.25584577606E+02 0.22200950616E+02
 0.20049000173E+02 0.18805661838E+02 0.18293778618E+02 0.18254841677E+02 0.18429678886E+02
 0.18615819394E+02 0.25662104448E+02 0.25315272618E+02 0.24409066472E+02 0.23267163965E+02
 0.22220154058E+02 0.21486274805E+02 0.21338042751E+02 0.22010657273E+02 0.23627999238E+02
 0.26434643430E+02 0.30505845732E+02 0.35617538980E+02 0.41335605315E+02 0.47067400078E+02
 0.52071543244E+02 0.55532295321E+02 0.56774643438E+02 0.55532295321E+02 0.52071543244E+02
 0.47067400078E+02 0.41335605315E+02 0.35617538980E+02 0.30505845732E+02 0.26434643430E+02
 0.23627999238E+02 0.22010657273E+02 0.21338042751E+02 0.21486274805E+02 0.22220154058E+02
 0.23267163965E+02 0.24409066472E+02 0.25315272618E+02 0.38622338776E+02 0.37644697607E+02
 0.35042348995E+02 0.31627749221E+02 0.28292999300E+02 0.25648235092E+02 0.23844201212E+02
 0.22820845152E+02 0.22739243269E+02 0.23652824008E+02 0.25645728933E+02 0.28639884905E+02
 0.32345036553E+02 0.36286812420E+02 0.39841431716E+02 0.42336878883E+02 0.43237477342E+02
 0.42336878883E+02 0.39841431716E+02 0.36286812420E+02 0.32345036553E+02 0.28639884905E+02
 0.25645728933E+02 0.23652824008E+02 0.22739243269E+02 0.22820845152E+02 0.23844201212E+02
 0.25648235092E+02 0.28292999300E+02 0.31627749221E+02 0.35042348995E+02 0.37644697607E+02
 0.60300828369E+02 0.58330376657E+02 0.53025797103E+02 0.45879434175E+02 0.38556466289E+02
 0.32307560345E+02 0.27732936413E+02 0.24742854435E+02 0.22859062292E+02 0.22082309873E+02
 0.22327278488E+02 0.23461157562E+02 0.25273359412E+02 0.27422628297E+02 0.29464578570E+02
 0.30932555015E+02 0.31466976990E+02 0.30932555015E+02 0.29464578570E+02 0.27422628297E+02
 0.25273359412E+02 0.23461157562E+02 0.22327278488E+02 0.22082309873E+02 0.22859062292E+02
 0.24742854435E+02 0.27732936413E+02 0.32307560345E+02 0.38556466289E+02 0.45879434175E+02
 0.53025797103E+02 0.58330376657E+02 0.90451757004E+02 0.87238924660E+02 0.78549200609E+02
 0.66682158761E+02 0.54150578908E+02 0.42865907043E+02 0.33962590397E+02 0.27829100542E+02
 0.23964937568E+02 0.21495005523E+02 0.20277867934E+02 0.20044738750E+02 0.20461469071E+02
 0.21245455788E+02 0.22097028775E+02 0.22736504113E+02 0.22971839433E+02 0.22736504113E+02
 0.22097028775E+02 0.21245455788E+02 0.20461469071E+02 0.20044738750E+02 0.20277867934E+02
 0.21495005523E+02 0.23964937568E+02 0.27829100542E+02 0.33962590397E+02 0.42865907043E+02
 0.54150578908E+02 0.66682158761E+02 0.78549200609E+02 0.87238924660E+02 0.12696490332E+03
 0.12235831306E+03 0.10991963291E+03 0.92902437236E+02 0.74662279248E+02 0.57602387176E+02
 0.43275350504E+02 0.32681972596E+02 0.25932546155E+02 0.21778711123E+02 0.19167944170E+02
 0.17825910217E+02 0.17343881496E+02 0.17336260061E+02 0.17499513219E+02 0.17645867376E+02
 0.17699589101E+02 0.17645867376E+02 0.17499513219E+02 0.17336260061E+02 0.17343881496E+02
 0.17825910217E+02 0.19167944170E+02 0.21778711123E+02 0.25932546155E+02 0.32681972596E+02
 0.43275350504E+02 0.57602387176E+02 0.74662279248E+02 0.92902437236E+02 0.10991963291E+03
 0.12235831306E+03 0.16794189828E+03 0.16175965896E+03 0.14519136230E+03 0.12274523093E+03
 0.98702984943E+02 0.75724560390E+02 0.55482070922E+02 0.39542297629E+02 0.28887715243E+02
 0.22700575605E+02 0.18810663649E+02 0.16494086851E+02 0.15300957454E+02 0.14773649029E+02
 0.14558685089E+02 0.14457111492E+02 0.14421112329E+02 0.14457111492E+02 0.14558685089E+02
 0.14773649029E+02 0.15300957454E+02 0.16494086851E+02 0.18810663649E+02 0.22700575605E+02
 0.28887715243E+02 0.39542297629E+02 0.55482070922E+02 0.75724560390E+02 0.98702984943E+02
 0.12274523093E+03 0.14519136230E+03 0.16175965896E+03 0.21160056510E+03 0.20358612188E+03
 0.18233292477E+03 0.15403676548E+03 0.12414767961E+03 0.95439736029E+02 0.69357615447E+02
 0.47811221991E+02 0.32713500294E+02 0.23978169502E+02 0.18932295497E+02 0.15794519997E+02
 0.14052553656E+02 0.13166148125E+02 0.12709758983E+02 0.12454041645E+02 0.12362353210E+02
 0.12454041645E+02 0.12709758983E+02 0.13166148125E+02 0.14052553656E+02 0.15794519997E+02
 0.18932295497E+02 0.23978169502E+02 0.32713500294E+02 0.47811221991E+02 0.69357615447E+02
 0.95439736029E+02 0.12414767961E+03 0.15403676548E+03 0.18233292477E+03 0.20358612188E+03
 0.25355905773E+03 0.24359338631E+03 0.21741693379E+03 0.18317592689E+03 0.14769134306E+03
 0.11383981342E+03 0.82621647129E+02 0.56017432556E+02 0.36710768979E+02 0.25370525293E+02
 0.19251751973E+02 0.15473340807E+02 0.13332420960E+02 0.12213971786E+02 0.11617712505E+02
 0.11275520057E+02 0.11152188634E+02 0.11275520057E+02 0.11617712505E+02 0.12213971786E+02
 0.13332420960E+02 0.15473340807E+02 0.19251751973E+02 0.25370525293E+02 0.36710768979E+02
 0.56017432556E+02 0.82621647129E+02 0.11383981342E+03 0.14769134306E+03 0.18317592689E+03
 0.21741693379E+03 0.24359338631E+03 0.28527363318E+03 0.27372147124E+03 0.24356123626E+03
 0.20458121752E+03 0.16478976557E+03 0.12718148623E+03 0.92337735125E+02 0.62154000380E+02
 0.39793946180E+02 0.26481344290E+02 0.19540192916E+02 0.15347360623E+02 0.12959430590E+02
 0.11709856238E+02 0.11042520425E+02 0.10657985863E+02 0.10518947642E+02 0.10657985863E+02
 0.11042520425E+02 0.11709856238E+02 0.12959430590E+02 0.15347360623E+02 0.19540192916E+02
 0.26481344290E+02 0.39793946180E+02 0.62154000380E+02 0.92337735125E+02 0.12718148623E+03
 0.16478976557E+03 0.20458121752E+03 0.24356123626E+03 0.27372147124E+03 0.28539959816E+03
 0.27377898878E+03 0.24345341229E+03 0.20430356721E+03 0.16442157905E+03 0.12682898818E+03
 0.92073785262E+02 0.61993223105E+02 0.39709099206E+02 0.26437077828E+02 0.19515818800E+02
 0.15335878187E+02 0.12957022009E+02 0.11714009510E+02 0.11051328583E+02 0.10669654964E+02
 0.10531590770E+02 0.10669654964E+02 0.11051328583E+02 0.11714009510E+02 0.12957022009E+02
 0.15335878187E+02 0.19515818800E+02 0.26437077828E+02 0.39709099206E+02 0.61993223105E+02
 0.92073785262E+02 0.12682898818E+03 0.16442157905E+03 0.20430356721E+03 0.24345341229E+03
 0.27377898878E+03 0.27426787682E+03 0.26321552980E+03 0.23431441168E+03 0.19685069305E+03
 0.15848459765E+03 0.12219400064E+03 0.88684268710E+02 0.59836764258E+02 0.38613556600E+02
 0.26035239166E+02 0.19406298494E+02 0.15366722719E+02 0.13069961631E+02 0.11868699950E+02
 0.11227335229E+02 0.10858025242E+02 0.10724575108E+02 0.10858025242E+02 0.11227335229E+02
 0.11868699950E+02 0.13069961631E+02 0.15366722719E+02 0.19406298494E+02 0.26035239166E+02
 0.38613556600E+02 0.59836764258E+02 0.88684268710E+02 0.12219400064E+03 0.15848459765E+03
 0.19685069305E+03 0.23431441168E+03 0.26321552980E+03 0.24466784422E+03 0.23507326527E+03
 0.20983247644E+03 0.17672748310E+03 0.14234290188E+03 0.10956576167E+03 0.79486856031E+02
 0.54040515206E+02 0.35711192501E+02 0.24986979156E+02 0.19125277403E+02 0.15488978260E+02
 0.13432858998E+02 0.12360000118E+02 0.11788632206E+02 0.11461029091E+02 0.11343012771E+02
 0.11461029091E+02 0.11788632206E+02 0.12360000118E+02 0.13432858998E+02 0.15488978260E+02
 0.19125277403E+02 0.24986979156E+02 0.35711192501E+02 0.54040515206E+02 0.79486856031E+02
 0.10956576167E+03 0.14234290188E+03 0.17672748310E+03 0.20983247644E+03 0.23507326527E+03
 0.20513726281E+03 0.19735245945E+03 0.17668240505E+03 0.14911363300E+03 0.11997796424E+03
 0.92077323331E+02 0.66900707716E+02 0.46279563816E+02 0.31943960307E+02 0.23664872767E+02
 0.18813198914E+02 0.15799820214E+02 0.14132106063E+02 0.13286224920E+02 0.12852376395E+02
 0.12609911230E+02 0.12523020117E+02 0.12609911230E+02 0.12852376395E+02 0.13286224920E+02
 0.14132106063E+02 0.15799820214E+02 0.18813198914E+02 0.23664872767E+02 0.31943960307E+02
 0.46279563816E+02 0.66900707716E+02 0.92077323331E+02 0.11997796424E+03 0.14911363300E+03
 0.17668240505E+03 0.19735245945E+03 0.16343751374E+03 0.15738337183E+03 0.14114887885E+03
 0.11914774030E+03 0.95619573447E+02 0.73245750716E+02 0.53697175147E+02 0.38446789179E+02
 0.28329131524E+02 0.22432466575E+02 0.18691565334E+02 0.16476119722E+02 0.15342613772E+02
 0.14847805850E+02 0.14651035977E+02 0.14560220814E+02 0.14528119234E+02 0.14560220814E+02
 0.14651035977E+02 0.14847805850E+02 0.15342613772E+02 0.16476119722E+02 0.18691565334E+02
 0.22432466575E+02 0.28329131524E+02 0.38446789179E+02 0.53697175147E+02 0.73245750716E+02
 0.95619573447E+02 0.11914774030E+03 0.14114887885E+03 0.15738337183E+03 0.12375344052E+03
 0.11922584890E+03 0.10700301842E+03 0.90299856488E+02 0.72454002797E+02 0.55866087902E+02
 0.42055562267E+02 0.31936332760E+02 0.25518176309E+02 0.21529434474E+02 0.19032632454E+02
 0.17763997018E+02 0.17323240233E+02 0.17336984152E+02 0.17511688248E+02 0.17663762179E+02
 0.17719322209E+02 0.17663762179E+02 0.17511688248E+02 0.17336984152E+02 0.17323240233E+02
 0.17763997018E+02 0.19032632454E+02 0.21529434474E+02 0.25518176309E+02 0.31936332760E+02
 0.42055562267E+02 0.55866087902E+02 0.72454002797E+02 0.90299856488E+02 0.10700301842E+03
 0.11922584890E+03 0.88116758774E+02 0.84965717082E+02 0.76449821433E+02 0.64843848821E+02
 0.52636914893E+02 0.41714326254E+02 0.33165485957E+02 0.27314748813E+02 0.23611108344E+02
 0.21246029520E+02 0.20103010086E+02 0.19912984423E+02 0.20343659283E+02 0.21120330979E+02
 0.21956369511E+02 0.22582615296E+02 0.22812965909E+02 0.22582615296E+02 0.21956369511E+02
 0.21120330979E+02 0.20343659283E+02 0.19912984423E+02 0.20103010086E+02 0.21246029520E+02
 0.23611108344E+02 0.27314748813E+02 0.33165485957E+02 0.41714326254E+02 0.52636914893E+02
 0.64843848821E+02 0.76449821433E+02 0.84965717082E+02 0.58707228679E+02 0.56787192909E+02
 0.51623796439E+02 0.44684058840E+02 0.37601091144E+02 0.31589877720E+02 0.27210946018E+02
 0.24338087617E+02 0.22529689524E+02 0.21810365731E+02 0.22083819331E+02 0.23207771414E+02
 0.24981073158E+02 0.27076278536E+02 0.29064496049E+02 0.30493478492E+02 0.31013713341E+02
 0.30493478492E+02 0.29064496049E+02 0.27076278536E+02 0.24981073158E+02 0.23207771414E+02
 0.22083819331E+02 0.21810365731E+02 0.22529689524E+02 0.24338087617E+02 0.27210946018E+02
 0.31589877720E+02 0.37601091144E+02 0.44684058840E+02 0.51623796439E+02 0.56787192909E+02
 0.37696747195E+02 0.36752333695E+02 0.34240815601E+02 0.30951460200E+02 0.27746182954E+02
 0.25204612832E+02 0.23454698332E+02 0.22468490118E+02 0.22413049542E+02 0.23326620325E+02
 0.25278945476E+02 0.28199831710E+02 0.31811046066E+02 0.35652338079E+02 0.39116178910E+02
 0.41547729226E+02 0.42425218057E+02 0.41547729226E+02 0.39116178910E+02 0.35652338079E+02
 0.31811046066E+02 0.28199831710E+02 0.25278945476E+02 0.23326620325E+02 0.22413049542E+02
 0.22468490118E+02 0.23454698332E+02 0.25204612832E+02 0.27746182954E+02 0.30951460200E+02
 0.34240815601E+02 0.36752333695E+02 0.25229188638E+02 0.24895626793E+02 0.24023177221E+02
 0.22919629919E+02 0.21895395380E+02 0.21170654510E+02 0.21025597747E+02 0.21689512512E+02
 0.23275126902E+02 0.26007643000E+02 0.29971709570E+02 0.34957588221E+02 0.40543297731E+02
 0.46145852538E+02 0.51036158180E+02 0.54416289117E+02 0.55629183190E+02 0.54416289117E+02
 0.51036158180E+02 0.46145852538E+02 0.40543297731E+02 0.34957588221E+02 0.29971709570E+02
 0.26007643000E+02 0.23275126902E+02 0.21689512512E+02 0.21025597747E+02 0.21170654510E+02
 0.21895395380E+02 0.22919629919E+02 0.24023177221E+02 0.24895626793E+02 0.18496666170E+02
 0.18421216255E+02 0.18234391970E+02 0.18056838562E+02 0.18087531141E+02 0.18580288516E+02
 0.19788752824E+02 0.21885100517E+02 0.25166311247E+02 0.29919235761E+02 0.35996915975E+02
 0.42939351127E+02 0.50181380136E+02 0.57124308993E+02 0.63056158225E+02 0.67131619930E+02
 0.68593827280E+02 0.67131619930E+02 0.63056158225E+02 0.57124308993E+02 0.50181380136E+02
 0.42939351127E+02 0.35996915975E+02 0.29919235761E+02 0.25166311247E+02 0.21885100517E+02
 0.19788752824E+02 0.18580288516E+02 0.18087531141E+02 0.18056838562E+02 0.18234391970E+02
 0.18421216255E+02 0.14311056403E+02 0.14362895336E+02 0.14546170165E+02 0.14952908101E+02
 0.15752737191E+02 0.17182173543E+02 0.19477773016E+02 0.22906632080E+02 0.28001481313E+02
 0.34831948795E+02 0.42874792244E+02 0.51370259170E+02 0.59702065581E+02 0.67433732841E+02
 0.74014870694E+02 0.78585747235E+02 0.80241660934E+02 0.78585747235E+02 0.74014870694E+02
 0.67433732841E+02 0.59702065581E+02 0.51370259170E+02 0.42874792244E+02 0.34831948795E+02
 0.28001481313E+02 0.22906632080E+02 0.19477773016E+02 0.17182173543E+02 0.15752737191E+02
 0.14952908101E+02 0.14546170165E+02 0.14362895336E+02 0.11852568635E+02 0.11979411098E+02
 0.12385371598E+02 0.13159801594E+02 0.14478990712E+02 0.16597412546E+02 0.19771899269E+02
 0.24553486979E+02 0.31495654526E+02 0.40314066275E+02 0.50033457643E+02 0.59637664228E+02
 0.68621088702E+02 0.76886394573E+02 0.84101603560E+02 0.89283024188E+02 0.91199585816E+02
 0.89283024188E+02 0.84101603560E+02 0.76886394573E+02 0.68621088702E+02 0.59637664228E+02
 0.50033457643E+02 0.40314066275E+02 0.31495654526E+02 0.24553486979E+02 0.19771899269E+02
 0.16597412546E+02 0.14478990712E+02 0.13159801594E+02 0.12385371598E+02 0.11979411098E+02
 0.10509383405E+02 0.10674174948E+02 0.11198730043E+02 0.12188285519E+02 0.13848995408E+02
 0.16471571976E+02 0.20408837278E+02 0.26506824270E+02 0.35195733780E+02 0.45790010075E+02
 0.56884285674E+02 0.67322297715E+02 0.76872157435E+02 0.85873779810E+02 0.94148512523E+02
 0.10036671935E+03 0.10272211397E+03 0.10036671935E+03 0.94148512523E+02 0.85873779810E+02
 0.76872157435E+02 0.67322297715E+02 0.56884285674E+02 0.45790010075E+02 0.35195733780E+02
 0.26506824270E+02 0.20408837278E+02 0.16471571976E+02 0.13848995408E+02 0.12188285519E+02
 0.11198730043E+02 0.10674174948E+02 0.97618158600E+01 0.99455247553E+01 0.10533647244E+02
 0.11652163421E+02 0.13541348026E+02 0.16528231890E+02 0.21118966847E+02 0.28358234451E+02
 0.38518027306E+02 0.50554429580E+02 0.62734105775E+02 0.73884894288E+02 0.84128640319E+02
 0.94222662520E+02 0.10401571260E+03 0.11165127574E+03 0.11459256421E+03 0.11165127574E+03
 0.10401571260E+03 0.94222662520E+02 0.84128640319E+02 0.73884894288E+02 0.62734105775E+02
 0.50554429580E+02 0.38518027306E+02 0.28358234451E+02 0.21118966847E+02 0.16528231890E+02
 0.13541348026E+02 0.11652163421E+02 0.10533647244E+02 0.99455247553E+01 0.93283288626E+01
 0.95227350398E+01 0.10147972950E+02 0.11345092741E+02 0.13378477863E+02 0.16600630327E+02
 0.21655631551E+02 0.29685750275E+02 0.40842791319E+02 0.53840950790E+02 0.66754269525E+02
 0.78457915967E+02 0.89371135748E+02 0.10054355714E+03 0.11177082795E+03 0.12070257438E+03
 0.12417162793E+03 0.12070257438E+03 0.11177082795E+03 0.10054355714E+03 0.89371135748E+02
 0.78457915967E+02 0.66754269525E+02 0.53840950790E+02 0.40842791319E+02 0.29685750275E+02
 0.21655631551E+02 0.16600630327E+02 0.13378477863E+02 0.11345092741E+02 0.10147972950E+02
 0.95227350398E+01 0.91736555089E+01 0.93720235266E+01 0.10010881524E+02 0.11236488306E+02
 0.13321540173E+02 0.16627978705E+02 0.21853316946E+02 0.30168257935E+02 0.41680335364E+02
 0.55019171584E+02 0.68197165765E+02 0.80117807853E+02 0.91316290612E+02 0.10294623223E+03
 0.11476883487E+03 0.12423070733E+03 0.12791413521E+03 0.12423070733E+03 0.11476883487E+03
 0.10294623223E+03 0.91316290612E+02 0.80117807853E+02 0.68197165765E+02 0.55019171584E+02
 0.41680335364E+02 0.30168257935E+02 0.21853316946E+02 0.16627978705E+02 0.13321540173E+02
 0.11236488306E+02 0.10010881524E+02 0.93720235266E+01 0.93283288626E+01 0.95227350398E+01
 0.10147972950E+02 0.11345092741E+02 0.13378477863E+02 0.16600630327E+02 0.21655631551E+02
 0.29685750275E+02 0.40842791319E+02 0.53840950790E+02 0.66754269525E+02 0.78457915967E+02
 0.89371135748E+02 0.10054355714E+03 0.11177082795E+03 0.12070257438E+03 0.12417162793E+03
 0.12070257438E+03 0.11177082795E+03 0.10054355714E+03 0.89371135748E+02 0.78457915967E+02
 0.66754269525E+02 0.53840950790E+02 0.40842791319E+02 0.29685750275E+02 0.21655631551E+02
 0.16600630327E+02 0.13378477863E+02 0.11345092741E+02 0.10147972950E+02 0.95227350398E+01
 0.97618158600E+01 0.99455247553E+01 0.10533647244E+02 0.11652163421E+02 0.13541348026E+02
 0.16528231890E+02 0.21118966847E+02 0.28358234451E+02 0.38518027306E+02 0.50554429580E+02
 0.62734105775E+02 0.73884894288E+02 0.84128640319E+02 0.94222662520E+02 0.10401571260E+03
 0.11165127574E+03 0.11459256421E+03 0.11165127574E+03 0.10401571260E+03 0.94222662520E+02
 0.84128640319E+02 0.73884894288E+02 0.62734105775E+02 0.50554429580E+02 0.38518027306E+02