   4   4   0   0
  0.1200752E+02  0.3635000E-09  0.3635000E-09  0.3635000E-09  0.5000000E-15
  1.000000000000000E-004
  CAR 
 unknown system                          
     30.98138675     -0.43355986  301     12.22833417      1.00000000
     -0.434  0.0000E+00  0.0000E+00
     -0.329  0.0000E+00  0.0000E+00
     -0.224  0.0000E+00  0.0000E+00
     -0.119 -0.2335E-30 -0.2445E-31
     -0.015 -0.1134E-26 -0.1188E-27
      0.090 -0.3170E-23 -0.3321E-24
      0.195 -0.5095E-20 -0.5339E-21
      0.299 -0.4705E-17 -0.4932E-18
      0.404 -0.2414E-14 -0.2533E-15
      0.509 -0.7299E-12 -0.7669E-13
      0.614 -0.1256E-09 -0.1323E-10
      0.718 -0.1228E-07 -0.1299E-08
      0.823 -0.6769E-06 -0.7219E-07
      0.928 -0.2082E-04 -0.2252E-05
      1.032 -0.3495E-03 -0.3885E-04
      1.137 -0.3056E-02 -0.3589E-03
      1.242 -0.1215E-01 -0.1631E-02
      1.347 -0.7477E-02 -0.2414E-02
      1.451  0.8762E-01  0.6761E-02
      1.556  0.2581E+00  0.3379E-01
      1.661  0.2815E+00  0.6327E-01
      1.765  0.1206E+00  0.7590E-01
      1.870  0.1542E-02  0.7606E-01
      1.975 -0.1404E-01  0.7459E-01
      2.080 -0.4312E-02  0.7414E-01
      2.184 -0.5675E-03  0.7408E-01
      2.289 -0.4877E-04  0.7407E-01
      2.394 -0.2306E-03  0.7405E-01
      2.499 -0.2682E-02  0.7377E-01
      2.603 -0.1571E-01  0.7212E-01
      2.708 -0.3611E-01  0.6834E-01
      2.813  0.3171E-01  0.7166E-01
      2.917  0.3190E+00  0.1051E+00
      3.022  0.7471E+00  0.1833E+00
      3.127  0.1173E+01  0.3061E+00
      3.232  0.1276E+01  0.4397E+00
      3.336  0.7330E+00  0.5164E+00
      3.441  0.1122E+00  0.5282E+00
      3.546 -0.7772E-01  0.5201E+00
      3.650 -0.1261E-01  0.5187E+00
      3.755  0.1574E+00  0.5352E+00
      3.860  0.2854E+00  0.5651E+00
      3.965  0.1367E+00  0.5794E+00
      4.069 -0.1877E+00  0.5598E+00
      4.174  0.7290E-01  0.5674E+00
      4.279  0.2169E+01  0.7945E+00
      4.383  0.5107E+01  0.1329E+01
      4.488  0.5063E+01  0.1859E+01
      4.593  0.2038E+01  0.2073E+01
      4.698  0.3710E+00  0.2112E+01
      4.802  0.1772E+01  0.2297E+01
      4.907  0.3812E+01  0.2696E+01
      5.012  0.3617E+01  0.3075E+01
      5.116  0.1939E+01  0.3278E+01
      5.221  0.1072E+01  0.3390E+01
      5.326  0.1158E+01  0.3512E+01
      5.431  0.2040E+01  0.3725E+01
      5.535  0.3864E+01  0.4130E+01
      5.640  0.5593E+01  0.4716E+01
      5.745  0.6643E+01  0.5411E+01
      5.849  0.5966E+01  0.6036E+01
      5.954  0.3222E+01  0.6374E+01
      6.059  0.2174E+01  0.6601E+01
      6.164  0.5152E+01  0.7141E+01
      6.268  0.9022E+01  0.8085E+01
      6.373  0.9618E+01  0.9093E+01
      6.478  0.6748E+01  0.9799E+01
      6.582  0.3647E+01  0.1018E+02
      6.687  0.2213E+01  0.1041E+02
      6.792  0.2814E+01  0.1071E+02
      6.897  0.4822E+01  0.1121E+02
      7.001  0.5418E+01  0.1178E+02
      7.106  0.3648E+01  0.1216E+02
      7.211  0.2672E+01  0.1244E+02
      7.315  0.3713E+01  0.1283E+02
      7.420  0.4943E+01  0.1335E+02
      7.525  0.6361E+01  0.1401E+02
      7.630  0.7635E+01  0.1481E+02
      7.734  0.6835E+01  0.1553E+02
      7.839  0.4282E+01  0.1598E+02
      7.944  0.1896E+01  0.1618E+02
      8.048  0.4642E+00  0.1622E+02
      8.153  0.5233E+00  0.1628E+02
      8.258  0.1907E+01  0.1648E+02
      8.363  0.3332E+01  0.1683E+02
      8.467  0.4628E+01  0.1731E+02
      8.572  0.7213E+01  0.1807E+02
      8.677  0.1096E+02  0.1922E+02
      8.781  0.1231E+02  0.2050E+02
      8.886  0.9838E+01  0.2154E+02
      8.991  0.8118E+01  0.2239E+02
      9.096  0.9376E+01  0.2337E+02
      9.200  0.1145E+02  0.2457E+02
      9.305  0.1292E+02  0.2592E+02
      9.410  0.1195E+02  0.2717E+02
      9.515  0.8213E+01  0.2803E+02
      9.619  0.3746E+01  0.2842E+02
      9.724  0.9553E+00  0.2852E+02
      9.829  0.8781E+00  0.2861E+02
      9.933  0.1772E+01  0.2880E+02
     10.038  0.2442E+01  0.2906E+02
     10.143  0.3433E+01  0.2942E+02
     10.248  0.4196E+01  0.2985E+02
     10.352  0.4303E+01  0.3031E+02
     10.457  0.5073E+01  0.3084E+02
     10.562  0.5814E+01  0.3145E+02
     10.666  0.4638E+01  0.3193E+02
     10.771  0.2361E+01  0.3218E+02
     10.876  0.9833E+00  0.3228E+02
     10.981  0.6584E+00  0.3235E+02
     11.085  0.2160E+01  0.3258E+02
     11.190  0.6224E+01  0.3323E+02
     11.295  0.8452E+01  0.3411E+02
     11.399  0.7050E+01  0.3485E+02
     11.504  0.7279E+01  0.3561E+02
     11.609  0.8819E+01  0.3654E+02
     11.714  0.7309E+01  0.3730E+02
     11.818  0.4914E+01  0.3782E+02
     11.923  0.4255E+01  0.3826E+02
     12.028  0.4457E+01  0.3873E+02
     12.132  0.5750E+01  0.3933E+02
     12.237  0.6956E+01  0.4006E+02
     12.342  0.5525E+01  0.4064E+02
     12.447  0.2358E+01  0.4089E+02
     12.551  0.2686E+00  0.4091E+02
     12.656 -0.1805E+00  0.4089E+02
     12.761  0.2078E+00  0.4092E+02
     12.865  0.8960E+00  0.4101E+02
     12.970  0.1308E+01  0.4115E+02
     13.075  0.1053E+01  0.4126E+02
     13.180  0.7456E+00  0.4134E+02
     13.284  0.1560E+01  0.4150E+02
     13.389  0.2550E+01  0.4177E+02
     13.494  0.1812E+01  0.4196E+02
     13.598  0.7596E+00  0.4204E+02
     13.703  0.1354E+01  0.4218E+02
     13.808  0.2237E+01  0.4241E+02
     13.913  0.1856E+01  0.4261E+02
     14.017  0.1105E+01  0.4272E+02
     14.122  0.8150E+00  0.4281E+02
     14.227  0.9811E+00  0.4291E+02
     14.331  0.1236E+01  0.4304E+02
     14.436  0.1123E+01  0.4316E+02
     14.541  0.8449E+00  0.4325E+02
     14.646  0.9219E+00  0.4334E+02
     14.750  0.1988E+01  0.4355E+02
     14.855  0.2973E+01  0.4386E+02
     14.960  0.2369E+01  0.4411E+02
     15.064  0.1383E+01  0.4425E+02
     15.169  0.1038E+01  0.4436E+02
     15.274  0.1156E+01  0.4448E+02
     15.379  0.1932E+01  0.4469E+02
     15.483  0.2096E+01  0.4491E+02
     15.588  0.1282E+01  0.4504E+02
     15.693  0.1858E+01  0.4523E+02
     15.797  0.3346E+01  0.4558E+02
     15.902  0.2743E+01  0.4587E+02
     16.007  0.7884E+00  0.4595E+02
     16.112 -0.1617E+00  0.4594E+02
     16.216 -0.1797E+00  0.4592E+02
     16.321  0.1787E+00  0.4594E+02
     16.426  0.8747E+00  0.4603E+02
     16.531  0.1195E+01  0.4615E+02
     16.635  0.6621E+00  0.4622E+02
     16.740  0.7767E-01  0.4623E+02
     16.845 -0.6133E-01  0.4623E+02
     16.949 -0.2542E-01  0.4622E+02
     17.054 -0.4023E-02  0.4622E+02
     17.159 -0.3183E-03  0.4622E+02
     17.264 -0.1353E-04  0.4622E+02
     17.368 -0.3578E-06  0.4622E+02
     17.473 -0.2586E-05  0.4622E+02
     17.578 -0.9416E-04  0.4622E+02
     17.682 -0.1894E-02  0.4622E+02
     17.787 -0.2026E-01  0.4622E+02
     17.892 -0.1050E+00  0.4621E+02
     17.997 -0.1698E+00  0.4619E+02
     18.101  0.5339E+00  0.4625E+02
     18.206  0.2499E+01  0.4651E+02
     18.311  0.3600E+01  0.4689E+02
     18.415  0.2123E+01  0.4711E+02
     18.520  0.2901E+00  0.4714E+02
     18.625 -0.2521E+00  0.4711E+02
     18.730 -0.1611E+00  0.4710E+02
     18.834  0.3444E+00  0.4713E+02
     18.939  0.1596E+01  0.4730E+02
     19.044  0.2854E+01  0.4760E+02
     19.148  0.2661E+01  0.4788E+02
     19.253  0.1225E+01  0.4800E+02
     19.358  0.1356E+00  0.4802E+02
     19.463 -0.1121E+00  0.4801E+02
     19.567 -0.5212E-01  0.4800E+02
     19.672 -0.9928E-02  0.4800E+02
     19.777 -0.3587E-02  0.4800E+02
     19.881 -0.2507E-01  0.4800E+02
     19.986 -0.1164E+00  0.4798E+02
     20.091 -0.1674E+00  0.4797E+02
     20.196  0.5749E+00  0.4803E+02
     20.300  0.2679E+01  0.4831E+02
     20.405  0.4319E+01  0.4876E+02
     20.510  0.3283E+01  0.4910E+02
     20.614  0.1013E+01  0.4921E+02
     20.719  0.4187E-01  0.4921E+02
     20.824  0.3215E+00  0.4925E+02
     20.929  0.5357E+00  0.4930E+02
     21.033  0.2544E+00  0.4933E+02
     21.138  0.2468E-02  0.4933E+02
     21.243  0.1070E+00  0.4934E+02
     21.347  0.4289E+00  0.4939E+02
     21.452  0.1238E+01  0.4952E+02
     21.557  0.2880E+01  0.4982E+02
     21.662  0.3753E+01  0.5021E+02
     21.766  0.2981E+01  0.5052E+02
     21.871  0.2459E+01  0.5078E+02
     21.976  0.2191E+01  0.5101E+02
     22.080  0.1058E+01  0.5112E+02
     22.185  0.7174E-01  0.5113E+02
     22.290 -0.1197E+00  0.5112E+02
     22.395 -0.4689E-01  0.5111E+02
     22.499 -0.2836E-01  0.5111E+02
     22.604 -0.7944E-01  0.5110E+02
     22.709 -0.6106E-01  0.5109E+02
     22.814  0.4524E+00  0.5114E+02
     22.918  0.1655E+01  0.5131E+02
     23.023  0.2816E+01  0.5161E+02
     23.128  0.2930E+01  0.5192E+02
     23.232  0.1933E+01  0.5212E+02
     23.337  0.8650E+00  0.5221E+02
     23.442  0.5706E+00  0.5227E+02
     23.547  0.9707E+00  0.5237E+02
     23.651  0.1569E+01  0.5253E+02
     23.756  0.2168E+01  0.5276E+02
     23.861  0.2476E+01  0.5302E+02
     23.965  0.1948E+01  0.5323E+02
     24.070  0.1129E+01  0.5334E+02
     24.175  0.9896E+00  0.5345E+02
     24.280  0.1254E+01  0.5358E+02
     24.384  0.1532E+01  0.5374E+02
     24.489  0.2287E+01  0.5398E+02
     24.594  0.2551E+01  0.5425E+02
     24.698  0.1453E+01  0.5440E+02
     24.803  0.4240E+00  0.5444E+02
     24.908  0.2939E+00  0.5447E+02
     25.013  0.5553E+00  0.5453E+02
     25.117  0.9123E+00  0.5463E+02
     25.222  0.1329E+01  0.5477E+02
     25.327  0.1454E+01  0.5492E+02
     25.431  0.1723E+01  0.5510E+02
     25.536  0.2730E+01  0.5538E+02
     25.641  0.3812E+01  0.5578E+02
     25.746  0.4135E+01  0.5622E+02
     25.850  0.3386E+01  0.5657E+02
     25.955  0.2363E+01  0.5682E+02
     26.060  0.1890E+01  0.5702E+02
     26.164  0.1618E+01  0.5719E+02
     26.269  0.1611E+01  0.5735E+02
     26.374  0.1828E+01  0.5755E+02
     26.479  0.1455E+01  0.5770E+02
     26.583  0.8688E+00  0.5779E+02
     26.688  0.1376E+01  0.5793E+02
     26.793  0.2409E+01  0.5819E+02
     26.897  0.2281E+01  0.5842E+02
     27.002  0.1489E+01  0.5858E+02
     27.107  0.1211E+01  0.5871E+02
     27.212  0.8775E+00  0.5880E+02
     27.316  0.2552E+00  0.5883E+02
     27.421 -0.4781E-01  0.5882E+02
     27.526 -0.4517E-01  0.5882E+02
     27.630 -0.1033E-01  0.5881E+02
     27.735 -0.1106E-02  0.5881E+02
     27.840 -0.6224E-04  0.5881E+02
     27.945 -0.5473E-05  0.5881E+02
     28.049 -0.1170E-03  0.5881E+02
     28.154 -0.2104E-02  0.5881E+02
     28.259 -0.1988E-01  0.5881E+02
     28.363 -0.8784E-01  0.5880E+02
     28.468 -0.9127E-01  0.5879E+02
     28.573  0.5313E+00  0.5885E+02
     28.678  0.1822E+01  0.5904E+02
     28.782  0.2341E+01  0.5929E+02
     28.887  0.2088E+01  0.5950E+02
     28.992  0.2321E+01  0.5975E+02
     29.096  0.1946E+01  0.5995E+02
     29.201  0.6596E+00  0.6002E+02
     29.306 -0.6571E-01  0.6001E+02
     29.411 -0.9762E-01  0.6000E+02
     29.515 -0.2447E-01  0.6000E+02
     29.620 -0.2796E-02  0.6000E+02
     29.725 -0.1665E-03  0.6000E+02
     29.830 -0.5416E-05  0.6000E+02
     29.934 -0.9821E-07  0.6000E+02
     30.039 -0.1005E-08  0.6000E+02
     30.144 -0.5840E-11  0.6000E+02
     30.248 -0.1885E-13  0.6000E+02
     30.353  0.0000E+00  0.6000E+02
     30.458  0.0000E+00  0.6000E+02
     30.563  0.0000E+00  0.6000E+02
     30.667  0.0000E+00  0.6000E+02
     30.772  0.0000E+00  0.6000E+02
     30.877  0.0000E+00  0.6000E+02
     30.981  0.0000E+00  0.6000E+02
