    4    4    1    1
  0.1200752E+02  0.3635000E-09  0.3635000E-09  0.3635000E-09  0.5000000E-15
  1.000000000000000E-004
  CAR 
 unknown system                          
     40      8     30
 
  0.0000000E+00  0.0000000E+00  0.0000000E+00  0.3703704E-01
    1        1.566440   1.000000
    2        3.824167   1.000000
    3        4.998202   1.000000
    4        5.109726   1.000000
    5        5.122154   1.000000
    6        5.241951   1.000000
    7        5.268650   1.000000
    8        8.464776   1.000000
    9        8.491841   1.000000
   10        8.541169   1.000000
   11       10.037805   1.000000
   12       10.235421   1.000000
   13       11.174386   1.000000
   14       11.502306   1.000002
   15       11.593293   1.000034
   16       12.435123  -0.028301
   17       12.821192  -0.000114
   18       13.035062  -0.000000
   19       13.397056  -0.000000
   20       14.033684  -0.000000
   21       14.474848  -0.000000
   22       14.502798  -0.000000
   23       14.520071  -0.000000
   24       14.888890  -0.000000
   25       23.304594   0.000000
   26       23.438023   0.000000
   27       24.134343   0.000000
   28       24.439830   0.000000
   29       24.741214   0.000000
   30       25.273031   0.000000
 
  0.3333333E+00  0.0000000E+00  0.0000000E+00  0.7407407E-01
    1        2.972073   1.000000
    2        4.802777   1.000000
    3        5.479731   1.000000
    4        5.654745   1.000000
    5        6.123008   1.000000
    6        6.234964   1.000000
    7        6.327922   1.000000
    8        7.726005   1.000000
    9        8.820011   1.000000
   10        9.055025   1.000000
   11        9.158344   1.000000
   12        9.304894   1.000000
   13        9.506335   1.000000
   14       10.114667   1.000000
   15       10.179732   1.000000
   16       10.619930   1.000000
   17       11.130732   1.000000
   18       11.436353   1.000000
   19       11.639460   1.000127
   20       11.940256   1.030207
   21       12.877037  -0.000022
   22       14.885895  -0.000000
   23       18.903850   0.000000
   24       18.993549   0.000000
   25       21.549006   0.000000
   26       23.180843   0.000000
   27       23.764558   0.000000
   28       23.886008   0.000000
   29       24.253897   0.000000
   30       26.866324   0.000000
 
  0.0000000E+00  0.3333333E+00  0.0000000E+00  0.7407407E-01
    1        3.168114   1.000000
    2        4.834911   1.000000
    3        5.307598   1.000000
    4        5.614345   1.000000
    5        6.179648   1.000000
    6        6.221873   1.000000
    7        6.403391   1.000000
    8        7.863003   1.000000
    9        9.053906   1.000000
   10        9.107852   1.000000
   11        9.250753   1.000000
   12        9.324581   1.000000
   13        9.481611   1.000000
   14       10.218207   1.000000
   15       10.359382   1.000000
   16       11.213428   1.000000
   17       11.219832   1.000000
   18       11.330680   1.000000
   19       11.594101   1.000035
   20       11.825478   1.007632
   21       12.279936   0.289505
   22       13.009979  -0.000000
   23       19.048838   0.000000
   24       19.079606   0.000000
   25       21.330490   0.000000
   26       23.573056   0.000000
   27       23.782810   0.000000
   28       23.812323   0.000000
   29       25.429280   0.000000
   30       25.659502   0.000000
 
  0.0000000E+00  0.0000000E+00  0.3333333E+00  0.7407407E-01
    1        3.188031   1.000000
    2        4.865501   1.000000
    3        5.525648   1.000000
    4        5.886563   1.000000
    5        6.097296   1.000000
    6        6.151057   1.000000
    7        6.219312   1.000000
    8        7.633892   1.000000
    9        8.858369   1.000000
   10        9.010802   1.000000
   11        9.274951   1.000000
   12        9.313605   1.000000
   13        9.466678   1.000000
   14       10.194295   1.000000
   15       10.315635   1.000000
   16       10.669203   1.000000
   17       11.201477   1.000000
   18       11.512152   1.000003
   19       11.527635   1.000004
   20       11.876726   1.016095
   21       12.319555   0.154957
   22       13.993259  -0.000000
   23       19.009726   0.000000
   24       19.138113   0.000000
   25       20.849170   0.000000
   26       23.607853   0.000000
   27       23.969526   0.000000
   28       24.240450   0.000000
   29       24.980601   0.000000
   30       26.073970   0.000000
 
  0.3333333E+00  0.3333333E+00  0.0000000E+00  0.1481481E+00
    1        4.380927   1.000000
    2        5.696874   1.000000
    3        6.304681   1.000000
    4        6.322059   1.000000
    5        6.540946   1.000000
    6        6.789061   1.000000
    7        6.883890   1.000000
    8        7.513845   1.000000
    9        7.856223   1.000000
   10        8.221707   1.000000
   11        8.508643   1.000000
   12        8.731877   1.000000
   13        9.318533   1.000000
   14        9.490102   1.000000
   15        9.961439   1.000000
   16       10.584720   1.000000
   17       10.593728   1.000000
   18       11.264152   1.000000
   19       11.577731   1.000021
   20       11.986936   1.035408
   21       12.133701   0.855006
   22       13.789160  -0.000000
   23       15.739185  -0.000000
   24       18.238139   0.000000
   25       21.913378   0.000000
   26       23.091412   0.000000
   27       25.581974   0.000000
   28       25.842731   0.000000
   29       26.271452   0.000000
   30       26.797634   0.000000
 
  0.0000000E+00  0.3333333E+00  0.3333333E+00  0.1481481E+00
    1        4.324078   1.000000
    2        5.764927   1.000000
    3        6.146089   1.000000
    4        6.272814   1.000000
    5        6.612418   1.000000
    6        6.870835   1.000000
    7        6.959318   1.000000
    8        7.445206   1.000000
    9        7.628974   1.000000
   10        8.360389   1.000000
   11        8.500480   1.000000
   12        8.744239   1.000000
   13        9.293884   1.000000
   14        9.444186   1.000000
   15       10.178915   1.000000
   16       10.452183   1.000000
   17       10.467934   1.000000
   18       11.187473   1.000000
   19       11.828098   1.007964
   20       11.843114   1.010076
   21       12.208698   0.582646
   22       13.724316  -0.000000
   23       16.462335  -0.000000
   24       18.250675   0.000000
   25       21.677521   0.000000
   26       23.015328   0.000000
   27       25.208111   0.000000
   28       25.698211   0.000000
   29       25.749110   0.000000
   30       27.086793   0.000000
 
  0.3333333E+00  0.0000000E+00  0.3333333E+00  0.1481481E+00
    1        4.357271   1.000000
    2        5.753923   1.000000
    3        6.293475   1.000000
    4        6.372739   1.000000
    5        6.439032   1.000000
    6        6.971778   1.000000
    7        7.020999   1.000000
    8        7.300695   1.000000
    9        7.433904   1.000000
   10        8.323000   1.000000
   11        8.676414   1.000000
   12        8.767292   1.000000
   13        9.342118   1.000000
   14        9.507139   1.000000
   15        9.829139   1.000000
   16       10.458819   1.000000
   17       10.883116   1.000000
   18       11.231126   1.000000
   19       11.587929   1.000029
   20       12.110841   0.914310
   21       12.130075   0.865280
   22       14.271261  -0.000000
   23       15.107171  -0.000000
   24       18.258750   0.000000
   25       21.878184   0.000000
   26       22.900794   0.000000
   27       25.499770   0.000000
   28       26.016454   0.000000
   29       26.413522   0.000000
   30       26.713216   0.000000
 
  0.3333333E+00  0.3333333E+00  0.3333333E+00  0.2962963E+00
    1        4.427902   1.000000
    2        4.916987   1.000000
    3        5.533505   1.000000
    4        5.811755   1.000000
    5        7.261887   1.000000
    6        7.573778   1.000000
    7        7.686900   1.000000
    8        8.597797   1.000000
    9        8.686049   1.000000
   10        8.713300   1.000000
   11        8.845323   1.000000
   12        8.989612   1.000000
   13        9.045103   1.000000
   14        9.139351   1.000000
   15        9.216569   1.000000
   16        9.311237   1.000000
   17       11.243993   1.000000
   18       11.484661   1.000001
   19       11.626746   1.000089
   20       12.259853   0.368451
   21       13.345152  -0.000000
   22       14.788495  -0.000000
   23       15.401313  -0.000000
   24       15.786112  -0.000000
   25       20.315693   0.000000
   26       20.418159   0.000000
   27       21.579083   0.000000
   28       24.522371   0.000000
   29       28.699722   0.000000
   30       28.981387   0.000000
