       N       E                     dE             d eps       ncg     rms          rms(c)
DAV:   1     0.209068150563E+03    0.20907E+03   -0.12317E+04   528   0.100E+03
DAV:   2    -0.143926230152E+02   -0.22346E+03   -0.20914E+03   506   0.274E+02
DAV:   3    -0.245090498798E+02   -0.10116E+02   -0.98631E+01   540   0.668E+01
DAV:   4    -0.247506250953E+02   -0.24158E+00   -0.24138E+00   620   0.999E+00
DAV:   5    -0.247586979615E+02   -0.80729E-02   -0.80724E-02   636   0.167E+00    0.322E+01
DAV:   6    -0.261345421009E+02   -0.13758E+01   -0.40217E+01   558   0.157E+02    0.175E+01
DAV:   7    -0.223092321661E+02    0.38253E+01   -0.10342E+01   634   0.104E+02    0.107E+01
DAV:   8    -0.223110874769E+02   -0.18553E-02   -0.98533E-01   618   0.915E+00    0.430E+00
DAV:   9    -0.222333806819E+02    0.77707E-01   -0.21867E-01   692   0.116E+01    0.177E+00
DAV:  10    -0.222276353331E+02    0.57453E-02   -0.28618E-02   738   0.206E+00    0.547E-01
DAV:  11    -0.222263519404E+02    0.12834E-02   -0.51626E-03   722   0.110E+00    0.117E-01
DAV:  12    -0.222262446112E+02    0.10733E-03   -0.35520E-04   720   0.303E-01    0.574E-02
DAV:  13    -0.222262449933E+02   -0.38209E-06   -0.13044E-04   574   0.350E-01    0.533E-02
DAV:  14    -0.222262409229E+02    0.40703E-05   -0.11099E-04   588   0.422E-01    0.422E-02
DAV:  15    -0.222262214743E+02    0.19449E-04   -0.30983E-05   590   0.209E-01    0.484E-03
DAV:  16    -0.222262208081E+02    0.66617E-06   -0.11442E-06   352   0.103E-02
   1 F= -.22226221E+02 E0= -.22216967E+02  d E =-.277605E-01
