 vasp.6.2.0 18Jan21 (build Mar 17 2021 09:06:54) complex                        
  
 executed on             LinuxIFC date 2021.06.11  11:30:59
 serial version


--------------------------------------------------------------------------------------------------------


 INCAR:
   ENCUT = 270.000000
   SIGMA = 0.200000
   EDIFF = 1.00e-06
   GGA = PE
   PREC = normal
   IBRION = -1
   ICHARG = 1
   ISMEAR = 1
   KPAR = 1
   NBANDS = 30
   NSW = 0
   NCORE = 1
   LCHARG = .TRUE.

 POTCAR:    PAW_PBE Pd 04Jan2005                  
 POTCAR:    PAW_PBE Ir 06Sep2000                  
 POTCAR:    PAW_PBE Pt 04Feb2005                  
 POTCAR:    PAW_PBE Cu 22Jun2005                  
 POTCAR:    PAW_PBE Pd 04Jan2005                  
   SHA256 =  dd6f6f02930356371984e2b707ff5e456046761dc76b07c1eba30abd15eb3c39 Pd/POTCAR             
   COPYR  = (c) Copyright 04Jan2005 Georg Kresse                                                    
   COPYR  = This file is part of the software VASP. Any use, copying, and all other rights are regul
   COPYR  = If you do not have a valid VASP license, you may not use, copy or distribute this file. 
   VRHFIN =Pd : s1 d9                                                                               
   LEXCH  = PE                                                                                      
   EATOM  =   809.7530 eV,   59.5152 Ry                                                             
                                                                                                    
   TITEL  = PAW_PBE Pd 04Jan2005                                                                    
   LULTRA =        F    use ultrasoft PP ?                                                          
   IUNSCR =        1    unscreen: 0-lin 1-nonlin 2-no                                               
   RPACOR =    2.000    partial core radius                                                         
   POMASS =  106.420; ZVAL   =   10.000    mass and valenz                                          
   RCORE  =    2.600    outmost cutoff radius                                                       
   RWIGS  =    2.710; RWIGS  =    1.434    wigner-seitz radius (au A)                               
   ENMAX  =  250.925; ENMIN  =  188.194 eV                                                          
   ICORE  =        3    local potential                                                             
   LCOR   =        T    correct aug charges                                                         
   LPAW   =        T    paw PP                                                                      
   EAUG   =  416.230                                                                                
   DEXC   =    0.000                                                                                
   RMAX   =    2.653    core radius for proj-oper                                                   
   RAUG   =    1.300    factor for augmentation sphere                                              
   RDEP   =    2.734    radius for radial grids                                                     
   RDEPT  =    2.103    core radius for aug-charge                                                  
                                                                                                    
   Atomic configuration                                                                             
   12 entries                                                                                       
     n  l   j            E        occ.                                                              
     1  0  0.50    -24164.6631   2.0000                                                             
     2  0  0.50     -3530.9218   2.0000                                                             
     2  1  1.50     -3165.6822   6.0000                                                             
     3  0  0.50      -639.4577   2.0000                                                             
     3  1  1.50      -519.4532   6.0000                                                             
     3  2  2.50      -328.9757  10.0000                                                             
     4  0  0.50       -88.7014   2.0000                                                             
     4  1  1.50       -54.4540   6.0000                                                             
     4  2  2.50        -6.6878   9.0000                                                             
     5  0  0.50        -4.3543   1.0000                                                             
     5  1  0.50        -1.3606   0.0000                                                             
     4  3  2.50        -1.3606   0.0000                                                             
   Description                                                                                      
     l       E           TYP  RCUT    TYP  RCUT                                                     
     2     -6.6878251     23  2.400                                                                 
     2     -8.0484077     23  2.400                                                                 
     0     -4.3542939     23  2.400                                                                 
     0      4.3406793     23  2.400                                                                 
     1     -4.0817478     23  2.600                                                                 
     1     15.8380318     23  2.600                                                                 
     3     -4.0817478     23  2.400                                                                 
  local pseudopotential read in
  partial core-charges read in
  partial kinetic energy density read in
  atomic valenz-charges read in
  non local Contribution for L=           2  read in
    real space projection operators read in
  non local Contribution for L=           2  read in
    real space projection operators read in
  non local Contribution for L=           0  read in
    real space projection operators read in
  non local Contribution for L=           0  read in
    real space projection operators read in
  non local Contribution for L=           1  read in
    real space projection operators read in
  non local Contribution for L=           1  read in
    real space projection operators read in
    PAW grid and wavefunctions read in
 
   number of l-projection  operators is LMAX  =           6
   number of lm-projection operators is LMMAX =          18
 
 POTCAR:    PAW_PBE Ir 06Sep2000                  
   SHA256 =  7c6af8d4d487b237782eb51e6f62977b27a1da78c3c96acd1cebefd6c308f120 Ir/POTCAR             
   COPYR  = (c) Copyright 06Sep2000 Georg Kresse                                                    
   COPYR  = This file is part of the software VASP. Any use, copying, and all other rights are regul
   COPYR  = If you do not have a valid VASP license, you may not use, copy or distribute this file. 
   VRHFIN =Ir: s1d8                                                                                 
   LEXCH  = PE                                                                                      
   EATOM  =   560.1833 eV,   41.1723 Ry                                                             
                                                                                                    
   TITEL  = PAW_PBE Ir 06Sep2000                                                                    
   LULTRA =        F    use ultrasoft PP ?                                                          
   IUNSCR =        1    unscreen: 0-lin 1-nonlin 2-no                                               
   RPACOR =    2.250    partial core radius                                                         
   POMASS =  192.220; ZVAL   =    9.000    mass and valenz                                          
   RCORE  =    2.600    outmost cutoff radius                                                       
   RWIGS  =    2.690; RWIGS  =    1.423    wigner-seitz radius (au A)                               
   ENMAX  =  210.864; ENMIN  =  158.148 eV                                                          
   RCLOC  =    1.857    cutoff for local pot                                                        
   LCOR   =        T    correct aug charges                                                         
   LPAW   =        T    paw PP                                                                      
   EAUG   =  318.962                                                                                
   DEXC   =    0.000                                                                                
   RMAX   =    2.667    core radius for proj-oper                                                   
   RAUG   =    1.300    factor for augmentation sphere                                              
   RDEP   =    2.748    radius for radial grids                                                     
   RDEPT  =    2.300    core radius for aug-charge                                                  
                                                                                                    
   Atomic configuration                                                                             
   16 entries                                                                                       
     n  l   j            E        occ.                                                              
     1  0  0.50    -76100.0449   2.0000                                                             
     2  0  0.50    -13308.1683   2.0000                                                             
     2  1  1.50    -11558.0021   6.0000                                                             
     3  0  0.50     -3110.7274   2.0000                                                             
     3  1  1.50     -2599.2109   6.0000                                                             
     3  2  2.50     -2037.1515  10.0000                                                             
     4  0  0.50      -661.6001   2.0000                                                             
     4  1  1.50      -493.8981   6.0000                                                             
     4  2  2.50      -288.1909  10.0000                                                             
     4  3  3.50       -59.5718  14.0000                                                             
     5  0  0.50       -95.3879   2.0000                                                             
     5  1  1.50       -52.2747   6.0000                                                             
     5  2  2.50        -5.4180   8.0000                                                             
     6  0  0.50        -5.5479   1.0000                                                             
     6  1  1.50        -6.8029   0.0000                                                             
     5  3  2.50        -1.3606   0.0000                                                             
   Description                                                                                      
     l       E           TYP  RCUT    TYP  RCUT                                                     
     2     -5.4179967     23  2.600                                                                 
     2     -6.7785793     23  2.600                                                                 
     0     -5.5478636     23  2.600                                                                 
     0      2.2542272     23  2.600                                                                 
     1     -2.7211652     23  2.600                                                                 
     1     20.4087390     23  2.600                                                                 
  local pseudopotential read in
  partial core-charges read in
  partial kinetic energy density read in
  atomic valenz-charges read in
  non local Contribution for L=           2  read in
    real space projection operators read in
  non local Contribution for L=           2  read in
    real space projection operators read in
  non local Contribution for L=           0  read in
    real space projection operators read in
  non local Contribution for L=           0  read in
    real space projection operators read in
  non local Contribution for L=           1  read in
    real space projection operators read in
  non local Contribution for L=           1  read in
    real space projection operators read in
    PAW grid and wavefunctions read in
 
   number of l-projection  operators is LMAX  =           6
   number of lm-projection operators is LMMAX =          18
 
 POTCAR:    PAW_PBE Pt 04Feb2005                  
   SHA256 =  3ed90460adef76debcff1cfb73ee1349b515b1a3db03439735b44de3a8db7dc8 Pt/POTCAR             
   COPYR  = (c) Copyright 04Feb2005 Georg Kresse                                                    
   COPYR  = This file is part of the software VASP. Any use, copying, and all other rights are regul
   COPYR  = If you do not have a valid VASP license, you may not use, copy or distribute this file. 
   VRHFIN =Pt: s1d9                                                                                 
   LEXCH  = PE                                                                                      
   EATOM  =   729.1176 eV,   53.5886 Ry                                                             
                                                                                                    
   TITEL  = PAW_PBE Pt 04Feb2005                                                                    
   LULTRA =        F    use ultrasoft PP ?                                                          
   IUNSCR =        1    unscreen: 0-lin 1-nonlin 2-no                                               
   RPACOR =    2.330    partial core radius                                                         
   POMASS =  195.080; ZVAL   =   10.000    mass and valenz                                          
   RCORE  =    2.600    outmost cutoff radius                                                       
   RWIGS  =    2.750; RWIGS  =    1.455    wigner-seitz radius (au A)                               
   ENMAX  =  230.283; ENMIN  =  172.712 eV                                                          
   ICORE  =        3    local potential                                                             
   LCOR   =        T    correct aug charges                                                         
   LPAW   =        T    paw PP                                                                      
   EAUG   =  358.966                                                                                
   DEXC   =    0.000                                                                                
   RMAX   =    2.658    core radius for proj-oper                                                   
   RAUG   =    1.300    factor for augmentation sphere                                              
   RDEP   =    2.761    radius for radial grids                                                     
   RDEPT  =    2.203    core radius for aug-charge                                                  
                                                                                                    
   Atomic configuration                                                                             
   16 entries                                                                                       
     n  l   j            E        occ.                                                              
     1  0  0.50    -78401.1885   2.0000                                                             
     2  0  0.50    -13770.7750   2.0000                                                             
     2  1  1.50    -11931.0468   6.0000                                                             
     3  0  0.50     -3234.7234   2.0000                                                             
     3  1  1.50     -2699.2216   6.0000                                                             
     3  2  2.50     -2119.5714  10.0000                                                             
     4  0  0.50      -695.1528   2.0000                                                             
     4  1  1.50      -519.6034   6.0000                                                             
     4  2  2.50      -306.6786  10.0000                                                             
     4  3  3.50       -70.1041  14.0000                                                             
     5  0  0.50      -101.7747   2.0000                                                             
     5  1  1.50       -55.9873   6.0000                                                             
     5  2  2.50        -6.1423   9.0000                                                             
     6  0  0.50        -5.6573   1.0000                                                             
     6  1  1.50        -6.8029   0.0000                                                             
     5  3  2.50        -1.3606   0.0000                                                             
   Description                                                                                      
     l       E           TYP  RCUT    TYP  RCUT                                                     
     2     -6.1423404     23  2.500                                                                 
     2     -7.5029230     23  2.500                                                                 
     0     -5.6573207     23  2.500                                                                 
     0      0.7416693     23  2.500                                                                 
     1     -2.7211652     23  2.600                                                                 
     1     20.4087390     23  2.600                                                                 
     3     -1.3605826     23  2.500                                                                 
  local pseudopotential read in
  partial core-charges read in
  partial kinetic energy density read in
  atomic valenz-charges read in
  non local Contribution for L=           2  read in
    real space projection operators read in
  non local Contribution for L=           2  read in
    real space projection operators read in
  non local Contribution for L=           0  read in
    real space projection operators read in
  non local Contribution for L=           0  read in
    real space projection operators read in
  non local Contribution for L=           1  read in
    real space projection operators read in
  non local Contribution for L=           1  read in
    real space projection operators read in
    PAW grid and wavefunctions read in
 
   number of l-projection  operators is LMAX  =           6
   number of lm-projection operators is LMMAX =          18
 
 POTCAR:    PAW_PBE Cu 22Jun2005                  
   SHA256 =  0e71e558f37a4e8407882b4609ceaae59938afaad9ced71dfe8490308a0ab630 Cu/POTCAR             
   COPYR  = (c) Copyright 22Jun2005 Georg Kresse                                                    
   COPYR  = This file is part of the software VASP. Any use, copying, and all other rights are regul
   COPYR  = If you do not have a valid VASP license, you may not use, copy or distribute this file. 
   VRHFIN =Cu: d10 p1                                                                               
   LEXCH  = PE                                                                                      
   EATOM  =  1390.9808 eV,  102.2342 Ry                                                             
                                                                                                    
   TITEL  = PAW_PBE Cu 22Jun2005                                                                    
   LULTRA =        F    use ultrasoft PP ?                                                          
   IUNSCR =        1    unscreen: 0-lin 1-nonlin 2-no                                               
   RPACOR =    2.000    partial core radius                                                         
   POMASS =   63.546; ZVAL   =   11.000    mass and valenz                                          
   RCORE  =    2.300    outmost cutoff radius                                                       
   RWIGS  =    2.200; RWIGS  =    1.164    wigner-seitz radius (au A)                               
   ENMAX  =  295.446; ENMIN  =  221.585 eV                                                          
   ICORE  =        3    local potential                                                             
   LCOR   =        T    correct aug charges                                                         
   LPAW   =        T    paw PP                                                                      
   EAUG   =  586.980                                                                                
   DEXC   =    0.000                                                                                
   RMAX   =    2.344    core radius for proj-oper                                                   
   RAUG   =    1.300    factor for augmentation sphere                                              
   RDEP   =    2.302    radius for radial grids                                                     
   RDEPT  =    1.771    core radius for aug-charge                                                  
                                                                                                    
   Atomic configuration                                                                             
    9 entries                                                                                       
     n  l   j            E        occ.                                                              
     1  0  0.50     -8850.2468   2.0000                                                             
     2  0  0.50     -1062.3498   2.0000                                                             
     2  1  1.50      -916.8226   6.0000                                                             
     3  0  0.50      -114.6929   2.0000                                                             
     3  1  1.50       -72.1325   6.0000                                                             
     3  2  2.50        -5.0394  10.0000                                                             
     4  0  0.50        -4.6097   1.0000                                                             
     4  1  0.50        -4.0817   0.0000                                                             
     4  3  2.50        -1.3606   0.0000                                                             
   Description                                                                                      
     l       E           TYP  RCUT    TYP  RCUT                                                     
     2     -5.0393973     23  2.200                                                                 
     2     10.8846608     23  2.200                                                                 
     0     -4.6097109     23  2.200                                                                 
     0      8.2520465     23  2.200                                                                 
     1     -2.7211652     23  2.200                                                                 
     1     21.7055443     23  2.200                                                                 
     3      2.7211652     23  2.300                                                                 
  local pseudopotential read in
  partial core-charges read in
  partial kinetic energy density read in
  atomic valenz-charges read in
  non local Contribution for L=           2  read in
    real space projection operators read in
  non local Contribution for L=           2  read in
    real space projection operators read in
  non local Contribution for L=           0  read in
    real space projection operators read in
  non local Contribution for L=           0  read in
    real space projection operators read in
  non local Contribution for L=           1  read in
    real space projection operators read in
  non local Contribution for L=           1  read in
    real space projection operators read in
    PAW grid and wavefunctions read in
 
   number of l-projection  operators is LMAX  =           6
   number of lm-projection operators is LMMAX =          18
 
  PAW_PBE Pd 04Jan2005                  :
 energy of atom  1       EATOM= -809.7530
 kinetic energy error for atom=    0.0525 (will be added to EATOM!!)
  PAW_PBE Ir 06Sep2000                  :
 energy of atom  2       EATOM= -560.1833
 kinetic energy error for atom=    0.0351 (will be added to EATOM!!)
  PAW_PBE Pt 04Feb2005                  :
 energy of atom  3       EATOM= -729.1176
 kinetic energy error for atom=    0.0526 (will be added to EATOM!!)
  PAW_PBE Cu 22Jun2005                  :
 energy of atom  4       EATOM=-1390.9808
 kinetic energy error for atom=    0.1077 (will be added to EATOM!!)
 
 
 POSCAR: Pd Ir Pt Cu
  positions in cartesian coordinates
  No initial velocities read in
 exchange correlation table for  LEXCH =        8
   RHO(1)=    0.500       N(1)  =     2000
   RHO(2)=  100.500       N(2)  =     4000
 


--------------------------------------------------------------------------------------------------------


 ion  position               nearest neighbor table
   1  0.000  0.000  0.000-   2 2.57   3 2.57   4 2.57   3 2.57   4 2.57   2 2.57   4 2.57   4 2.57
                             2 2.57   3 2.57   3 2.57   2 2.57
   2  0.500  0.500  0.000-   1 2.57   3 2.57   4 2.57   3 2.57   4 2.57   1 2.57   3 2.57   3 2.57
                             1 2.57   4 2.57   4 2.57   1 2.57
   3  0.500  0.000  0.500-   1 2.57   2 2.57   4 2.57   1 2.57   2 2.57   2 2.57   4 2.57   2 2.57
                             1 2.57   4 2.57   1 2.57   4 2.57
   4  0.000  0.500  0.500-   1 2.57   2 2.57   3 2.57   1 2.57   2 2.57   1 2.57   3 2.57   1 2.57
                             2 2.57   3 2.57   2 2.57   3 2.57
 
  LATTYP: Found a simple cubic cell.
 ALAT       =     3.6350000000
  
  Lattice vectors:
  
 A1 = (   3.6350000000,   0.0000000000,   0.0000000000)
 A2 = (   0.0000000000,   3.6350000000,   0.0000000000)
 A3 = (   0.0000000000,   0.0000000000,   3.6350000000)


Analysis of symmetry for initial positions (statically):
=====================================================================
 Subroutine PRICEL returns:
 Original cell was already a primitive cell.
 

 Routine SETGRP: Setting up the symmetry group for a 
 simple cubic supercell.


 Subroutine GETGRP returns: Found  8 space group operations
 (whereof  8 operations were pure point group operations)
 out of a pool of 48 trial point group operations.


The static configuration has the point symmetry D_2h.


Analysis of symmetry for dynamics (positions and initial velocities):
=====================================================================
 Subroutine PRICEL returns:
 Original cell was already a primitive cell.
 

 Routine SETGRP: Setting up the symmetry group for a 
 simple cubic supercell.


 Subroutine GETGRP returns: Found  8 space group operations
 (whereof  8 operations were pure point group operations)
 out of a pool of 48 trial point group operations.


The dynamic configuration has the point symmetry D_2h.


 Subroutine INISYM returns: Found  8 space group operations
 (whereof  8 operations are pure point group operations),
 and found     1 'primitive' translations


----------------------------------------------------------------------------------------

                                     Primitive cell                                     

  volume of cell :      48.0301

  direct lattice vectors                    reciprocal lattice vectors
     3.635000000  0.000000000  0.000000000     0.275103164  0.000000000  0.000000000
     0.000000000  3.635000000  0.000000000     0.000000000  0.275103164  0.000000000
     0.000000000  0.000000000  3.635000000     0.000000000  0.000000000  0.275103164

  length of vectors
     3.635000000  3.635000000  3.635000000     0.275103164  0.275103164  0.275103164

  position of ions in fractional coordinates (direct lattice)
     0.000000000  0.000000000  0.000000000
     0.500000000  0.500000000  0.000000000
     0.500000000  0.000000000  0.500000000
     0.000000000  0.500000000  0.500000000

  ion indices of the primitive-cell ions
   primitive index   ion index
                 1           1
                 2           2
                 3           3
                 4           4

----------------------------------------------------------------------------------------

 
 
 KPOINTS: KPOINTS created by Atomic Simulation Env

Automatic generation of k-mesh.
 Grid dimensions read from file:
 generate k-points for:    3    3    3

 Generating k-lattice:

  Cartesian coordinates                     Fractional coordinates (reciprocal lattice)
     0.091701055  0.000000000  0.000000000     0.333333333  0.000000000  0.000000000
     0.000000000  0.091701055  0.000000000     0.000000000  0.333333333  0.000000000
     0.000000000  0.000000000  0.091701055     0.000000000  0.000000000  0.333333333

  Length of vectors
     0.091701055  0.091701055  0.091701055

  Shift w.r.t. Gamma in fractional coordinates (k-lattice)
     0.000000000  0.000000000  0.000000000

 
 Subroutine IBZKPT returns following result:
 ===========================================
 
 Found      8 irreducible k-points:
 
 Following reciprocal coordinates:
            Coordinates               Weight
  0.000000  0.000000  0.000000      1.000000
  0.333333  0.000000  0.000000      2.000000
  0.000000  0.333333  0.000000      2.000000
  0.000000  0.000000  0.333333      2.000000
  0.333333  0.333333  0.000000      4.000000
  0.000000  0.333333  0.333333      4.000000
  0.333333  0.000000  0.333333      4.000000
  0.333333  0.333333  0.333333      8.000000
 
 Following cartesian coordinates:
            Coordinates               Weight
  0.000000  0.000000  0.000000      1.000000
  0.091701  0.000000  0.000000      2.000000
  0.000000  0.091701  0.000000      2.000000
  0.000000  0.000000  0.091701      2.000000
  0.091701  0.091701  0.000000      4.000000
  0.000000  0.091701  0.091701      4.000000
  0.091701  0.000000  0.091701      4.000000
  0.091701  0.091701  0.091701      8.000000
 


--------------------------------------------------------------------------------------------------------




 Dimension of arrays:
   k-points           NKPTS =      8   k-points in BZ     NKDIM =      8   number of bands    NBANDS=     30
   number of dos      NEDOS =    301   number of ions     NIONS =      4
   non local maximal  LDIM  =      6   non local SUM 2l+1 LMDIM =     18
   total plane-waves  NPLWV =   4096
   max r-space proj   IRMAX =      1   max aug-charges    IRDMAX=   6366
   dimension x,y,z NGX =    16 NGY =   16 NGZ =   16
   dimension x,y,z NGXF=    32 NGYF=   32 NGZF=   32
   support grid    NGXF=    32 NGYF=   32 NGZF=   32
   ions per type =               1   1   1   1
   NGX,Y,Z   is equivalent  to a cutoff of   7.32,  7.32,  7.32 a.u.
   NGXF,Y,Z  is equivalent  to a cutoff of  14.64, 14.64, 14.64 a.u.

 SYSTEM =  unknown system                          
 POSCAR =  Pd Ir Pt Cu                             

 Startparameter for this run:
   NWRITE =      2    write-flag & timer
   PREC   = normal    normal or accurate (medium, high low for compatibility)
   ISTART =      0    job   : 0-new  1-cont  2-samecut
   ICHARG =      1    charge: 1-file 2-atom 10-const
   ISPIN  =      1    spin polarized calculation?
   LNONCOLLINEAR =      F non collinear calculations
   LSORBIT =      F    spin-orbit coupling
   INIWAV =      1    electr: 0-lowe 1-rand  2-diag
   LASPH  =      F    aspherical Exc in radial PAW
   METAGGA=      F    non-selfconsistent MetaGGA calc.

 Electronic Relaxation 1
   ENCUT  =  270.0 eV  19.84 Ry    4.45 a.u.   4.87  4.87  4.87*2*pi/ulx,y,z
   ENINI  =  270.0     initial cutoff
   ENAUG  =  587.0 eV  augmentation charge cutoff
   NELM   =     60;   NELMIN=  2; NELMDL= -5     # of ELM steps 
   EDIFF  = 0.1E-05   stopping-criterion for ELM
   LREAL  =      F    real-space projection
   NLSPLINE    = F    spline interpolate recip. space projectors
   LCOMPAT=      F    compatible to vasp.4.4
   GGA_COMPAT  = T    GGA compatible to vasp.4.4-vasp.4.6
   LMAXPAW     = -100 max onsite density
   LMAXMIX     =    2 max onsite mixed and CHGCAR
   VOSKOWN=      0    Vosko Wilk Nusair interpolation
   ROPT   =    0.00000   0.00000   0.00000   0.00000
 Ionic relaxation
   EDIFFG = 0.1E-04   stopping-criterion for IOM
   NSW    =      0    number of steps for IOM
   NBLOCK =      1;   KBLOCK =      1    inner block; outer block 
   IBRION =     -1    ionic relax: 0-MD 1-quasi-New 2-CG
   NFREE  =      0    steps in history (QN), initial steepest desc. (CG)
   ISIF   =      2    stress and relaxation
   IWAVPR =      0    prediction:  0-non 1-charg 2-wave 3-comb
   ISYM   =      2    0-nonsym 1-usesym 2-fastsym
   LCORR  =      T    Harris-Foulkes like correction to forces

   POTIM  = 0.5000    time-step for ionic-motion
   TEIN   =    0.0    initial temperature
   TEBEG  =    0.0;   TEEND  =   0.0 temperature during run
   SMASS  =  -3.00    Nose mass-parameter (am)
   estimated Nose-frequenzy (Omega)   =  0.10E-29 period in steps = 0.13E+47 mass=  -0.302E-27a.u.
   SCALEE = 1.0000    scale energy and forces
   NPACO  =    256;   APACO  = 16.0  distance and # of slots for P.C.
   PSTRESS=    0.0 pullay stress

  Mass of Ions in am
   POMASS = 106.42192.22195.08 63.55
  Ionic Valenz
   ZVAL   =  10.00  9.00 10.00 11.00
  Atomic Wigner-Seitz radii
   RWIGS  =  -1.00 -1.00 -1.00 -1.00
  virtual crystal weights 
   VCA    =   1.00  1.00  1.00  1.00
   NELECT =      40.0000    total number of electrons
   NUPDOWN=      -1.0000    fix difference up-down

 DOS related values:
   EMIN   =  10.00;   EMAX   =-10.00  energy-range for DOS
   EFERMI =   0.00
   ISMEAR =     1;   SIGMA  =   0.20  broadening in eV -4-tet -1-fermi 0-gaus

 Electronic relaxation 2 (details)
   IALGO  =     38    algorithm
   LDIAG  =      T    sub-space diagonalisation (order eigenvalues)
   LSUBROT=      F    optimize rotation matrix (better conditioning)
   TURBO    =      0    0=normal 1=particle mesh
   IRESTART =      0    0=no restart 2=restart with 2 vectors
   NREBOOT  =      0    no. of reboots
   NMIN     =      0    reboot dimension
   EREF     =   0.00    reference energy to select bands
   IMIX   =      4    mixing-type and parameters
     AMIX     =   0.40;   BMIX     =  1.00
     AMIX_MAG =   1.60;   BMIX_MAG =  1.00
     AMIN     =   0.10
     WC   =   100.;   INIMIX=   1;  MIXPRE=   1;  MAXMIX= -45

 Intra band minimization:
   WEIMIN = 0.0000     energy-eigenvalue tresh-hold
   EBREAK =  0.83E-08  absolut break condition
   DEPER  =   0.30     relativ break condition  

   TIME   =   0.40     timestep for ELM

  volume/ion in A,a.u.               =      12.01        81.03
  Fermi-wavevector in a.u.,A,eV,Ry     =   1.540247  2.910645 32.277935  2.372361
  Thomas-Fermi vector in A             =   2.646361
 
 Write flags
   LWAVE        =      T    write WAVECAR
   LDOWNSAMPLE  =      F    k-point downsampling of WAVECAR
   LCHARG       =      T    write CHGCAR
   LVTOT        =      F    write LOCPOT, total local potential
   LVHAR        =      F    write LOCPOT, Hartree potential only
   LELF         =      F    write electronic localiz. function (ELF)
   LORBIT       =      0    0 simple, 1 ext, 2 COOP (PROOUT), +10 PAW based schemes


 Dipole corrections
   LMONO  =      F    monopole corrections only (constant potential shift)
   LDIPOL =      F    correct potential (dipole corrections)
   IDIPOL =      0    1-x, 2-y, 3-z, 4-all directions 
   EPSILON=  1.0000000 bulk dielectric constant

 Exchange correlation treatment:
   GGA     =    PE    GGA type
   LEXCH   =     8    internal setting for exchange type
   VOSKOWN=      0    Vosko Wilk Nusair interpolation
   LHFCALC =     F    Hartree Fock is set to
   LHFONE  =     F    Hartree Fock one center treatment
   AEXX    =    0.0000 exact exchange contribution

 Linear response parameters
   LEPSILON=     F    determine dielectric tensor
   LRPA    =     F    only Hartree local field effects (RPA)
   LNABLA  =     F    use nabla operator in PAW spheres
   LVEL    =     F    velocity operator in full k-point grid
   LINTERFAST=   F  fast interpolation
   KINTER  =     0    interpolate to denser k-point grid
   CSHIFT  =0.1000    complex shift for real part using Kramers Kronig
   OMEGAMAX=  -1.0    maximum frequency
   DEG_THRESHOLD= 0.2000000E-02 threshold for treating states as degnerate
   RTIME   =   -0.100 relaxation time in fs
  (WPLASMAI=    0.000 imaginary part of plasma frequency in eV, 0.658/RTIME)
   DFIELD  = 0.0000000 0.0000000 0.0000000 field for delta impulse in time
 
 Orbital magnetization related:
   ORBITALMAG=     F  switch on orbital magnetization
   LCHIMAG   =     F  perturbation theory with respect to B field
   DQ        =  0.001000  dq finite difference perturbation B field
   LLRAUG    =     F  two centre corrections for induced B field



--------------------------------------------------------------------------------------------------------


 Static calculation
 charge density and potential will be updated during run
 non-spin polarized calculation
 Variant of blocked Davidson
 Davidson routine will perform the subspace rotation
 perform sub-space diagonalisation
    after iterative eigenvector-optimisation
 modified Broyden-mixing scheme, WC =      100.0
 initial mixing is a Kerker type mixing with AMIX =  0.4000 and BMIX =      1.0000
 Hartree-type preconditioning will be used
 using additional bands           10
 reciprocal scheme for non local part
 use partial core corrections
 calculate Harris-corrections to forces 
   (improved forces if not selfconsistent)
 use gradient corrections 
 use of overlap-Matrix (Vanderbilt PP)
 Methfessel and Paxton  Order N= 1 SIGMA  =   0.20


--------------------------------------------------------------------------------------------------------


  energy-cutoff  :      270.00
  volume of cell :       48.03
      direct lattice vectors                 reciprocal lattice vectors
     3.635000000  0.000000000  0.000000000     0.275103164  0.000000000  0.000000000
     0.000000000  3.635000000  0.000000000     0.000000000  0.275103164  0.000000000
     0.000000000  0.000000000  3.635000000     0.000000000  0.000000000  0.275103164

  length of vectors
     3.635000000  3.635000000  3.635000000     0.275103164  0.275103164  0.275103164


 
 k-points in units of 2pi/SCALE and weight: KPOINTS created by Atomic Simulation Env
   0.00000000  0.00000000  0.00000000       0.037
   0.09170105  0.00000000  0.00000000       0.074
   0.00000000  0.09170105  0.00000000       0.074
   0.00000000  0.00000000  0.09170105       0.074
   0.09170105  0.09170105  0.00000000       0.148
   0.00000000  0.09170105  0.09170105       0.148
   0.09170105  0.00000000  0.09170105       0.148
   0.09170105  0.09170105  0.09170105       0.296
 
 k-points in reciprocal lattice and weights: KPOINTS created by Atomic Simulation Env
   0.00000000  0.00000000  0.00000000       0.037
   0.33333333  0.00000000  0.00000000       0.074
   0.00000000  0.33333333  0.00000000       0.074
   0.00000000  0.00000000  0.33333333       0.074
   0.33333333  0.33333333  0.00000000       0.148
   0.00000000  0.33333333  0.33333333       0.148
   0.33333333  0.00000000  0.33333333       0.148
   0.33333333  0.33333333  0.33333333       0.296
 
 position of ions in fractional coordinates (direct lattice) 
   0.00000000  0.00000000  0.00000000
   0.50000000  0.50000000  0.00000000
   0.50000000  0.00000000  0.50000000
   0.00000000  0.50000000  0.50000000
 
 position of ions in cartesian coordinates  (Angst):
   0.00000000  0.00000000  0.00000000
   1.81750000  1.81750000  0.00000000
   1.81750000  0.00000000  1.81750000
   0.00000000  1.81750000  1.81750000
 


--------------------------------------------------------------------------------------------------------


 k-point   1 :   0.0000 0.0000 0.0000  plane waves:     461
 k-point   2 :   0.3333 0.0000 0.0000  plane waves:     478
 k-point   3 :   0.0000 0.3333 0.0000  plane waves:     478
 k-point   4 :   0.0000 0.0000 0.3333  plane waves:     478
 k-point   5 :   0.3333 0.3333 0.0000  plane waves:     493
 k-point   6 :   0.0000 0.3333 0.3333  plane waves:     493
 k-point   7 :   0.3333 0.0000 0.3333  plane waves:     493
 k-point   8 :   0.3333 0.3333 0.3333  plane waves:     486

 maximum number of plane-waves:       493
 maximum index in each direction: 
   IXMAX=    4   IYMAX=    4   IZMAX=    4
   IXMIN=   -5   IYMIN=   -5   IZMIN=   -5


 total amount of memory used by VASP MPI-rank0    37175. kBytes
=======================================================================

   base      :      30000. kBytes
   nonl-proj :       2303. kBytes
   grid      :       2641. kBytes
   one-center:         62. kBytes
   wavefun   :       2169. kBytes
 
     INWAV:  cpu time    0.0000: real time    0.0000
 Broyden mixing: mesh for mixing (old mesh)
   NGX =  9   NGY =  9   NGZ =  9
  (NGX  = 32   NGY  = 32   NGZ  = 32)
  gives a total of    729 points

 initial charge density was supplied:
 charge density of overlapping atoms calculated
 number of electron      40.0000000 magnetization 
 keeping initial charge density in first step


--------------------------------------------------------------------------------------------------------


 Maximum index for augmentation-charges         6031 (set IRDMAX)


--------------------------------------------------------------------------------------------------------


 First call to EWALD:  gamma=   0.488
 Maximum number of real-space cells 3x 3x 3
 Maximum number of reciprocal cells 3x 3x 3

    FEWALD:  cpu time    0.0009: real time    0.0009


--------------------------------------- Iteration      1(   1)  ---------------------------------------


    POTLOK:  cpu time    0.0082: real time    0.0082
    SETDIJ:  cpu time    0.0045: real time    0.0045
     EDDAV:  cpu time    0.1073: real time    0.1183
       DOS:  cpu time    0.0007: real time    0.0007
    --------------------------------------------
      LOOP:  cpu time    0.1207: real time    0.1317

 eigenvalue-minimisations  :   528
 total energy-change (2. order) : 0.2090682E+03  (-0.1231681E+04)
 number of electron      40.0000000 magnetization 
 augmentation part       40.0000000 magnetization 

 Free energy of the ion-electron system (eV)
  ---------------------------------------------------
  alpha Z        PSCENC =       294.32394985
  Ewald energy   TEWEN  =     -3641.45145672
  -Hartree energ DENC   =      -571.19890525
  -exchange      EXHF   =         0.00000000
  -V(xc)+E(xc)   XCENC  =         6.42737968
  PAW double counting   =      3282.45812088    -3257.47686163
  entropy T*S    EENTRO =        -0.00615972
  eigenvalues    EBANDS =       606.20538876
  atomic energy  EATOM  =      3489.78669473
  Solvation  Ediel_sol  =         0.00000000
  ---------------------------------------------------
  free energy    TOTEN  =       209.06815056 eV

  energy without entropy =      209.07431029  energy(sigma->0) =      209.07020380


--------------------------------------------------------------------------------------------------------




--------------------------------------- Iteration      1(   2)  ---------------------------------------


     EDDAV:  cpu time    0.0896: real time    0.0896
       DOS:  cpu time    0.0007: real time    0.0007
    --------------------------------------------
      LOOP:  cpu time    0.0903: real time    0.0903

 eigenvalue-minimisations  :   506
 total energy-change (2. order) :-0.2234608E+03  (-0.2091446E+03)
 number of electron      40.0000000 magnetization 
 augmentation part       40.0000000 magnetization 

 Free energy of the ion-electron system (eV)
  ---------------------------------------------------
  alpha Z        PSCENC =       294.32394985
  Ewald energy   TEWEN  =     -3641.45145672
  -Hartree energ DENC   =      -571.19890525
  -exchange      EXHF   =         0.00000000
  -V(xc)+E(xc)   XCENC  =         6.42737968
  PAW double counting   =      3282.45812088    -3257.47686163
  entropy T*S    EENTRO =         0.00165875
  eigenvalues    EBANDS =       382.73679671
  atomic energy  EATOM  =      3489.78669473
  Solvation  Ediel_sol  =         0.00000000
  ---------------------------------------------------
  free energy    TOTEN  =       -14.39262302 eV

  energy without entropy =      -14.39428176  energy(sigma->0) =      -14.39317593


--------------------------------------------------------------------------------------------------------




--------------------------------------- Iteration      1(   3)  ---------------------------------------


     EDDAV:  cpu time    0.0960: real time    0.0960
       DOS:  cpu time    0.0008: real time    0.0008
    --------------------------------------------
      LOOP:  cpu time    0.0967: real time    0.0967

 eigenvalue-minimisations  :   540
 total energy-change (2. order) :-0.1011643E+02  (-0.9863070E+01)
 number of electron      40.0000000 magnetization 
 augmentation part       40.0000000 magnetization 

 Free energy of the ion-electron system (eV)
  ---------------------------------------------------
  alpha Z        PSCENC =       294.32394985
  Ewald energy   TEWEN  =     -3641.45145672
  -Hartree energ DENC   =      -571.19890525
  -exchange      EXHF   =         0.00000000
  -V(xc)+E(xc)   XCENC  =         6.42737968
  PAW double counting   =      3282.45812088    -3257.47686163
  entropy T*S    EENTRO =         0.00114242
  eigenvalues    EBANDS =       372.62088617
  atomic energy  EATOM  =      3489.78669473
  Solvation  Ediel_sol  =         0.00000000
  ---------------------------------------------------
  free energy    TOTEN  =       -24.50904988 eV

  energy without entropy =      -24.51019230  energy(sigma->0) =      -24.50943069


--------------------------------------------------------------------------------------------------------




--------------------------------------- Iteration      1(   4)  ---------------------------------------


     EDDAV:  cpu time    0.1100: real time    0.1100
       DOS:  cpu time    0.0008: real time    0.0008
    --------------------------------------------
      LOOP:  cpu time    0.1108: real time    0.1108

 eigenvalue-minimisations  :   620
 total energy-change (2. order) :-0.2415752E+00  (-0.2413786E+00)
 number of electron      40.0000000 magnetization 
 augmentation part       40.0000000 magnetization 

 Free energy of the ion-electron system (eV)
  ---------------------------------------------------
  alpha Z        PSCENC =       294.32394985
  Ewald energy   TEWEN  =     -3641.45145672
  -Hartree energ DENC   =      -571.19890525
  -exchange      EXHF   =         0.00000000
  -V(xc)+E(xc)   XCENC  =         6.42737968
  PAW double counting   =      3282.45812088    -3257.47686163
  entropy T*S    EENTRO =         0.00183273
  eigenvalues    EBANDS =       372.37862065
  atomic energy  EATOM  =      3489.78669473
  Solvation  Ediel_sol  =         0.00000000
  ---------------------------------------------------
  free energy    TOTEN  =       -24.75062510 eV

  energy without entropy =      -24.75245783  energy(sigma->0) =      -24.75123601


--------------------------------------------------------------------------------------------------------




--------------------------------------- Iteration      1(   5)  ---------------------------------------


     EDDAV:  cpu time    0.1080: real time    0.1080
       DOS:  cpu time    0.0007: real time    0.0007
    CHARGE:  cpu time    0.0084: real time    0.0084
    MIXING:  cpu time    0.0003: real time    0.0002
    --------------------------------------------
      LOOP:  cpu time    0.1173: real time    0.1173

 eigenvalue-minimisations  :   636
 total energy-change (2. order) :-0.8072866E-02  (-0.8072402E-02)
 number of electron      40.0000174 magnetization 
 augmentation part       15.7104125 magnetization 

 Broyden mixing:
  rms(total) = 0.32248E+01    rms(broyden)= 0.32239E+01
  rms(prec ) = 0.43737E+01
  weight for this iteration     100.00

 Free energy of the ion-electron system (eV)
  ---------------------------------------------------
  alpha Z        PSCENC =       294.32394985
  Ewald energy   TEWEN  =     -3641.45145672
  -Hartree energ DENC   =      -571.19890525
  -exchange      EXHF   =         0.00000000
  -V(xc)+E(xc)   XCENC  =         6.42737968
  PAW double counting   =      3282.45812088    -3257.47686163
  entropy T*S    EENTRO =         0.00188907
  eigenvalues    EBANDS =       372.37049144
  atomic energy  EATOM  =      3489.78669473
  Solvation  Ediel_sol  =         0.00000000
  ---------------------------------------------------
  free energy    TOTEN  =       -24.75869796 eV

  energy without entropy =      -24.76058703  energy(sigma->0) =      -24.75932765


--------------------------------------------------------------------------------------------------------




--------------------------------------- Iteration      1(   6)  ---------------------------------------


    POTLOK:  cpu time    0.0077: real time    0.0077
    SETDIJ:  cpu time    0.0043: real time    0.0043
     EDDAV:  cpu time    0.0963: real time    0.0963
       DOS:  cpu time    0.0008: real time    0.0008
    CHARGE:  cpu time    0.0084: real time    0.0084
    MIXING:  cpu time    0.0003: real time    0.0003
    --------------------------------------------
      LOOP:  cpu time    0.1178: real time    0.1178

 eigenvalue-minimisations  :   558
 total energy-change (2. order) :-0.1375844E+01  (-0.4021719E+01)
 number of electron      40.0000217 magnetization 
 augmentation part       16.9575883 magnetization 

 Broyden mixing:
  rms(total) = 0.17455E+01    rms(broyden)= 0.17445E+01
  rms(prec ) = 0.33948E+01
  weight for this iteration     100.00

 eigenvalues of (default mixing * dielectric matrix)
  average eigenvalue GAMMA=   1.0016
  1.0016

 Free energy of the ion-electron system (eV)
  ---------------------------------------------------
  alpha Z        PSCENC =       294.32394985
  Ewald energy   TEWEN  =     -3641.45145672
  -Hartree energ DENC   =      -512.16464615
  -exchange      EXHF   =         0.00000000
  -V(xc)+E(xc)   XCENC  =         4.06164565
  PAW double counting   =      3764.89059542    -3736.17516016
  entropy T*S    EENTRO =         0.00170423
  eigenvalues    EBANDS =       310.59213106
  atomic energy  EATOM  =      3489.78669473
  Solvation  Ediel_sol  =         0.00000000
  ---------------------------------------------------
  free energy    TOTEN  =       -26.13454210 eV

  energy without entropy =      -26.13624633  energy(sigma->0) =      -26.13511018


--------------------------------------------------------------------------------------------------------




--------------------------------------- Iteration      1(   7)  ---------------------------------------


    POTLOK:  cpu time    0.0076: real time    0.0076
    SETDIJ:  cpu time    0.0043: real time    0.0043
     EDDAV:  cpu time    0.1040: real time    0.1040
       DOS:  cpu time    0.0008: real time    0.0008
    CHARGE:  cpu time    0.0085: real time    0.0085
    MIXING:  cpu time    0.0003: real time    0.0003
    --------------------------------------------
      LOOP:  cpu time    0.1255: real time    0.1255

 eigenvalue-minimisations  :   634
 total energy-change (2. order) : 0.3825310E+01  (-0.1034235E+01)
 number of electron      40.0000191 magnetization 
 augmentation part       16.6605887 magnetization 

 Broyden mixing:
  rms(total) = 0.10704E+01    rms(broyden)= 0.10699E+01
  rms(prec ) = 0.11861E+01
  weight for this iteration     100.00

 eigenvalues of (default mixing * dielectric matrix)
  average eigenvalue GAMMA=   1.1853
  1.8732  0.4974

 Free energy of the ion-electron system (eV)
  ---------------------------------------------------
  alpha Z        PSCENC =       294.32394985
  Ewald energy   TEWEN  =     -3641.45145672
  -Hartree energ DENC   =      -527.36554708
  -exchange      EXHF   =         0.00000000
  -V(xc)+E(xc)   XCENC  =         4.90126638
  PAW double counting   =      3965.91427244    -3950.07767327
  entropy T*S    EENTRO =         0.00049214
  eigenvalues    EBANDS =       341.65876938
  atomic energy  EATOM  =      3489.78669473
  Solvation  Ediel_sol  =         0.00000000
  ---------------------------------------------------
  free energy    TOTEN  =       -22.30923217 eV

  energy without entropy =      -22.30972431  energy(sigma->0) =      -22.30939621


--------------------------------------------------------------------------------------------------------




--------------------------------------- Iteration      1(   8)  ---------------------------------------


    POTLOK:  cpu time    0.0077: real time    0.0077
    SETDIJ:  cpu time    0.0042: real time    0.0042
     EDDAV:  cpu time    0.1010: real time    0.1010
       DOS:  cpu time    0.0007: real time    0.0007
    CHARGE:  cpu time    0.0077: real time    0.0077
    MIXING:  cpu time    0.0003: real time    0.0003
    --------------------------------------------
      LOOP:  cpu time    0.1216: real time    0.1216

 eigenvalue-minimisations  :   618
 total energy-change (2. order) :-0.1855311E-02  (-0.9853319E-01)
 number of electron      40.0000191 magnetization 
 augmentation part       16.6912461 magnetization 

 Broyden mixing:
  rms(total) = 0.43045E+00    rms(broyden)= 0.43036E+00
  rms(prec ) = 0.71336E+00
  weight for this iteration     100.00

 eigenvalues of (default mixing * dielectric matrix)
  average eigenvalue GAMMA=   1.1555
  0.6130  0.6719  2.1815

 Free energy of the ion-electron system (eV)
  ---------------------------------------------------
  alpha Z        PSCENC =       294.32394985
  Ewald energy   TEWEN  =     -3641.45145672
  -Hartree energ DENC   =      -520.32059616
  -exchange      EXHF   =         0.00000000
  -V(xc)+E(xc)   XCENC  =         4.69700479
  PAW double counting   =      4358.21864897    -4348.11348815
  entropy T*S    EENTRO =        -0.00855751
  eigenvalues    EBANDS =       340.55671274
  atomic energy  EATOM  =      3489.78669473
  Solvation  Ediel_sol  =         0.00000000
  ---------------------------------------------------
  free energy    TOTEN  =       -22.31108748 eV

  energy without entropy =      -22.30252996  energy(sigma->0) =      -22.30823497


--------------------------------------------------------------------------------------------------------




--------------------------------------- Iteration      1(   9)  ---------------------------------------


    POTLOK:  cpu time    0.0075: real time    0.0075
    SETDIJ:  cpu time    0.0042: real time    0.0042
     EDDAV:  cpu time    0.1148: real time    0.1148
       DOS:  cpu time    0.0009: real time    0.0009
    CHARGE:  cpu time    0.0084: real time    0.0084
    MIXING:  cpu time    0.0003: real time    0.0003
    --------------------------------------------
      LOOP:  cpu time    0.1360: real time    0.1360

 eigenvalue-minimisations  :   692
 total energy-change (2. order) : 0.7770680E-01  (-0.2186671E-01)
 number of electron      40.0000193 magnetization 
 augmentation part       16.7991682 magnetization 

 Broyden mixing:
  rms(total) = 0.17726E+00    rms(broyden)= 0.17699E+00
  rms(prec ) = 0.20781E+00
  weight for this iteration     100.00

 eigenvalues of (default mixing * dielectric matrix)
  average eigenvalue GAMMA=   1.1139
  2.3571  0.9889  0.5548  0.5548

 Free energy of the ion-electron system (eV)
  ---------------------------------------------------
  alpha Z        PSCENC =       294.32394985
  Ewald energy   TEWEN  =     -3641.45145672
  -Hartree energ DENC   =      -516.37307867
  -exchange      EXHF   =         0.00000000
  -V(xc)+E(xc)   XCENC  =         4.56422455
  PAW double counting   =      4448.50652028    -4438.96579156
  entropy T*S    EENTRO =        -0.02917182
  eigenvalues    EBANDS =       337.40472869
  atomic energy  EATOM  =      3489.78669473
  Solvation  Ediel_sol  =         0.00000000
  ---------------------------------------------------
  free energy    TOTEN  =       -22.23338068 eV

  energy without entropy =      -22.20420886  energy(sigma->0) =      -22.22365674


--------------------------------------------------------------------------------------------------------




--------------------------------------- Iteration      1(  10)  ---------------------------------------


    POTLOK:  cpu time    0.0078: real time    0.0078
    SETDIJ:  cpu time    0.0045: real time    0.0045
     EDDAV:  cpu time    0.1200: real time    0.1200
       DOS:  cpu time    0.0008: real time    0.0008
    CHARGE:  cpu time    0.0078: real time    0.0078
    MIXING:  cpu time    0.0003: real time    0.0003
    --------------------------------------------
      LOOP:  cpu time    0.1412: real time    0.1412

 eigenvalue-minimisations  :   738
 total energy-change (2. order) : 0.5745349E-02  (-0.2861804E-02)
 number of electron      40.0000194 magnetization 
 augmentation part       16.7879644 magnetization 

 Broyden mixing:
  rms(total) = 0.54743E-01    rms(broyden)= 0.54674E-01
  rms(prec ) = 0.88993E-01
  weight for this iteration     100.00

 eigenvalues of (default mixing * dielectric matrix)
  average eigenvalue GAMMA=   1.1663
  2.5300  1.3354  0.8907  0.5378  0.5378

 Free energy of the ion-electron system (eV)
  ---------------------------------------------------
  alpha Z        PSCENC =       294.32394985
  Ewald energy   TEWEN  =     -3641.45145672
  -Hartree energ DENC   =      -516.13010221
  -exchange      EXHF   =         0.00000000
  -V(xc)+E(xc)   XCENC  =         4.55122091
  PAW double counting   =      4515.52359052    -4506.74186088
  entropy T*S    EENTRO =        -0.02853864
  eigenvalues    EBANDS =       337.93886712
  atomic energy  EATOM  =      3489.78669473
  Solvation  Ediel_sol  =         0.00000000
  ---------------------------------------------------
  free energy    TOTEN  =       -22.22763533 eV

  energy without entropy =      -22.19909670  energy(sigma->0) =      -22.21812245


--------------------------------------------------------------------------------------------------------




--------------------------------------- Iteration      1(  11)  ---------------------------------------


    POTLOK:  cpu time    0.0075: real time    0.0075
    SETDIJ:  cpu time    0.0042: real time    0.0042
     EDDAV:  cpu time    0.1178: real time    0.1178
       DOS:  cpu time    0.0008: real time    0.0008
    CHARGE:  cpu time    0.0080: real time    0.0080
    MIXING:  cpu time    0.0003: real time    0.0003
    --------------------------------------------
      LOOP:  cpu time    0.1387: real time    0.1387

 eigenvalue-minimisations  :   722
 total energy-change (2. order) : 0.1283393E-02  (-0.5162643E-03)
 number of electron      40.0000193 magnetization 
 augmentation part       16.7782456 magnetization 

 Broyden mixing:
  rms(total) = 0.11687E-01    rms(broyden)= 0.11675E-01
  rms(prec ) = 0.23044E-01
  weight for this iteration     100.00

 eigenvalues of (default mixing * dielectric matrix)
  average eigenvalue GAMMA=   1.1197
  2.4898  1.4598  1.0567  0.5651  0.5651  0.5818

 Free energy of the ion-electron system (eV)
  ---------------------------------------------------
  alpha Z        PSCENC =       294.32394985
  Ewald energy   TEWEN  =     -3641.45145672
  -Hartree energ DENC   =      -516.52849908
  -exchange      EXHF   =         0.00000000
  -V(xc)+E(xc)   XCENC  =         4.56571550
  PAW double counting   =      4533.50813809    -4524.86968966
  entropy T*S    EENTRO =        -0.02840786
  eigenvalues    EBANDS =       338.46720322
  atomic energy  EATOM  =      3489.78669473
  Solvation  Ediel_sol  =         0.00000000
  ---------------------------------------------------
  free energy    TOTEN  =       -22.22635194 eV

  energy without entropy =      -22.19794408  energy(sigma->0) =      -22.21688266


--------------------------------------------------------------------------------------------------------




--------------------------------------- Iteration      1(  12)  ---------------------------------------


    POTLOK:  cpu time    0.0075: real time    0.0075
    SETDIJ:  cpu time    0.0042: real time    0.0042
     EDDAV:  cpu time    0.1137: real time    0.1137
       DOS:  cpu time    0.0008: real time    0.0008
    CHARGE:  cpu time    0.0079: real time    0.0079
    MIXING:  cpu time    0.0003: real time    0.0003
    --------------------------------------------
      LOOP:  cpu time    0.1344: real time    0.1344

 eigenvalue-minimisations  :   720
 total energy-change (2. order) : 0.1073293E-03  (-0.3552032E-04)
 number of electron      40.0000193 magnetization 
 augmentation part       16.7753644 magnetization 

 Broyden mixing:
  rms(total) = 0.57392E-02    rms(broyden)= 0.57210E-02
  rms(prec ) = 0.79023E-02
  weight for this iteration     100.00

 eigenvalues of (default mixing * dielectric matrix)
  average eigenvalue GAMMA=   1.1366
  2.5134  1.6542  1.2557  0.8314  0.5593  0.5593  0.5828

 Free energy of the ion-electron system (eV)
  ---------------------------------------------------
  alpha Z        PSCENC =       294.32394985
  Ewald energy   TEWEN  =     -3641.45145672
  -Hartree energ DENC   =      -516.71018934
  -exchange      EXHF   =         0.00000000
  -V(xc)+E(xc)   XCENC  =         4.57026050
  PAW double counting   =      4531.40302201    -4522.65522301
  entropy T*S    EENTRO =        -0.02751153
  eigenvalues    EBANDS =       338.53420890
  atomic energy  EATOM  =      3489.78669473
  Solvation  Ediel_sol  =         0.00000000
  ---------------------------------------------------
  free energy    TOTEN  =       -22.22624461 eV

  energy without entropy =      -22.19873308  energy(sigma->0) =      -22.21707410


--------------------------------------------------------------------------------------------------------




--------------------------------------- Iteration      1(  13)  ---------------------------------------


    POTLOK:  cpu time    0.0077: real time    0.0077
    SETDIJ:  cpu time    0.0044: real time    0.0044
     EDDAV:  cpu time    0.1109: real time    0.1109
       DOS:  cpu time    0.0010: real time    0.0009
    CHARGE:  cpu time    0.0102: real time    0.0102
    MIXING:  cpu time    0.0005: real time    0.0005
    --------------------------------------------
      LOOP:  cpu time    0.1346: real time    0.1346

 eigenvalue-minimisations  :   574
 total energy-change (2. order) :-0.3820946E-06  (-0.1304393E-04)
 number of electron      40.0000193 magnetization 
 augmentation part       16.7781903 magnetization 

 Broyden mixing:
  rms(total) = 0.53279E-02    rms(broyden)= 0.53153E-02
  rms(prec ) = 0.12077E-01
  weight for this iteration     100.00

 eigenvalues of (default mixing * dielectric matrix)
  average eigenvalue GAMMA=   1.2033
  2.5421  2.3722  1.2874  1.0071  0.7218  0.5490  0.5490  0.5982

 Free energy of the ion-electron system (eV)
  ---------------------------------------------------
  alpha Z        PSCENC =       294.32394985
  Ewald energy   TEWEN  =     -3641.45145672
  -Hartree energ DENC   =      -516.71791450
  -exchange      EXHF   =         0.00000000
  -V(xc)+E(xc)   XCENC  =         4.56958616
  PAW double counting   =      4530.00139631    -4521.16144094
  entropy T*S    EENTRO =        -0.02811518
  eigenvalues    EBANDS =       338.45105531
  atomic energy  EATOM  =      3489.78669473
  Solvation  Ediel_sol  =         0.00000000
  ---------------------------------------------------
  free energy    TOTEN  =       -22.22624499 eV

  energy without entropy =      -22.19812981  energy(sigma->0) =      -22.21687327


--------------------------------------------------------------------------------------------------------




--------------------------------------- Iteration      1(  14)  ---------------------------------------


    POTLOK:  cpu time    0.0105: real time    0.0105
    SETDIJ:  cpu time    0.0056: real time    0.0056
     EDDAV:  cpu time    0.1246: real time    0.1246
       DOS:  cpu time    0.0009: real time    0.0009
    CHARGE:  cpu time    0.0104: real time    0.0104
    MIXING:  cpu time    0.0006: real time    0.0006
    --------------------------------------------
      LOOP:  cpu time    0.1526: real time    0.1526

 eigenvalue-minimisations  :   588
 total energy-change (2. order) : 0.4070343E-05  (-0.1109910E-04)
 number of electron      40.0000193 magnetization 
 augmentation part       16.7752294 magnetization 

 Broyden mixing:
  rms(total) = 0.42247E-02    rms(broyden)= 0.41940E-02
  rms(prec ) = 0.11246E-01
  weight for this iteration     100.00

 eigenvalues of (default mixing * dielectric matrix)
  average eigenvalue GAMMA=   1.1909
  2.4354  2.4354  1.4705  1.1715  0.9832  0.5839  0.5839  0.5273  0.5273

 Free energy of the ion-electron system (eV)
  ---------------------------------------------------
  alpha Z        PSCENC =       294.32394985
  Ewald energy   TEWEN  =     -3641.45145672
  -Hartree energ DENC   =      -516.85711851
  -exchange      EXHF   =         0.00000000
  -V(xc)+E(xc)   XCENC  =         4.57487578
  PAW double counting   =      4528.10247694    -4519.21619173
  entropy T*S    EENTRO =        -0.02732621
  eigenvalues    EBANDS =       338.53785496
  atomic energy  EATOM  =      3489.78669473
  Solvation  Ediel_sol  =         0.00000000
  ---------------------------------------------------
  free energy    TOTEN  =       -22.22624092 eV

  energy without entropy =      -22.19891471  energy(sigma->0) =      -22.21713219


--------------------------------------------------------------------------------------------------------




--------------------------------------- Iteration      1(  15)  ---------------------------------------


    POTLOK:  cpu time    0.0100: real time    0.0100
    SETDIJ:  cpu time    0.0057: real time    0.0057
     EDDAV:  cpu time    0.1281: real time    0.1281
       DOS:  cpu time    0.0009: real time    0.0009
    CHARGE:  cpu time    0.0106: real time    0.0106
    MIXING:  cpu time    0.0005: real time    0.0005
    --------------------------------------------
      LOOP:  cpu time    0.1558: real time    0.1559

 eigenvalue-minimisations  :   590
 total energy-change (2. order) : 0.1944859E-04  (-0.3098316E-05)
 number of electron      40.0000193 magnetization 
 augmentation part       16.7768101 magnetization 

 Broyden mixing:
  rms(total) = 0.48371E-03    rms(broyden)= 0.42657E-03
  rms(prec ) = 0.60855E-03
  weight for this iteration     100.00
  WARNING: grid for Broyden might be to small

 eigenvalues of (default mixing * dielectric matrix)
  average eigenvalue GAMMA=   1.2255
  2.4594  2.3153  2.0179  1.1796  1.1796  0.8952  0.5792  0.5792  0.5491  0.5004

 Free energy of the ion-electron system (eV)
  ---------------------------------------------------
  alpha Z        PSCENC =       294.32394985
  Ewald energy   TEWEN  =     -3641.45145672
  -Hartree energ DENC   =      -516.82051938
  -exchange      EXHF   =         0.00000000
  -V(xc)+E(xc)   XCENC  =         4.57356193
  PAW double counting   =      4528.00159994    -4519.10592422
  entropy T*S    EENTRO =        -0.02779654
  eigenvalues    EBANDS =       338.49366895
  atomic energy  EATOM  =      3489.78669473
  Solvation  Ediel_sol  =         0.00000000
  ---------------------------------------------------
  free energy    TOTEN  =       -22.22622147 eV

  energy without entropy =      -22.19842494  energy(sigma->0) =      -22.21695596


--------------------------------------------------------------------------------------------------------




--------------------------------------- Iteration      1(  16)  ---------------------------------------


    POTLOK:  cpu time    0.0101: real time    0.0101
    SETDIJ:  cpu time    0.0057: real time    0.0057
     EDDAV:  cpu time    0.0881: real time    0.0881
       DOS:  cpu time    0.0009: real time    0.0009
    --------------------------------------------
      LOOP:  cpu time    0.1048: real time    0.1048

 eigenvalue-minimisations  :   352
 total energy-change (2. order) : 0.6661721E-06  (-0.1144160E-06)
 number of electron      40.0000193 magnetization 
 augmentation part       16.7768101 magnetization 

 Free energy of the ion-electron system (eV)
  ---------------------------------------------------
  alpha Z        PSCENC =       294.32394985
  Ewald energy   TEWEN  =     -3641.45145672
  -Hartree energ DENC   =      -516.82178955
  -exchange      EXHF   =         0.00000000
  -V(xc)+E(xc)   XCENC  =         4.57376258
  PAW double counting   =      4528.01182359    -4519.11422289
  entropy T*S    EENTRO =        -0.02776055
  eigenvalues    EBANDS =       338.49277816
  atomic energy  EATOM  =      3489.78669473
  Solvation  Ediel_sol  =         0.00000000
  ---------------------------------------------------
  free energy    TOTEN  =       -22.22622081 eV

  energy without entropy =      -22.19846026  energy(sigma->0) =      -22.21696729


--------------------------------------------------------------------------------------------------------




 average (electrostatic) potential at core
  the test charge radii are     1.1199  1.2793  1.2059  0.9430
  (the norm of the test charge is              1.0000)
       1 -69.0425       2 -45.8556       3 -62.1303       4 -59.3312
 
 
 
 E-fermi :  12.2283     XC(G=0): -14.3015     alpha+bet :-18.2693

 Fermi energy:        12.2283341656

 k-point     1 :       0.0000    0.0000    0.0000
  band No.  band energies     occupation 
      1       1.5664      2.00000
      2       3.8242      2.00000
      3       4.9982      2.00000
      4       5.1097      2.00000
      5       5.1222      2.00000
      6       5.2420      2.00000
      7       5.2686      2.00000
      8       8.4648      2.00000
      9       8.4918      2.00000
     10       8.5412      2.00000
     11      10.0378      2.00000
     12      10.2354      2.00000
     13      11.1744      2.00000
     14      11.5023      2.00000
     15      11.5933      2.00007
     16      12.4351     -0.05660
     17      12.8212     -0.00023
     18      13.0351     -0.00000
     19      13.3971     -0.00000
     20      14.0337     -0.00000
     21      14.4748     -0.00000
     22      14.5028     -0.00000
     23      14.5201     -0.00000
     24      14.8889     -0.00000
     25      23.3046      0.00000
     26      23.4380      0.00000
     27      24.1343      0.00000
     28      24.4398      0.00000
     29      24.7412      0.00000
     30      25.2730      0.00000

 k-point     2 :       0.3333    0.0000    0.0000
  band No.  band energies     occupation 
      1       2.9721      2.00000
      2       4.8028      2.00000
      3       5.4797      2.00000
      4       5.6547      2.00000
      5       6.1230      2.00000
      6       6.2350      2.00000
      7       6.3279      2.00000
      8       7.7260      2.00000
      9       8.8200      2.00000
     10       9.0550      2.00000
     11       9.1583      2.00000
     12       9.3049      2.00000
     13       9.5063      2.00000
     14      10.1147      2.00000
     15      10.1797      2.00000
     16      10.6199      2.00000
     17      11.1307      2.00000
     18      11.4364      2.00000
     19      11.6395      2.00025
     20      11.9403      2.06041
     21      12.8770     -0.00004
     22      14.8859     -0.00000
     23      18.9039      0.00000
     24      18.9935      0.00000
     25      21.5490      0.00000
     26      23.1808      0.00000
     27      23.7646      0.00000
     28      23.8860      0.00000
     29      24.2539      0.00000
     30      26.8663      0.00000

 k-point     3 :       0.0000    0.3333    0.0000
  band No.  band energies     occupation 
      1       3.1681      2.00000
      2       4.8349      2.00000
      3       5.3076      2.00000
      4       5.6143      2.00000
      5       6.1796      2.00000
      6       6.2219      2.00000
      7       6.4034      2.00000
      8       7.8630      2.00000
      9       9.0539      2.00000
     10       9.1079      2.00000
     11       9.2508      2.00000
     12       9.3246      2.00000
     13       9.4816      2.00000
     14      10.2182      2.00000
     15      10.3594      2.00000
     16      11.2134      2.00000
     17      11.2198      2.00000
     18      11.3307      2.00000
     19      11.5941      2.00007
     20      11.8255      2.01526
     21      12.2799      0.57901
     22      13.0100     -0.00000
     23      19.0488      0.00000
     24      19.0796      0.00000
     25      21.3305      0.00000
     26      23.5731      0.00000
     27      23.7828      0.00000
     28      23.8123      0.00000
     29      25.4293      0.00000
     30      25.6595      0.00000

 k-point     4 :       0.0000    0.0000    0.3333
  band No.  band energies     occupation 
      1       3.1880      2.00000
      2       4.8655      2.00000
      3       5.5256      2.00000
      4       5.8866      2.00000
      5       6.0973      2.00000
      6       6.1511      2.00000
      7       6.2193      2.00000
      8       7.6339      2.00000
      9       8.8584      2.00000
     10       9.0108      2.00000
     11       9.2750      2.00000
     12       9.3136      2.00000
     13       9.4667      2.00000
     14      10.1943      2.00000
     15      10.3156      2.00000
     16      10.6692      2.00000
     17      11.2015      2.00000
     18      11.5122      2.00001
     19      11.5276      2.00001
     20      11.8767      2.03219
     21      12.3196      0.30991
     22      13.9933     -0.00000
     23      19.0097      0.00000
     24      19.1381      0.00000
     25      20.8492      0.00000
     26      23.6079      0.00000
     27      23.9695      0.00000
     28      24.2404      0.00000
     29      24.9806      0.00000
     30      26.0740      0.00000

 k-point     5 :       0.3333    0.3333    0.0000
  band No.  band energies     occupation 
      1       4.3809      2.00000
      2       5.6969      2.00000
      3       6.3047      2.00000
      4       6.3221      2.00000
      5       6.5409      2.00000
      6       6.7891      2.00000
      7       6.8839      2.00000
      8       7.5138      2.00000
      9       7.8562      2.00000
     10       8.2217      2.00000
     11       8.5086      2.00000
     12       8.7319      2.00000
     13       9.3185      2.00000
     14       9.4901      2.00000
     15       9.9614      2.00000
     16      10.5847      2.00000
     17      10.5937      2.00000
     18      11.2642      2.00000
     19      11.5777      2.00004
     20      11.9869      2.07082
     21      12.1337      1.71001
     22      13.7892     -0.00000
     23      15.7392     -0.00000
     24      18.2381      0.00000
     25      21.9134      0.00000
     26      23.0914      0.00000
     27      25.5820      0.00000
     28      25.8427      0.00000
     29      26.2715      0.00000
     30      26.7976      0.00000

 k-point     6 :       0.0000    0.3333    0.3333
  band No.  band energies     occupation 
      1       4.3241      2.00000
      2       5.7649      2.00000
      3       6.1461      2.00000
      4       6.2728      2.00000
      5       6.6124      2.00000
      6       6.8708      2.00000
      7       6.9593      2.00000
      8       7.4452      2.00000
      9       7.6290      2.00000
     10       8.3604      2.00000
     11       8.5005      2.00000
     12       8.7442      2.00000
     13       9.2939      2.00000
     14       9.4442      2.00000
     15      10.1789      2.00000
     16      10.4522      2.00000
     17      10.4679      2.00000
     18      11.1875      2.00000
     19      11.8281      2.01593
     20      11.8431      2.02015
     21      12.2087      1.16529
     22      13.7243     -0.00000
     23      16.4623     -0.00000
     24      18.2507      0.00000
     25      21.6775      0.00000
     26      23.0153      0.00000
     27      25.2081      0.00000
     28      25.6982      0.00000
     29      25.7491      0.00000
     30      27.0868      0.00000

 k-point     7 :       0.3333    0.0000    0.3333
  band No.  band energies     occupation 
      1       4.3573      2.00000
      2       5.7539      2.00000
      3       6.2935      2.00000
      4       6.3727      2.00000
      5       6.4390      2.00000
      6       6.9718      2.00000
      7       7.0210      2.00000
      8       7.3007      2.00000
      9       7.4339      2.00000
     10       8.3230      2.00000
     11       8.6764      2.00000
     12       8.7673      2.00000
     13       9.3421      2.00000
     14       9.5071      2.00000
     15       9.8291      2.00000
     16      10.4588      2.00000
     17      10.8831      2.00000
     18      11.2311      2.00000
     19      11.5879      2.00006
     20      12.1108      1.82862
     21      12.1301      1.73056
     22      14.2713     -0.00000
     23      15.1072     -0.00000
     24      18.2587      0.00000
     25      21.8782      0.00000
     26      22.9008      0.00000
     27      25.4998      0.00000
     28      26.0165      0.00000
     29      26.4135      0.00000
     30      26.7132      0.00000

 k-point     8 :       0.3333    0.3333    0.3333
  band No.  band energies     occupation 
      1       4.4279      2.00000
      2       4.9170      2.00000
      3       5.5335      2.00000
      4       5.8118      2.00000
      5       7.2619      2.00000
      6       7.5738      2.00000
      7       7.6869      2.00000
      8       8.5978      2.00000
      9       8.6860      2.00000
     10       8.7133      2.00000
     11       8.8453      2.00000
     12       8.9896      2.00000
     13       9.0451      2.00000
     14       9.1394      2.00000
     15       9.2166      2.00000
     16       9.3112      2.00000
     17      11.2440      2.00000
     18      11.4847      2.00000
     19      11.6267      2.00018
     20      12.2599      0.73690
     21      13.3452     -0.00000
     22      14.7885     -0.00000
     23      15.4013     -0.00000
     24      15.7861     -0.00000
     25      20.3157      0.00000
     26      20.4182      0.00000
     27      21.5791      0.00000
     28      24.5224      0.00000
     29      28.6997      0.00000
     30      28.9814      0.00000


--------------------------------------------------------------------------------------------------------


 soft charge-density along one line, spin component           1
         0         1         2         3         4         5         6         7         8         9
x    23.2232    0.0000   -1.2940    0.0000    0.1918    0.0000    0.1150    0.0000   -0.2526    0.0000
x    -0.0399    0.0000    0.0741    0.0000    0.0088    0.0000    0.0000    0.0000
y    23.2232    0.0000    1.3145    0.0000    0.1226    0.0000   -0.2411   -0.0000   -0.3028    0.0000
y     0.0219   -0.0000    0.0656   -0.0000    0.0012   -0.0000    0.0000    0.0000
z    23.2232    0.0000    0.3717    0.0000    0.1646    0.0000   -0.0768   -0.0000   -0.2631    0.0000
z     0.0202   -0.0000    0.0715   -0.0000   -0.0042   -0.0000    0.0000    0.0000
 total charge-density along one line
x    40.0000    0.0000    3.8322    0.0000    9.5458   -0.0000    2.7152    0.0000    1.1120    0.0000
x     0.2197    0.0000    0.0866    0.0000    0.0038   -0.0000    0.0059    0.0000    0.0028   -0.0000
x    -0.0012    0.0000   -0.0008   -0.0000    0.0006    0.0000    0.0004    0.0000   -0.0005   -0.0000
x    -0.0001    0.0000    0.0004    0.0000
y    40.0000    0.0000   -1.0332   -0.0000    9.4550    0.0000   -1.6577   -0.0000    0.9962   -0.0000
y    -0.1986   -0.0000    0.0384   -0.0000    0.0305    0.0000    0.0024    0.0000   -0.0060   -0.0000
y    -0.0010   -0.0000    0.0016   -0.0000    0.0006   -0.0000   -0.0003    0.0000   -0.0004    0.0000
y     0.0000    0.0000    0.0004    0.0000
z    40.0000    0.0000   -2.7417    0.0000    9.5076   -0.0000   -1.8637    0.0000    1.0768   -0.0000
z    -0.2154    0.0000    0.0687   -0.0000    0.0134    0.0000    0.0046    0.0000   -0.0055   -0.0000
z    -0.0011   -0.0000    0.0018   -0.0000    0.0006   -0.0000   -0.0006    0.0000   -0.0005    0.0000
z     0.0001    0.0000    0.0004    0.0000
 
 pseudopotential strength for first ion, spin component:           1
 -1.383   0.000   0.000   0.000   0.000  -1.665   0.000   0.000
  0.000  -1.308   0.000   0.000  -0.000   0.000  -1.593   0.000
  0.000   0.000  -1.325   0.000  -0.002   0.000   0.000  -1.609
  0.000   0.000   0.000  -1.392   0.000   0.000   0.000   0.000
  0.000  -0.000  -0.002   0.000  -1.331   0.000  -0.000  -0.002
 -1.665   0.000   0.000   0.000   0.000  -1.911   0.000   0.000
  0.000  -1.593   0.000   0.000  -0.000   0.000  -1.842   0.000
  0.000   0.000  -1.609   0.000  -0.002   0.000   0.000  -1.858
  0.000   0.000   0.000  -1.674   0.000   0.000   0.000   0.000
  0.000  -0.000  -0.002   0.000  -1.615   0.000  -0.000  -0.002
  0.000  -0.000  -0.006  -0.000   0.010   0.000  -0.000  -0.006
  0.000  -0.000  -0.010  -0.000   0.017   0.000  -0.000  -0.009
  0.000  -0.000   0.000   0.000   0.000   0.000  -0.000   0.000
  0.000  -0.000  -0.000   0.000  -0.000   0.000  -0.000  -0.000
 -0.000   0.000  -0.000  -0.000   0.000  -0.000   0.000  -0.000
  0.000  -0.000   0.000   0.000   0.000   0.000  -0.000   0.000
  0.000  -0.000  -0.000   0.000  -0.000   0.000  -0.000  -0.000
 -0.000   0.000  -0.000  -0.000   0.000  -0.000   0.000  -0.000
 total augmentation occupancy for first ion, spin component:           1
  3.782   0.000  -0.000   0.000   0.000  -3.289   0.000  -0.000   0.000  -0.000  -0.000   0.000   0.000   0.000   0.000   0.000
  0.000   5.620   0.000   0.000   0.000   0.000  -4.209   0.000   0.000   0.000   0.000   0.000   0.000   0.000   0.000   0.000
  0.000   0.000   4.627   0.000  -0.974  -0.000   0.000  -3.368   0.000   0.712   0.223  -0.042   0.000   0.000   0.000   0.000
  0.000   0.000   0.000   4.222   0.000   0.000  -0.000   0.000  -3.755   0.000   0.000   0.000   0.000   0.000   0.000   0.000
 -0.000   0.000  -0.974   0.000   5.808   0.000   0.000   0.711   0.000  -4.348  -0.537   0.118   0.000   0.000   0.000   0.000
 -3.289   0.000   0.000   0.000   0.000   4.518   0.000  -0.000   0.000   0.000  -0.000  -0.000   0.000   0.000   0.000   0.000
  0.000  -4.209   0.000  -0.000   0.000   0.000   4.679   0.000   0.000   0.000   0.000   0.000   0.000   0.000   0.000   0.000
  0.000   0.000  -3.368   0.000   0.711   0.000   0.000   3.959   0.000  -0.510  -0.200   0.023   0.000   0.000   0.000   0.000
  0.000   0.000   0.000  -3.755   0.000   0.000   0.000   0.000   4.968   0.000   0.000   0.000   0.000   0.000   0.000   0.000
 -0.000   0.000   0.712   0.000  -4.348   0.000   0.000  -0.510   0.000   4.755   0.431  -0.071   0.000   0.000   0.000   0.000
 -0.000   0.000   0.223   0.000  -0.537  -0.000   0.000  -0.200   0.000   0.431   2.820  -0.491   0.000   0.000   0.000   0.000
  0.000   0.000  -0.042   0.000   0.118  -0.000   0.000   0.023   0.000  -0.071  -0.491   0.094   0.000   0.000   0.000   0.000
  0.000   0.000   0.000   0.000   0.000   0.000   0.000   0.000   0.000   0.000   0.000   0.000   0.414   0.000  -0.000  -0.020
  0.000   0.000   0.000   0.000   0.000   0.000   0.000   0.000   0.000   0.000   0.000   0.000   0.000   0.401   0.000   0.000
  0.000   0.000   0.000   0.000   0.000   0.000   0.000   0.000   0.000   0.000   0.000   0.000  -0.000   0.000   0.476  -0.000
  0.000   0.000   0.000   0.000   0.000   0.000   0.000   0.000   0.000   0.000   0.000   0.000  -0.020   0.000   0.000   0.001
  0.000   0.000   0.000   0.000   0.000   0.000   0.000   0.000   0.000   0.000   0.000   0.000   0.000  -0.022   0.000   0.000
  0.000   0.000   0.000   0.000   0.000   0.000   0.000   0.000   0.000   0.000   0.000   0.000  -0.000   0.000  -0.024   0.000


------------------------ aborting loop because EDIFF is reached ----------------------------------------


    CHARGE:  cpu time    0.0101: real time    0.0101
    FORLOC:  cpu time    0.0019: real time    0.0020
    FORNL :  cpu time    0.0383: real time    0.0383
    STRESS:  cpu time    0.0704: real time    0.0704
    FORCOR:  cpu time    0.0118: real time    0.0118
    FORHAR:  cpu time    0.0033: real time    0.0033
    MIXING:  cpu time    0.0006: real time    0.0006

  FORCE on cell =-STRESS in cart. coord.  units (eV):
  Direction    XX          YY          ZZ          XY          YZ          ZX
  --------------------------------------------------------------------------------------
  Alpha Z   294.32395   294.32395   294.32395
  Ewald   -1215.67993 -1210.09319 -1215.67993     0.00000    -0.00000     0.00000
  Hartree   165.97396   179.88289   170.96092    -0.00000    -0.00000    -0.00000
  E(xc)    -206.12634  -206.38923  -206.29811    -0.00000    -0.00000     0.00000
  Local     229.56864   207.59512   224.12291     0.00000     0.00000     0.00000
  n-local    -6.66484    -5.13222    -6.47136     6.86565     7.11253     7.42516
  augment   258.21157   259.30015   258.82807     0.00000     0.00000    -0.00000
  Kinetic   497.52074   499.43625   497.91126     3.08316     3.31434     3.36940
  Fock        0.00000     0.00000     0.00000     0.00000     0.00000     0.00000
  -------------------------------------------------------------------------------------
  Total      17.12776    18.92372    17.69770     0.00000     0.00000     0.00000
  in kB     571.34430   631.25358   590.35630     0.00000     0.00000     0.00000
  external pressure =      597.65 kB  Pullay stress =        0.00 kB


 VOLUME and BASIS-vectors are now :
 -----------------------------------------------------------------------------
  energy-cutoff  :      270.00
  volume of cell :       48.03
      direct lattice vectors                 reciprocal lattice vectors
     3.635000000  0.000000000  0.000000000     0.275103164  0.000000000  0.000000000
     0.000000000  3.635000000  0.000000000     0.000000000  0.275103164  0.000000000
     0.000000000  0.000000000  3.635000000     0.000000000  0.000000000  0.275103164

  length of vectors
     3.635000000  3.635000000  3.635000000     0.275103164  0.275103164  0.275103164


 FORCES acting on ions
    electron-ion (+dipol)            ewald-force                    non-local-force                 convergence-correction
 -----------------------------------------------------------------------------------------------
   -.284E-13 0.199E-13 0.549E-14   0.867E-14 -.106E-13 -.539E-14   -.520E-21 0.168E-21 0.553E-22   -.279E-13 -.334E-14 0.298E-13
   0.246E-14 0.378E-13 -.219E-15   0.109E-14 -.104E-14 -.382E-14   0.277E-22 0.983E-23 -.610E-22   -.602E-14 -.835E-14 0.147E-13
   0.186E-13 0.836E-14 0.634E-13   0.405E-14 0.203E-14 0.701E-14   0.739E-23 0.108E-21 0.559E-22   -.197E-13 0.315E-14 0.900E-14
   -.700E-13 0.297E-12 0.296E-12   -.111E-13 0.108E-13 0.211E-14   -.132E-21 -.715E-23 0.477E-23   -.947E-13 0.615E-14 0.208E-13
 -----------------------------------------------------------------------------------------------
   -.773E-13 0.363E-12 0.365E-12   0.269E-14 0.119E-14 -.871E-16   -.618E-21 0.279E-21 0.549E-22   -.148E-12 -.239E-14 0.743E-13
 
 
 POSITION                                       TOTAL-FORCE (eV/Angst)
 -----------------------------------------------------------------------------------
      0.00000      0.00000      0.00000        -0.000000      0.000000     -0.000000
      1.81750      1.81750      0.00000         0.000000     -0.000000     -0.000000
      1.81750      0.00000      1.81750         0.000000      0.000000     -0.000000
      0.00000      1.81750      1.81750         0.000000      0.000000      0.000000
 -----------------------------------------------------------------------------------
    total drift:                               -0.000000      0.000000      0.000000


--------------------------------------------------------------------------------------------------------



  FREE ENERGIE OF THE ION-ELECTRON SYSTEM (eV)
  ---------------------------------------------------
  free  energy   TOTEN  =       -22.22622081 eV

  energy  without entropy=      -22.19846026  energy(sigma->0) =      -22.21696729
 


--------------------------------------------------------------------------------------------------------


    POTLOK:  cpu time    0.0158: real time    0.0158


--------------------------------------------------------------------------------------------------------


 writing wavefunctions
     LOOP+:  cpu time    2.1856: real time    2.1966
    4ORBIT:  cpu time    0.0000: real time    0.0000

 total amount of memory used by VASP MPI-rank0    37175. kBytes
=======================================================================

   base      :      30000. kBytes
   nonl-proj :       2303. kBytes
   grid      :       2641. kBytes
   one-center:         62. kBytes
   wavefun   :       2169. kBytes
 
  
  
 General timing and accounting informations for this job:
 ========================================================
  
                  Total CPU time used (sec):        2.357
                            User time (sec):        2.321
                          System time (sec):        0.036
                         Elapsed time (sec):        2.362
  
                   Maximum memory used (kb):       45128.
                   Average memory used (kb):          N/A
  
                          Minor page faults:         4933
                          Major page faults:            0
                 Voluntary context switches:           25
