<?xml version="1.0" encoding="ISO-8859-1"?>
<modeling>
 <generator>
  <i name="program" type="string">vasp </i>
  <i name="version" type="string">6.2.0  </i>
  <i name="subversion" type="string">18Jan21 (build Mar 17 2021 09:06:54) complex                          serial </i>
  <i name="platform" type="string">LinuxIFC </i>
  <i name="date" type="string">2021 06 11 </i>
  <i name="time" type="string">11:30:59 </i>
 </generator>
 <incar>
  <i type="string" name="PREC">normal</i>
  <i type="int" name="ICHARG">     1</i>
  <i type="int" name="IBRION">    -1</i>
  <i name="EDIFF">      0.00000100</i>
  <i type="int" name="NSW">     0</i>
  <i name="ENCUT">    270.00000000</i>
  <i type="int" name="NBANDS">    30</i>
  <i type="int" name="ISMEAR">     1</i>
  <i name="SIGMA">      0.20000000</i>
  <i type="logical" name="LCHARG"> T  </i>
  <i type="int" name="KPAR">     1</i>
  <i type="int" name="NCORE">     1</i>
  <i type="string" name="GGA">PE</i>
 </incar>
 <primitive_cell>
  <structure name="primitive_cell" >
   <crystal>
    <varray name="basis" >
     <v>       3.63500000       0.00000000       0.00000000 </v>
     <v>       0.00000000       3.63500000       0.00000000 </v>
     <v>       0.00000000       0.00000000       3.63500000 </v>
    </varray>
    <i name="volume">     48.03007287 </i>
    <varray name="rec_basis" >
     <v>       0.27510316       0.00000000       0.00000000 </v>
     <v>       0.00000000       0.27510316       0.00000000 </v>
     <v>       0.00000000       0.00000000       0.27510316 </v>
    </varray>
   </crystal>
   <varray name="positions" >
    <v>       0.00000000       0.00000000       0.00000000 </v>
    <v>       0.50000000       0.50000000       0.00000000 </v>
    <v>       0.50000000       0.00000000       0.50000000 </v>
    <v>       0.00000000       0.50000000       0.50000000 </v>
   </varray>
  </structure>
  <varray name="primitive_index" >
   <v type="int" >        1 </v>
   <v type="int" >        2 </v>
   <v type="int" >        3 </v>
   <v type="int" >        4 </v>
  </varray>
 </primitive_cell>
 <kpoints>
  <generation param="Monkhorst-Pack">
   <v type="int" name="divisions">       3        3        3 </v>
   <v name="usershift">      0.00000000       0.00000000       0.00000000 </v>
   <v name="genvec1">      0.33333333       0.00000000       0.00000000 </v>
   <v name="genvec2">      0.00000000       0.33333333       0.00000000 </v>
   <v name="genvec3">      0.00000000       0.00000000       0.33333333 </v>
   <v name="shift">      0.00000000       0.00000000       0.00000000 </v>
  </generation>
  <varray name="kpointlist" >
   <v>       0.00000000       0.00000000       0.00000000 </v>
   <v>       0.33333333       0.00000000       0.00000000 </v>
   <v>       0.00000000       0.33333333       0.00000000 </v>
   <v>       0.00000000       0.00000000       0.33333333 </v>
   <v>       0.33333333       0.33333333       0.00000000 </v>
   <v>       0.00000000       0.33333333       0.33333333 </v>
   <v>       0.33333333       0.00000000       0.33333333 </v>
   <v>       0.33333333       0.33333333       0.33333333 </v>
  </varray>
  <varray name="weights" >
   <v>       0.03703704 </v>
   <v>       0.07407407 </v>
   <v>       0.07407407 </v>
   <v>       0.07407407 </v>
   <v>       0.14814815 </v>
   <v>       0.14814815 </v>
   <v>       0.14814815 </v>
   <v>       0.29629630 </v>
  </varray>
 </kpoints>
 <parameters>
  <separator name="general" >
   <i type="string" name="SYSTEM">unknown system</i>
   <i type="logical" name="LCOMPAT"> F  </i>
  </separator>
  <separator name="electronic" >
   <i type="string" name="PREC">normal</i>
   <i name="ENMAX">    270.00000000</i>
   <i name="ENAUG">    586.98000000</i>
   <i name="EDIFF">      0.00000100</i>
   <i type="int" name="IALGO">    38</i>
   <i type="int" name="IWAVPR">     0</i>
   <i type="int" name="NBANDS">    30</i>
   <i type="int" name="NBANDSLOW">    -1</i>
   <i type="int" name="NBANDSHIGH">    -1</i>
   <i name="NELECT">     40.00000000</i>
   <i type="int" name="TURBO">     0</i>
   <i type="int" name="IRESTART">     0</i>
   <i type="int" name="NREBOOT">     0</i>
   <i type="int" name="NMIN">     0</i>
   <i name="EREF">      0.00000000</i>
   <separator name="electronic smearing" >
    <i type="int" name="ISMEAR">     1</i>
    <i name="SIGMA">      0.20000000</i>
    <i name="KSPACING">      0.50000000</i>
    <i type="logical" name="KGAMMA"> T  </i>
    <i type="logical" name="KBLOWUP"> T  </i>
   </separator>
   <separator name="electronic projectors" >
    <i type="logical" name="LREAL"> F  </i>
    <v name="ROPT">      0.00000000      0.00000000      0.00000000      0.00000000</v>
    <i type="int" name="LMAXPAW">  -100</i>
    <i type="int" name="LMAXMIX">     2</i>
    <i type="logical" name="NLSPLINE"> F  </i>
   </separator>
   <separator name="electronic startup" >
    <i type="int" name="ISTART">     0</i>
    <i type="int" name="ICHARG">     1</i>
    <i type="int" name="INIWAV">     1</i>
   </separator>
   <separator name="electronic spin" >
    <i type="int" name="ISPIN">     1</i>
    <i type="logical" name="LNONCOLLINEAR"> F  </i>
    <v name="MAGMOM">      1.00000000      1.00000000      1.00000000      1.00000000</v>
    <i name="NUPDOWN">     -1.00000000</i>
    <i type="logical" name="LSORBIT"> F  </i>
    <v name="SAXIS">      0.00000000      0.00000000      1.00000000</v>
    <i type="logical" name="LSPIRAL"> F  </i>
    <v name="QSPIRAL">      0.00000000      0.00000000      0.00000000</v>
    <i type="logical" name="LZEROZ"> F  </i>
   </separator>
   <separator name="electronic exchange-correlation" >
    <i type="logical" name="LASPH"> F  </i>
    <i type="logical" name="LMETAGGA"> F  </i>
   </separator>
   <separator name="electronic convergence" >
    <i type="int" name="NELM">    60</i>
    <i type="int" name="NELMDL">    -5</i>
    <i type="int" name="NELMIN">     2</i>
    <i name="ENINI">    270.00000000</i>
    <separator name="electronic convergence detail" >
     <i type="logical" name="LDIAG"> T  </i>
     <i type="logical" name="LSUBROT"> F  </i>
     <i name="WEIMIN">      0.00000000</i>
     <i name="EBREAK">      0.00000001</i>
     <i name="DEPER">      0.30000000</i>
     <i type="int" name="NRMM">     4</i>
     <i name="TIME">      0.40000000</i>
    </separator>
   </separator>
   <separator name="electronic mixer" >
    <i name="AMIX">      0.40000000</i>
    <i name="BMIX">      1.00000000</i>
    <i name="AMIN">      0.10000000</i>
    <i name="AMIX_MAG">      1.60000000</i>
    <i name="BMIX_MAG">      1.00000000</i>
    <separator name="electronic mixer details" >
     <i type="int" name="IMIX">     4</i>
     <i type="logical" name="MIXFIRST"> F  </i>
     <i type="int" name="MAXMIX">   -45</i>
     <i name="WC">    100.00000000</i>
     <i type="int" name="INIMIX">     1</i>
     <i type="int" name="MIXPRE">     1</i>
     <i type="int" name="MREMOVE">     5</i>
    </separator>
   </separator>
   <separator name="electronic dipolcorrection" >
    <i type="logical" name="LDIPOL"> F  </i>
    <i type="logical" name="LMONO"> F  </i>
    <i type="int" name="IDIPOL">     0</i>
    <i name="EPSILON">      1.00000000</i>
    <v name="DIPOL">   -100.00000000   -100.00000000   -100.00000000</v>
    <i name="EFIELD">      0.00000000</i>
   </separator>
  </separator>
  <separator name="grids" >
   <i type="int" name="NGX">    16</i>
   <i type="int" name="NGY">    16</i>
   <i type="int" name="NGZ">    16</i>
   <i type="int" name="NGXF">    32</i>
   <i type="int" name="NGYF">    32</i>
   <i type="int" name="NGZF">    32</i>
   <i type="logical" name="ADDGRID"> F  </i>
  </separator>
  <separator name="ionic" >
   <i type="int" name="NSW">     0</i>
   <i type="int" name="IBRION">    -1</i>
   <i type="int" name="MDALGO">     0</i>
   <i type="int" name="ISIF">     2</i>
   <i name="PSTRESS">      0.00000000</i>
   <i name="EDIFFG">      0.00001000</i>
   <i type="int" name="NFREE">     0</i>
   <i name="POTIM">      0.50000000</i>
   <i name="SMASS">     -3.00000000</i>
   <i name="SCALEE">      1.00000000</i>
  </separator>
  <separator name="ionic md" >
   <i name="TEBEG">      0.00010000</i>
   <i name="TEEND">      0.00010000</i>
   <i type="int" name="NBLOCK">     1</i>
   <i type="int" name="KBLOCK">     1</i>
   <i type="int" name="NPACO">   256</i>
   <i name="APACO">     16.00000000</i>
  </separator>
  <separator name="symmetry" >
   <i type="int" name="ISYM">     2</i>
   <i name="SYMPREC">      0.00001000</i>
  </separator>
  <separator name="dos" >
   <i type="int" name="LORBIT">     0</i>
   <v name="RWIGS">     -1.00000000     -1.00000000     -1.00000000     -1.00000000</v>
   <i type="int" name="NEDOS">   301</i>
   <i name="EMIN">     10.00000000</i>
   <i name="EMAX">    -10.00000000</i>
   <i name="EFERMI">      0.00000000</i>
  </separator>
  <separator name="writing" >
   <i type="int" name="NWRITE">     2</i>
   <i type="logical" name="LWAVE"> T  </i>
   <i type="logical" name="LDOWNSAMPLE"> F  </i>
   <i type="logical" name="LCHARG"> T  </i>
   <i type="logical" name="LPARD"> F  </i>
   <i type="logical" name="LVTOT"> F  </i>
   <i type="logical" name="LVHAR"> F  </i>
   <i type="logical" name="LELF"> F  </i>
   <i type="logical" name="LOPTICS"> F  </i>
   <v name="STM">      0.00000000      0.00000000      0.00000000      0.00000000      0.00000000      0.00000000      0.00000000</v>
  </separator>
  <separator name="performance" >
   <i type="int" name="NPAR">     1</i>
   <i type="int" name="NSIM">     4</i>
   <i type="int" name="NBLK">    -1</i>
   <i type="logical" name="LPLANE"> T  </i>
   <i type="logical" name="LSCALAPACK"> F  </i>
   <i type="logical" name="LSCAAWARE"> F  </i>
   <i type="logical" name="LSCALU"> F  </i>
   <i type="logical" name="LASYNC"> F  </i>
   <i type="logical" name="LORBITALREAL"> F  </i>
  </separator>
  <separator name="miscellaneous" >
   <i type="int" name="IDIOT">     3</i>
   <i type="int" name="PHON_NSTRUCT">    -1</i>
   <i type="logical" name="LMUSIC"> F  </i>
   <v name="POMASS">    106.42000000    192.22000000    195.08000000     63.54600000</v>
   <v name="DARWINR">      0.00000000      0.00000000      0.00000000      0.00000000</v>
   <v name="DARWINV">      1.00000000      1.00000000      1.00000000      1.00000000</v>
   <i type="logical" name="LCORR"> T  </i>
  </separator>
  <i type="logical" name="GGA_COMPAT"> T  </i>
  <i type="logical" name="LBERRY"> F  </i>
  <i type="int" name="ICORELEVEL">     0</i>
  <i type="logical" name="LDAU"> F  </i>
  <i type="int" name="I_CONSTRAINED_M">     0</i>
  <separator name="electronic exchange-correlation" >
   <i type="string" name="GGA">PE</i>
   <i type="int" name="VOSKOWN">     0</i>
   <i type="logical" name="LHFCALC"> F  </i>
   <i type="string" name="PRECFOCK"></i>
   <i type="logical" name="LSYMGRAD"> F  </i>
   <i type="logical" name="LHFONE"> F  </i>
   <i type="logical" name="LRHFCALC"> F  </i>
   <i type="logical" name="LTHOMAS"> F  </i>
   <i type="logical" name="LMODELHF"> F  </i>
   <i type="logical" name="LFOCKACE"> F  </i>
   <i name="ENCUT4O">     -1.00000000</i>
   <i type="int" name="EXXOEP">     0</i>
   <i type="int" name="FOURORBIT">     0</i>
   <i name="AEXX">      0.00000000</i>
   <i name="HFALPHA">      0.00000000</i>
   <i name="MCALPHA">      0.00000000</i>
   <i name="ALDAX">      1.00000000</i>
   <i name="AGGAX">      1.00000000</i>
   <i name="ALDAC">      1.00000000</i>
   <i name="AGGAC">      1.00000000</i>
   <i type="int" name="NKREDX">     1</i>
   <i type="int" name="NKREDY">     1</i>
   <i type="int" name="NKREDZ">     1</i>
   <i type="logical" name="SHIFTRED"> F  </i>
   <i type="logical" name="ODDONLY"> F  </i>
   <i type="logical" name="EVENONLY"> F  </i>
   <i type="int" name="LMAXFOCK">     0</i>
   <i type="int" name="NMAXFOCKAE">     0</i>
   <i type="logical" name="LFOCKAEDFT"> F  </i>
   <i name="HFSCREEN">      0.00000000</i>
   <i name="HFSCREENC">      0.00000000</i>
   <i type="int" name="NBANDSGWLOW">     0</i>
  </separator>
  <separator name="vdW DFT" >
   <i type="logical" name="LUSE_VDW"> F  </i>
   <i name="Zab_VDW">     -0.84910000</i>
   <i name="PARAM1">      0.12340000</i>
   <i name="PARAM2">      1.00000000</i>
   <i name="PARAM3">      0.00000000</i>
  </separator>
  <separator name="model GW" >
   <i type="int" name="MODEL_GW">     0</i>
   <i name="MODEL_EPS0">      7.20451093</i>
   <i name="MODEL_ALPHA">      1.00000000</i>
  </separator>
  <separator name="linear response parameters" >
   <i type="logical" name="LEPSILON"> F  </i>
   <i type="logical" name="LRPA"> F  </i>
   <i type="logical" name="LNABLA"> F  </i>
   <i type="logical" name="LVEL"> F  </i>
   <i type="int" name="KINTER">     0</i>
   <i name="CSHIFT">      0.10000000</i>
   <i name="OMEGAMAX">     -1.00000000</i>
   <i name="DEG_THRESHOLD">      0.00200000</i>
   <i name="RTIME">     -0.10000000</i>
   <i name="WPLASMAI">      0.00000000</i>
   <v name="DFIELD">      0.00000000      0.00000000      0.00000000</v>
   <v name="WPLASMA">      0.00000000      0.00000000      0.00000000      0.00000000      0.00000000      0.00000000      0.00000000      0.00000000      0.00000000</v>
  </separator>
  <separator name="orbital magnetization" >
   <i type="logical" name="NUCIND"> F  </i>
   <v name="MAGPOS">      0.00000000      0.00000000      0.00000000</v>
   <i type="logical" name="LNICSALL"> T  </i>
   <i type="logical" name="ORBITALMAG"> F  </i>
   <i type="logical" name="LMAGBLOCH"> F  </i>
   <i type="logical" name="LCHIMAG"> F  </i>
   <i type="logical" name="LGAUGE"> T  </i>
   <i type="int" name="MAGATOM">     0</i>
   <v name="MAGDIPOL">      0.00000000      0.00000000      0.00000000</v>
   <v name="AVECCONST">      0.00000000      0.00000000      0.00000000</v>
  </separator>
  <separator name="response functions" >
   <i type="logical" name="LFINITE_TEMPERATURE"> F  </i>
   <i type="logical" name="LADDER"> F  </i>
   <i type="logical" name="LRPAFORCE"> F  </i>
   <i type="logical" name="LFXC"> F  </i>
   <i type="logical" name="LHARTREE"> T  </i>
   <i type="int" name="IBSE">     0</i>
   <v type="int" name="KPOINT">    -1     0     0     0</v>
   <i type="logical" name="LTCTC"> F  </i>
   <i type="logical" name="LTCTE"> F  </i>
   <i type="logical" name="LTETE"> F  </i>
   <i type="logical" name="LTRIPLET"> F  </i>
   <i type="logical" name="LFXCEPS"> F  </i>
   <i type="logical" name="LFXHEG"> F  </i>
   <i type="int" name="NATURALO">     2</i>
   <i type="logical" name="LHOLEGF"> F  </i>
   <i type="logical" name="L2ORDER"> F  </i>
   <i type="logical" name="LDMP1"> F  </i>
   <i type="logical" name="LMP2LT"> F  </i>
   <i type="logical" name="LSMP2LT"> F  </i>
   <i type="logical" name="LGWLF"> F  </i>
   <i name="ENCUTGW">     -2.00000000</i>
   <i name="ENCUTGWSOFT">     -2.00000000</i>
   <i name="ENCUTLF">     -1.00000000</i>
   <i type="logical" name="LESF_SPLINES"> F  </i>
   <i type="int" name="LMAXMP2">    -1</i>
   <i name="SCISSOR">      0.00000000</i>
   <i type="int" name="NOMEGA">     0</i>
   <i type="int" name="NOMEGAR">     0</i>
   <i type="int" name="NBANDSGW">    -1</i>
   <i type="int" name="NBANDSO">    -1</i>
   <i type="int" name="NBANDSV">    -1</i>
   <i type="int" name="NELM">     1</i>
   <i type="int" name="NELMHF">     1</i>
   <i type="int" name="DIM">     3</i>
   <i type="int" name="IESPILON">     4</i>
   <i type="int" name="ANTIRES">     0</i>
   <i name="OMEGAMAX">    -30.00000000</i>
   <i name="OMEGAMIN">    -30.00000000</i>
   <i name="OMEGATL">   -200.00000000</i>
   <i type="int" name="OMEGAGRID">     0</i>
   <i name="CSHIFT">     -0.10000000</i>
   <i type="logical" name="LSELFENERGY"> F  </i>
   <i type="logical" name="LSPECTRAL"> F  </i>
   <i type="logical" name="LSPECTRALGW"> F  </i>
   <i type="logical" name="LSINGLES"> F  </i>
   <i type="logical" name="LFERMIGW"> F  </i>
   <i type="logical" name="ODDONLYGW"> F  </i>
   <i type="logical" name="EVENONLYGW"> F  </i>
   <i type="int" name="NKREDLFX">     1</i>
   <i type="int" name="NKREDLFY">     1</i>
   <i type="int" name="NKREDLFZ">     1</i>
   <i type="int" name="MAXMEM">  2800</i>
   <i type="int" name="TELESCOPE">     0</i>
   <i type="int" name="NTAUPAR">    -1</i>
   <i type="int" name="NOMEGAPAR">    -1</i>
   <i name="DAMP_NEWTON">      0.80000001</i>
   <i name="LAMBDA">      1.00000000</i>
  </separator>
  <separator name="External order field" >
   <i name="OFIELD_KAPPA">      0.00000000</i>
   <v name="OFIELD_K">      0.00000000      0.00000000      0.00000000</v>
   <i name="OFIELD_Q6_NEAR">      0.00000000</i>
   <i name="OFIELD_Q6_FAR">      0.00000000</i>
   <i name="OFIELD_A">      0.00000000</i>
  </separator>
 </parameters>
 <atominfo>
  <atoms>       4 </atoms>
  <types>       4 </types>
  <array name="atoms" >
   <dimension dim="1">ion</dimension>
   <field type="string">element</field>
   <field type="int">atomtype</field>
   <set>
    <rc><c>Pd</c><c>   1</c></rc>
    <rc><c>Ir</c><c>   2</c></rc>
    <rc><c>Pt</c><c>   3</c></rc>
    <rc><c>Cu</c><c>   4</c></rc>
   </set>
  </array>
  <array name="atomtypes" >
   <dimension dim="1">type</dimension>
   <field type="int">atomspertype</field>
   <field type="string">element</field>
   <field>mass</field>
   <field>valence</field>
   <field type="string">pseudopotential</field>
   <set>
    <rc><c>   1</c><c>Pd</c><c>    106.42000000</c><c>     10.00000000</c><c>  PAW_PBE Pd 04Jan2005                  </c></rc>
    <rc><c>   1</c><c>Ir</c><c>    192.22000000</c><c>      9.00000000</c><c>  PAW_PBE Ir 06Sep2000                  </c></rc>
    <rc><c>   1</c><c>Pt</c><c>    195.08000000</c><c>     10.00000000</c><c>  PAW_PBE Pt 04Feb2005                  </c></rc>
    <rc><c>   1</c><c>Cu</c><c>     63.54600000</c><c>     11.00000000</c><c>  PAW_PBE Cu 22Jun2005                  </c></rc>
   </set>
  </array>
 </atominfo>
 <structure name="initialpos" >
  <crystal>
   <varray name="basis" >
    <v>       3.63500000       0.00000000       0.00000000 </v>
    <v>       0.00000000       3.63500000       0.00000000 </v>
    <v>       0.00000000       0.00000000       3.63500000 </v>
   </varray>
   <i name="volume">     48.03007287 </i>
   <varray name="rec_basis" >
    <v>       0.27510316       0.00000000       0.00000000 </v>
    <v>       0.00000000       0.27510316       0.00000000 </v>
    <v>       0.00000000       0.00000000       0.27510316 </v>
   </varray>
  </crystal>
  <varray name="positions" >
   <v>       0.00000000       0.00000000       0.00000000 </v>
   <v>       0.50000000       0.50000000       0.00000000 </v>
   <v>       0.50000000       0.00000000       0.50000000 </v>
   <v>       0.00000000       0.50000000       0.50000000 </v>
  </varray>
 </structure>
 <calculation>
  <scstep>
   <time name="dav">    0.11    0.12</time>
   <time name="total">    0.12    0.13</time>
   <energy>
    <i name="alphaZ">    294.32394985 </i>
    <i name="ewald">  -3641.45145672 </i>
    <i name="hartreedc">   -571.19890525 </i>
    <i name="XCdc">      6.42737968 </i>
    <i name="pawpsdc">   3282.45812088 </i>
    <i name="pawaedc">  -3257.47686163 </i>
    <i name="eentropy">     -0.00615972 </i>
    <i name="bandstr">    606.20538876 </i>
    <i name="atom">   3489.78669473 </i>
    <i name="e_fr_energy">    209.06815056 </i>
    <i name="e_wo_entrp">    209.07431029 </i>
    <i name="e_0_energy">    209.07020380 </i>
   </energy>
  </scstep>
  <scstep>
   <time name="dav">    0.09    0.09</time>
   <time name="total">    0.09    0.09</time>
   <energy>
    <i name="e_fr_energy">    -14.39262302 </i>
    <i name="e_wo_entrp">    -14.39428176 </i>
    <i name="e_0_energy">    -14.39317593 </i>
   </energy>
  </scstep>
  <scstep>
   <time name="dav">    0.10    0.10</time>
   <time name="total">    0.10    0.10</time>
   <energy>
    <i name="e_fr_energy">    -24.50904988 </i>
    <i name="e_wo_entrp">    -24.51019230 </i>
    <i name="e_0_energy">    -24.50943069 </i>
   </energy>
  </scstep>
  <scstep>
   <time name="dav">    0.11    0.11</time>
   <time name="total">    0.11    0.11</time>
   <energy>
    <i name="e_fr_energy">    -24.75062510 </i>
    <i name="e_wo_entrp">    -24.75245783 </i>
    <i name="e_0_energy">    -24.75123601 </i>
   </energy>
  </scstep>
  <scstep>
   <time name="dav">    0.11    0.11</time>
   <time name="total">    0.12    0.12</time>
   <energy>
    <i name="e_fr_energy">    -24.75869796 </i>
    <i name="e_wo_entrp">    -24.76058703 </i>
    <i name="e_0_energy">    -24.75932765 </i>
   </energy>
  </scstep>
  <scstep>
   <time name="dav">    0.10    0.10</time>
   <time name="total">    0.12    0.12</time>
   <energy>
    <i name="e_fr_energy">    -26.13454210 </i>
    <i name="e_wo_entrp">    -26.13624633 </i>
    <i name="e_0_energy">    -26.13511018 </i>
   </energy>
  </scstep>
  <scstep>
   <time name="dav">    0.10    0.10</time>
   <time name="total">    0.13    0.13</time>
   <energy>
    <i name="e_fr_energy">    -22.30923217 </i>
    <i name="e_wo_entrp">    -22.30972431 </i>
    <i name="e_0_energy">    -22.30939621 </i>
   </energy>
  </scstep>
  <scstep>
   <time name="dav">    0.10    0.10</time>
   <time name="total">    0.12    0.12</time>
   <energy>
    <i name="e_fr_energy">    -22.31108748 </i>
    <i name="e_wo_entrp">    -22.30252996 </i>
    <i name="e_0_energy">    -22.30823497 </i>
   </energy>
  </scstep>
  <scstep>
   <time name="dav">    0.11    0.11</time>
   <time name="total">    0.14    0.14</time>
   <energy>
    <i name="e_fr_energy">    -22.23338068 </i>
    <i name="e_wo_entrp">    -22.20420886 </i>
    <i name="e_0_energy">    -22.22365674 </i>
   </energy>
  </scstep>
  <scstep>
   <time name="dav">    0.12    0.12</time>
   <time name="total">    0.14    0.14</time>
   <energy>
    <i name="e_fr_energy">    -22.22763533 </i>
    <i name="e_wo_entrp">    -22.19909670 </i>
    <i name="e_0_energy">    -22.21812245 </i>
   </energy>
  </scstep>
  <scstep>
   <time name="dav">    0.12    0.12</time>
   <time name="total">    0.14    0.14</time>
   <energy>
    <i name="e_fr_energy">    -22.22635194 </i>
    <i name="e_wo_entrp">    -22.19794408 </i>
    <i name="e_0_energy">    -22.21688266 </i>
   </energy>
  </scstep>
  <scstep>
   <time name="dav">    0.11    0.11</time>
   <time name="total">    0.13    0.13</time>
   <energy>
    <i name="e_fr_energy">    -22.22624461 </i>
    <i name="e_wo_entrp">    -22.19873308 </i>
    <i name="e_0_energy">    -22.21707410 </i>
   </energy>
  </scstep>
  <scstep>
   <time name="dav">    0.11    0.11</time>
   <time name="total">    0.13    0.13</time>
   <energy>
    <i name="e_fr_energy">    -22.22624499 </i>
    <i name="e_wo_entrp">    -22.19812981 </i>
    <i name="e_0_energy">    -22.21687327 </i>
   </energy>
  </scstep>
  <scstep>
   <time name="dav">    0.12    0.12</time>
   <time name="total">    0.15    0.15</time>
   <energy>
    <i name="e_fr_energy">    -22.22624092 </i>
    <i name="e_wo_entrp">    -22.19891471 </i>
    <i name="e_0_energy">    -22.21713219 </i>
   </energy>
  </scstep>
  <scstep>
   <time name="dav">    0.13    0.13</time>
   <time name="total">    0.16    0.16</time>
   <energy>
    <i name="e_fr_energy">    -22.22622147 </i>
    <i name="e_wo_entrp">    -22.19842494 </i>
    <i name="e_0_energy">    -22.21695596 </i>
   </energy>
  </scstep>
  <scstep>
   <time name="dav">    0.09    0.09</time>
   <time name="total">    0.10    0.10</time>
   <energy>
    <i name="alphaZ">    294.32394985 </i>
    <i name="ewald">  -3641.45145672 </i>
    <i name="hartreedc">   -516.82178955 </i>
    <i name="XCdc">      4.57376258 </i>
    <i name="pawpsdc">   4528.01182359 </i>
    <i name="pawaedc">  -4519.11422289 </i>
    <i name="eentropy">     -0.02776055 </i>
    <i name="bandstr">    338.49277816 </i>
    <i name="atom">   3489.78669473 </i>
    <i name="e_fr_energy">    -22.22622081 </i>
    <i name="e_wo_entrp">    -22.19846026 </i>
    <i name="e_0_energy">    -22.21696729 </i>
   </energy>
  </scstep>
  <structure>
   <crystal>
    <varray name="basis" >
     <v>       3.63500000       0.00000000       0.00000000 </v>
     <v>       0.00000000       3.63500000       0.00000000 </v>
     <v>       0.00000000       0.00000000       3.63500000 </v>
    </varray>
    <i name="volume">     48.03007287 </i>
    <varray name="rec_basis" >
     <v>       0.27510316       0.00000000       0.00000000 </v>
     <v>       0.00000000       0.27510316       0.00000000 </v>
     <v>       0.00000000       0.00000000       0.27510316 </v>
    </varray>
   </crystal>
   <varray name="positions" >
    <v>       0.00000000       0.00000000       0.00000000 </v>
    <v>       0.50000000       0.50000000       0.00000000 </v>
    <v>       0.50000000       0.00000000       0.50000000 </v>
    <v>       0.00000000       0.50000000       0.50000000 </v>
   </varray>
  </structure>
  <varray name="forces" >
   <v>      -0.00000000       0.00000000      -0.00000000 </v>
   <v>       0.00000000      -0.00000000      -0.00000000 </v>
   <v>       0.00000000       0.00000000      -0.00000000 </v>
   <v>       0.00000000       0.00000000       0.00000000 </v>
  </varray>
  <varray name="stress" >
   <v>     571.34429859      -0.00000000       0.00000000 </v>
   <v>       0.00000000     631.25358131       0.00000000 </v>
   <v>       0.00000000       0.00000000     590.35630396 </v>
  </varray>
  <energy>
   <i name="e_fr_energy">    -22.22622081 </i>
   <i name="e_wo_entrp">    -22.19846026 </i>
   <i name="e_0_energy">    -22.21696729 </i>
  </energy>
  <time name="totalsc">    2.19    2.20</time>
  <eigenvalues>
   <array>
    <dimension dim="1">band</dimension>
    <dimension dim="2">kpoint</dimension>
    <dimension dim="3">spin</dimension>
    <field>eigene</field>
    <field>occ</field>
    <set>
     <set comment="spin 1">
      <set comment="kpoint 1">
       <r>    1.5664    1.0000 </r>
       <r>    3.8242    1.0000 </r>
       <r>    4.9982    1.0000 </r>
       <r>    5.1097    1.0000 </r>
       <r>    5.1222    1.0000 </r>
       <r>    5.2420    1.0000 </r>
       <r>    5.2686    1.0000 </r>
       <r>    8.4648    1.0000 </r>
       <r>    8.4918    1.0000 </r>
       <r>    8.5412    1.0000 </r>
       <r>   10.0378    1.0000 </r>
       <r>   10.2354    1.0000 </r>
       <r>   11.1744    1.0000 </r>
       <r>   11.5023    1.0000 </r>
       <r>   11.5933    1.0000 </r>
       <r>   12.4351   -0.0283 </r>
       <r>   12.8212   -0.0001 </r>
       <r>   13.0351   -0.0000 </r>
       <r>   13.3971   -0.0000 </r>
       <r>   14.0337   -0.0000 </r>
       <r>   14.4748   -0.0000 </r>
       <r>   14.5028   -0.0000 </r>
       <r>   14.5201   -0.0000 </r>
       <r>   14.8889   -0.0000 </r>
       <r>   23.3046    0.0000 </r>
       <r>   23.4380    0.0000 </r>
       <r>   24.1343    0.0000 </r>
       <r>   24.4398    0.0000 </r>
       <r>   24.7412    0.0000 </r>
       <r>   25.2730    0.0000 </r>
      </set>
      <set comment="kpoint 2">
       <r>    2.9721    1.0000 </r>
       <r>    4.8028    1.0000 </r>
       <r>    5.4797    1.0000 </r>
       <r>    5.6547    1.0000 </r>
       <r>    6.1230    1.0000 </r>
       <r>    6.2350    1.0000 </r>
       <r>    6.3279    1.0000 </r>
       <r>    7.7260    1.0000 </r>
       <r>    8.8200    1.0000 </r>
       <r>    9.0550    1.0000 </r>
       <r>    9.1583    1.0000 </r>
       <r>    9.3049    1.0000 </r>
       <r>    9.5063    1.0000 </r>
       <r>   10.1147    1.0000 </r>
       <r>   10.1797    1.0000 </r>
       <r>   10.6199    1.0000 </r>
       <r>   11.1307    1.0000 </r>
       <r>   11.4364    1.0000 </r>
       <r>   11.6395    1.0001 </r>
       <r>   11.9403    1.0302 </r>
       <r>   12.8770   -0.0000 </r>
       <r>   14.8859   -0.0000 </r>
       <r>   18.9039    0.0000 </r>
       <r>   18.9935    0.0000 </r>
       <r>   21.5490    0.0000 </r>
       <r>   23.1808    0.0000 </r>
       <r>   23.7646    0.0000 </r>
       <r>   23.8860    0.0000 </r>
       <r>   24.2539    0.0000 </r>
       <r>   26.8663    0.0000 </r>
      </set>
      <set comment="kpoint 3">
       <r>    3.1681    1.0000 </r>
       <r>    4.8349    1.0000 </r>
       <r>    5.3076    1.0000 </r>
       <r>    5.6143    1.0000 </r>
       <r>    6.1796    1.0000 </r>
       <r>    6.2219    1.0000 </r>
       <r>    6.4034    1.0000 </r>
       <r>    7.8630    1.0000 </r>
       <r>    9.0539    1.0000 </r>
       <r>    9.1079    1.0000 </r>
       <r>    9.2508    1.0000 </r>
       <r>    9.3246    1.0000 </r>
       <r>    9.4816    1.0000 </r>
       <r>   10.2182    1.0000 </r>
       <r>   10.3594    1.0000 </r>
       <r>   11.2134    1.0000 </r>
       <r>   11.2198    1.0000 </r>
       <r>   11.3307    1.0000 </r>
       <r>   11.5941    1.0000 </r>
       <r>   11.8255    1.0076 </r>
       <r>   12.2799    0.2895 </r>
       <r>   13.0100   -0.0000 </r>
       <r>   19.0488    0.0000 </r>
       <r>   19.0796    0.0000 </r>
       <r>   21.3305    0.0000 </r>
       <r>   23.5731    0.0000 </r>
       <r>   23.7828    0.0000 </r>
       <r>   23.8123    0.0000 </r>
       <r>   25.4293    0.0000 </r>
       <r>   25.6595    0.0000 </r>
      </set>
      <set comment="kpoint 4">
       <r>    3.1880    1.0000 </r>
       <r>    4.8655    1.0000 </r>
       <r>    5.5256    1.0000 </r>
       <r>    5.8866    1.0000 </r>
       <r>    6.0973    1.0000 </r>
       <r>    6.1511    1.0000 </r>
       <r>    6.2193    1.0000 </r>
       <r>    7.6339    1.0000 </r>
       <r>    8.8584    1.0000 </r>
       <r>    9.0108    1.0000 </r>
       <r>    9.2750    1.0000 </r>
       <r>    9.3136    1.0000 </r>
       <r>    9.4667    1.0000 </r>
       <r>   10.1943    1.0000 </r>
       <r>   10.3156    1.0000 </r>
       <r>   10.6692    1.0000 </r>
       <r>   11.2015    1.0000 </r>
       <r>   11.5122    1.0000 </r>
       <r>   11.5276    1.0000 </r>
       <r>   11.8767    1.0161 </r>
       <r>   12.3196    0.1550 </r>
       <r>   13.9933   -0.0000 </r>
       <r>   19.0097    0.0000 </r>
       <r>   19.1381    0.0000 </r>
       <r>   20.8492    0.0000 </r>
       <r>   23.6079    0.0000 </r>
       <r>   23.9695    0.0000 </r>
       <r>   24.2404    0.0000 </r>
       <r>   24.9806    0.0000 </r>
       <r>   26.0740    0.0000 </r>
      </set>
      <set comment="kpoint 5">
       <r>    4.3809    1.0000 </r>
       <r>    5.6969    1.0000 </r>
       <r>    6.3047    1.0000 </r>
       <r>    6.3221    1.0000 </r>
       <r>    6.5409    1.0000 </r>
       <r>    6.7891    1.0000 </r>
       <r>    6.8839    1.0000 </r>
       <r>    7.5138    1.0000 </r>
       <r>    7.8562    1.0000 </r>
       <r>    8.2217    1.0000 </r>
       <r>    8.5086    1.0000 </r>
       <r>    8.7319    1.0000 </r>
       <r>    9.3185    1.0000 </r>
       <r>    9.4901    1.0000 </r>
       <r>    9.9614    1.0000 </r>
       <r>   10.5847    1.0000 </r>
       <r>   10.5937    1.0000 </r>
       <r>   11.2642    1.0000 </r>
       <r>   11.5777    1.0000 </r>
       <r>   11.9869    1.0354 </r>
       <r>   12.1337    0.8550 </r>
       <r>   13.7892   -0.0000 </r>
       <r>   15.7392   -0.0000 </r>
       <r>   18.2381    0.0000 </r>
       <r>   21.9134    0.0000 </r>
       <r>   23.0914    0.0000 </r>
       <r>   25.5820    0.0000 </r>
       <r>   25.8427    0.0000 </r>
       <r>   26.2715    0.0000 </r>
       <r>   26.7976    0.0000 </r>
      </set>
      <set comment="kpoint 6">
       <r>    4.3241    1.0000 </r>
       <r>    5.7649    1.0000 </r>
       <r>    6.1461    1.0000 </r>
       <r>    6.2728    1.0000 </r>
       <r>    6.6124    1.0000 </r>
       <r>    6.8708    1.0000 </r>
       <r>    6.9593    1.0000 </r>
       <r>    7.4452    1.0000 </r>
       <r>    7.6290    1.0000 </r>
       <r>    8.3604    1.0000 </r>
       <r>    8.5005    1.0000 </r>
       <r>    8.7442    1.0000 </r>
       <r>    9.2939    1.0000 </r>
       <r>    9.4442    1.0000 </r>
       <r>   10.1789    1.0000 </r>
       <r>   10.4522    1.0000 </r>
       <r>   10.4679    1.0000 </r>
       <r>   11.1875    1.0000 </r>
       <r>   11.8281    1.0080 </r>
       <r>   11.8431    1.0101 </r>
       <r>   12.2087    0.5826 </r>
       <r>   13.7243   -0.0000 </r>
       <r>   16.4623   -0.0000 </r>
       <r>   18.2507    0.0000 </r>
       <r>   21.6775    0.0000 </r>
       <r>   23.0153    0.0000 </r>
       <r>   25.2081    0.0000 </r>
       <r>   25.6982    0.0000 </r>
       <r>   25.7491    0.0000 </r>
       <r>   27.0868    0.0000 </r>
      </set>
      <set comment="kpoint 7">
       <r>    4.3573    1.0000 </r>
       <r>    5.7539    1.0000 </r>
       <r>    6.2935    1.0000 </r>
       <r>    6.3727    1.0000 </r>
       <r>    6.4390    1.0000 </r>
       <r>    6.9718    1.0000 </r>
       <r>    7.0210    1.0000 </r>
       <r>    7.3007    1.0000 </r>
       <r>    7.4339    1.0000 </r>
       <r>    8.3230    1.0000 </r>
       <r>    8.6764    1.0000 </r>
       <r>    8.7673    1.0000 </r>
       <r>    9.3421    1.0000 </r>
       <r>    9.5071    1.0000 </r>
       <r>    9.8291    1.0000 </r>
       <r>   10.4588    1.0000 </r>
       <r>   10.8831    1.0000 </r>
       <r>   11.2311    1.0000 </r>
       <r>   11.5879    1.0000 </r>
       <r>   12.1108    0.9143 </r>
       <r>   12.1301    0.8653 </r>
       <r>   14.2713   -0.0000 </r>
       <r>   15.1072   -0.0000 </r>
       <r>   18.2587    0.0000 </r>
       <r>   21.8782    0.0000 </r>
       <r>   22.9008    0.0000 </r>
       <r>   25.4998    0.0000 </r>
       <r>   26.0165    0.0000 </r>
       <r>   26.4135    0.0000 </r>
       <r>   26.7132    0.0000 </r>
      </set>
      <set comment="kpoint 8">
       <r>    4.4279    1.0000 </r>
       <r>    4.9170    1.0000 </r>
       <r>    5.5335    1.0000 </r>
       <r>    5.8118    1.0000 </r>
       <r>    7.2619    1.0000 </r>
       <r>    7.5738    1.0000 </r>
       <r>    7.6869    1.0000 </r>
       <r>    8.5978    1.0000 </r>
       <r>    8.6860    1.0000 </r>
       <r>    8.7133    1.0000 </r>
       <r>    8.8453    1.0000 </r>
       <r>    8.9896    1.0000 </r>
       <r>    9.0451    1.0000 </r>
       <r>    9.1394    1.0000 </r>
       <r>    9.2166    1.0000 </r>
       <r>    9.3112    1.0000 </r>
       <r>   11.2440    1.0000 </r>
       <r>   11.4847    1.0000 </r>
       <r>   11.6267    1.0001 </r>
       <r>   12.2599    0.3685 </r>
       <r>   13.3452   -0.0000 </r>
       <r>   14.7885   -0.0000 </r>
       <r>   15.4013   -0.0000 </r>
       <r>   15.7861   -0.0000 </r>
       <r>   20.3157    0.0000 </r>
       <r>   20.4182    0.0000 </r>
       <r>   21.5791    0.0000 </r>
       <r>   24.5224    0.0000 </r>
       <r>   28.6997    0.0000 </r>
       <r>   28.9814    0.0000 </r>
      </set>
     </set>
    </set>
   </array>
  </eigenvalues>
  <separator name="orbital magnetization" >
   <v name="MAGDIPOLOUT">      0.00000000      0.00000000      0.00000000</v>
  </separator>
  <dos>
   <i name="efermi">     12.22833417 </i>
   <total>
    <array>
     <dimension dim="1">gridpoints</dimension>
     <dimension dim="2">spin</dimension>
     <field>energy</field>
     <field>total</field>
     <field>integrated</field>
     <set>
      <set comment="spin 1">
       <r>    -0.4336     0.0000     0.0000 </r>
       <r>    -0.3288     0.0000     0.0000 </r>
       <r>    -0.2241     0.0000     0.0000 </r>
       <r>    -0.1194    -0.0000    -0.0000 </r>
       <r>    -0.0147    -0.0000    -0.0000 </r>
       <r>     0.0900    -0.0000    -0.0000 </r>
       <r>     0.1947    -0.0000    -0.0000 </r>
       <r>     0.2995    -0.0000    -0.0000 </r>
       <r>     0.4042    -0.0000    -0.0000 </r>
       <r>     0.5089    -0.0000    -0.0000 </r>
       <r>     0.6136    -0.0000    -0.0000 </r>
       <r>     0.7183    -0.0000    -0.0000 </r>
       <r>     0.8230    -0.0000    -0.0000 </r>
       <r>     0.9278    -0.0000    -0.0000 </r>
       <r>     1.0325    -0.0003    -0.0000 </r>
       <r>     1.1372    -0.0031    -0.0004 </r>
       <r>     1.2419    -0.0121    -0.0016 </r>
       <r>     1.3466    -0.0075    -0.0024 </r>
       <r>     1.4513     0.0876     0.0068 </r>
       <r>     1.5561     0.2581     0.0338 </r>
       <r>     1.6608     0.2815     0.0633 </r>
       <r>     1.7655     0.1206     0.0759 </r>
       <r>     1.8702     0.0015     0.0761 </r>
       <r>     1.9749    -0.0140     0.0746 </r>
       <r>     2.0796    -0.0043     0.0741 </r>
       <r>     2.1844    -0.0006     0.0741 </r>
       <r>     2.2891    -0.0000     0.0741 </r>
       <r>     2.3938    -0.0002     0.0740 </r>
       <r>     2.4985    -0.0027     0.0738 </r>
       <r>     2.6032    -0.0157     0.0721 </r>
       <r>     2.7079    -0.0361     0.0683 </r>
       <r>     2.8127     0.0317     0.0717 </r>
       <r>     2.9174     0.3190     0.1051 </r>
       <r>     3.0221     0.7471     0.1833 </r>
       <r>     3.1268     1.1727     0.3061 </r>
       <r>     3.2315     1.2757     0.4397 </r>
       <r>     3.3362     0.7330     0.5164 </r>
       <r>     3.4410     0.1122     0.5282 </r>
       <r>     3.5457    -0.0777     0.5201 </r>
       <r>     3.6504    -0.0126     0.5187 </r>
       <r>     3.7551     0.1574     0.5352 </r>
       <r>     3.8598     0.2854     0.5651 </r>
       <r>     3.9645     0.1367     0.5794 </r>
       <r>     4.0692    -0.1877     0.5598 </r>
       <r>     4.1740     0.0729     0.5674 </r>
       <r>     4.2787     2.1692     0.7945 </r>
       <r>     4.3834     5.1066     1.3293 </r>
       <r>     4.4881     5.0627     1.8594 </r>
       <r>     4.5928     2.0377     2.0728 </r>
       <r>     4.6975     0.3710     2.1117 </r>
       <r>     4.8023     1.7721     2.2972 </r>
       <r>     4.9070     3.8119     2.6964 </r>
       <r>     5.0117     3.6173     3.0752 </r>
       <r>     5.1164     1.9391     3.2782 </r>
       <r>     5.2211     1.0718     3.3905 </r>
       <r>     5.3258     1.1580     3.5117 </r>
       <r>     5.4306     2.0404     3.7254 </r>
       <r>     5.5353     3.8641     4.1301 </r>
       <r>     5.6400     5.5932     4.7158 </r>
       <r>     5.7447     6.6432     5.4114 </r>
       <r>     5.8494     5.9659     6.0361 </r>
       <r>     5.9541     3.2222     6.3736 </r>
       <r>     6.0589     2.1740     6.6012 </r>
       <r>     6.1636     5.1518     7.1407 </r>
       <r>     6.2683     9.0215     8.0854 </r>
       <r>     6.3730     9.6178     9.0925 </r>
       <r>     6.4777     6.7481     9.7992 </r>
       <r>     6.5824     3.6467    10.1810 </r>
       <r>     6.6872     2.2127    10.4127 </r>
       <r>     6.7919     2.8142    10.7074 </r>
       <r>     6.8966     4.8220    11.2124 </r>
       <r>     7.0013     5.4183    11.7797 </r>
       <r>     7.1060     3.6485    12.1618 </r>
       <r>     7.2107     2.6725    12.4417 </r>
       <r>     7.3155     3.7130    12.8305 </r>
       <r>     7.4202     4.9435    13.3481 </r>
       <r>     7.5249     6.3610    14.0142 </r>
       <r>     7.6296     7.6351    14.8138 </r>
       <r>     7.7343     6.8350    15.5295 </r>
       <r>     7.8390     4.2819    15.9779 </r>
       <r>     7.9438     1.8957    16.1764 </r>
       <r>     8.0485     0.4642    16.2250 </r>
       <r>     8.1532     0.5233    16.2798 </r>
       <r>     8.2579     1.9074    16.4795 </r>
       <r>     8.3626     3.3324    16.8285 </r>
       <r>     8.4673     4.6284    17.3131 </r>
       <r>     8.5721     7.2129    18.0685 </r>
       <r>     8.6768    10.9563    19.2158 </r>
       <r>     8.7815    12.3115    20.5050 </r>
       <r>     8.8862     9.8379    21.5352 </r>
       <r>     8.9909     8.1182    22.3853 </r>
       <r>     9.0956     9.3756    23.3670 </r>
       <r>     9.2004    11.4482    24.5659 </r>
       <r>     9.3051    12.9237    25.9192 </r>
       <r>     9.4098    11.9487    27.1704 </r>
       <r>     9.5145     8.2127    28.0304 </r>
       <r>     9.6192     3.7464    28.4227 </r>
       <r>     9.7239     0.9553    28.5228 </r>
       <r>     9.8287     0.8781    28.6147 </r>
       <r>     9.9334     1.7717    28.8002 </r>
       <r>    10.0381     2.4425    29.0560 </r>
       <r>    10.1428     3.4330    29.4155 </r>
       <r>    10.2475     4.1964    29.8549 </r>
       <r>    10.3522     4.3027    30.3055 </r>
       <r>    10.4570     5.0727    30.8367 </r>
       <r>    10.5617     5.8138    31.4455 </r>
       <r>    10.6664     4.6375    31.9311 </r>
       <r>    10.7711     2.3606    32.1783 </r>
       <r>    10.8758     0.9833    32.2813 </r>
       <r>    10.9805     0.6584    32.3502 </r>
       <r>    11.0853     2.1597    32.5764 </r>
       <r>    11.1900     6.2241    33.2281 </r>
       <r>    11.2947     8.4524    34.1133 </r>
       <r>    11.3994     7.0503    34.8515 </r>
       <r>    11.5041     7.2787    35.6137 </r>
       <r>    11.6088     8.8191    36.5372 </r>
       <r>    11.7136     7.3085    37.3026 </r>
       <r>    11.8183     4.9137    37.8171 </r>
       <r>    11.9230     4.2548    38.2627 </r>
       <r>    12.0277     4.4572    38.7294 </r>
       <r>    12.1324     5.7503    39.3316 </r>
       <r>    12.2371     6.9564    40.0600 </r>
       <r>    12.3419     5.5251    40.6386 </r>
       <r>    12.4466     2.3582    40.8855 </r>
       <r>    12.5513     0.2686    40.9136 </r>
       <r>    12.6560    -0.1805    40.8947 </r>
       <r>    12.7607     0.2078    40.9165 </r>
       <r>    12.8654     0.8960    41.0103 </r>
       <r>    12.9702     1.3081    41.1473 </r>
       <r>    13.0749     1.0526    41.2575 </r>
       <r>    13.1796     0.7456    41.3356 </r>
       <r>    13.2843     1.5604    41.4990 </r>
       <r>    13.3890     2.5499    41.7660 </r>
       <r>    13.4937     1.8121    41.9558 </r>
       <r>    13.5984     0.7596    42.0353 </r>
       <r>    13.7032     1.3540    42.1771 </r>
       <r>    13.8079     2.2373    42.4114 </r>
       <r>    13.9126     1.8564    42.6058 </r>
       <r>    14.0173     1.1053    42.7215 </r>
       <r>    14.1220     0.8150    42.8069 </r>
       <r>    14.2267     0.9811    42.9096 </r>
       <r>    14.3315     1.2359    43.0390 </r>
       <r>    14.4362     1.1227    43.1566 </r>
       <r>    14.5409     0.8449    43.2451 </r>
       <r>    14.6456     0.9219    43.3416 </r>
       <r>    14.7503     1.9881    43.5498 </r>
       <r>    14.8550     2.9728    43.8611 </r>
       <r>    14.9598     2.3693    44.1092 </r>
       <r>    15.0645     1.3833    44.2541 </r>
       <r>    15.1692     1.0378    44.3627 </r>
       <r>    15.2739     1.1558    44.4838 </r>
       <r>    15.3786     1.9319    44.6861 </r>
       <r>    15.4833     2.0961    44.9055 </r>
       <r>    15.5881     1.2823    45.0398 </r>
       <r>    15.6928     1.8579    45.2344 </r>
       <r>    15.7975     3.3462    45.5848 </r>
       <r>    15.9022     2.7427    45.8720 </r>
       <r>    16.0069     0.7884    45.9546 </r>
       <r>    16.1116    -0.1617    45.9376 </r>
       <r>    16.2164    -0.1797    45.9188 </r>
       <r>    16.3211     0.1787    45.9375 </r>
       <r>    16.4258     0.8747    46.0291 </r>
       <r>    16.5305     1.1954    46.1543 </r>
       <r>    16.6352     0.6621    46.2236 </r>
       <r>    16.7399     0.0777    46.2318 </r>
       <r>    16.8447    -0.0613    46.2253 </r>
       <r>    16.9494    -0.0254    46.2227 </r>
       <r>    17.0541    -0.0040    46.2223 </r>
       <r>    17.1588    -0.0003    46.2222 </r>
       <r>    17.2635    -0.0000    46.2222 </r>
       <r>    17.3682    -0.0000    46.2222 </r>
       <r>    17.4730    -0.0000    46.2222 </r>
       <r>    17.5777    -0.0001    46.2222 </r>
       <r>    17.6824    -0.0019    46.2220 </r>
       <r>    17.7871    -0.0203    46.2199 </r>
       <r>    17.8918    -0.1050    46.2089 </r>
       <r>    17.9965    -0.1698    46.1911 </r>
       <r>    18.1013     0.5339    46.2470 </r>
       <r>    18.2060     2.4991    46.5087 </r>
       <r>    18.3107     3.5999    46.8857 </r>
       <r>    18.4154     2.1232    47.1080 </r>
       <r>    18.5201     0.2901    47.1384 </r>
       <r>    18.6248    -0.2521    47.1120 </r>
       <r>    18.7296    -0.1611    47.0951 </r>
       <r>    18.8343     0.3444    47.1312 </r>
       <r>    18.9390     1.5958    47.2983 </r>
       <r>    19.0437     2.8541    47.5972 </r>
       <r>    19.1484     2.6609    47.8758 </r>
       <r>    19.2531     1.2254    48.0041 </r>
       <r>    19.3579     0.1356    48.0183 </r>
       <r>    19.4626    -0.1121    48.0066 </r>
       <r>    19.5673    -0.0521    48.0011 </r>
       <r>    19.6720    -0.0099    48.0001 </r>
       <r>    19.7767    -0.0036    47.9997 </r>
       <r>    19.8814    -0.0251    47.9971 </r>
       <r>    19.9862    -0.1164    47.9849 </r>
       <r>    20.0909    -0.1674    47.9674 </r>
       <r>    20.1956     0.5749    48.0276 </r>
       <r>    20.3003     2.6787    48.3081 </r>
       <r>    20.4050     4.3187    48.7603 </r>
       <r>    20.5097     3.2832    49.1041 </r>
       <r>    20.6145     1.0134    49.2102 </r>
       <r>    20.7192     0.0419    49.2146 </r>
       <r>    20.8239     0.3215    49.2483 </r>
       <r>    20.9286     0.5357    49.3044 </r>
       <r>    21.0333     0.2544    49.3310 </r>
       <r>    21.1380     0.0025    49.3313 </r>
       <r>    21.2428     0.1070    49.3425 </r>
       <r>    21.3475     0.4289    49.3874 </r>
       <r>    21.4522     1.2380    49.5170 </r>
       <r>    21.5569     2.8803    49.8187 </r>
       <r>    21.6616     3.7534    50.2117 </r>
       <r>    21.7663     2.9807    50.5238 </r>
       <r>    21.8711     2.4588    50.7813 </r>
       <r>    21.9758     2.1908    51.0107 </r>
       <r>    22.0805     1.0579    51.1215 </r>
       <r>    22.1852     0.0717    51.1290 </r>
       <r>    22.2899    -0.1197    51.1165 </r>
       <r>    22.3946    -0.0469    51.1115 </r>
       <r>    22.4994    -0.0284    51.1086 </r>
       <r>    22.6041    -0.0794    51.1003 </r>
       <r>    22.7088    -0.0611    51.0939 </r>
       <r>    22.8135     0.4524    51.1412 </r>
       <r>    22.9182     1.6546    51.3145 </r>
       <r>    23.0229     2.8164    51.6094 </r>
       <r>    23.1277     2.9297    51.9162 </r>
       <r>    23.2324     1.9326    52.1186 </r>
       <r>    23.3371     0.8650    52.2092 </r>
       <r>    23.4418     0.5706    52.2689 </r>
       <r>    23.5465     0.9707    52.3706 </r>
       <r>    23.6512     1.5689    52.5349 </r>
       <r>    23.7559     2.1682    52.7619 </r>
       <r>    23.8607     2.4760    53.0212 </r>
       <r>    23.9654     1.9475    53.2251 </r>
       <r>    24.0701     1.1295    53.3434 </r>
       <r>    24.1748     0.9896    53.4470 </r>
       <r>    24.2795     1.2544    53.5784 </r>
       <r>    24.3842     1.5323    53.7388 </r>
       <r>    24.4890     2.2872    53.9783 </r>
       <r>    24.5937     2.5506    54.2454 </r>
       <r>    24.6984     1.4528    54.3976 </r>
       <r>    24.8031     0.4240    54.4420 </r>
       <r>    24.9078     0.2939    54.4727 </r>
       <r>    25.0125     0.5553    54.5309 </r>
       <r>    25.1173     0.9123    54.6264 </r>
       <r>    25.2220     1.3294    54.7656 </r>
       <r>    25.3267     1.4537    54.9179 </r>
       <r>    25.4314     1.7231    55.0983 </r>
       <r>    25.5361     2.7299    55.3842 </r>
       <r>    25.6408     3.8123    55.7834 </r>
       <r>    25.7456     4.1346    56.2163 </r>
       <r>    25.8503     3.3864    56.5710 </r>
       <r>    25.9550     2.3626    56.8184 </r>
       <r>    26.0597     1.8896    57.0162 </r>
       <r>    26.1644     1.6184    57.1857 </r>
       <r>    26.2691     1.6111    57.3544 </r>
       <r>    26.3739     1.8277    57.5458 </r>
       <r>    26.4786     1.4550    57.6982 </r>
       <r>    26.5833     0.8688    57.7892 </r>
       <r>    26.6880     1.3758    57.9332 </r>
       <r>    26.7927     2.4094    58.1855 </r>
       <r>    26.8974     2.2814    58.4244 </r>
       <r>    27.0022     1.4889    58.5803 </r>
       <r>    27.1069     1.2109    58.7071 </r>
       <r>    27.2116     0.8775    58.7990 </r>
       <r>    27.3163     0.2552    58.8258 </r>
       <r>    27.4210    -0.0478    58.8207 </r>
       <r>    27.5257    -0.0452    58.8160 </r>
       <r>    27.6305    -0.0103    58.8149 </r>
       <r>    27.7352    -0.0011    58.8148 </r>
       <r>    27.8399    -0.0001    58.8148 </r>
       <r>    27.9446    -0.0000    58.8148 </r>
       <r>    28.0493    -0.0001    58.8148 </r>
       <r>    28.1540    -0.0021    58.8146 </r>
       <r>    28.2588    -0.0199    58.8125 </r>
       <r>    28.3635    -0.0878    58.8033 </r>
       <r>    28.4682    -0.0913    58.7937 </r>
       <r>    28.5729     0.5313    58.8494 </r>
       <r>    28.6776     1.8222    59.0402 </r>
       <r>    28.7823     2.3415    59.2854 </r>
       <r>    28.8871     2.0884    59.5041 </r>
       <r>    28.9918     2.3211    59.7471 </r>
       <r>    29.0965     1.9460    59.9509 </r>
       <r>    29.2012     0.6596    60.0200 </r>
       <r>    29.3059    -0.0657    60.0131 </r>
       <r>    29.4106    -0.0976    60.0029 </r>
       <r>    29.5154    -0.0245    60.0003 </r>
       <r>    29.6201    -0.0028    60.0000 </r>
       <r>    29.7248    -0.0002    60.0000 </r>
       <r>    29.8295    -0.0000    60.0000 </r>
       <r>    29.9342    -0.0000    60.0000 </r>
       <r>    30.0389    -0.0000    60.0000 </r>
       <r>    30.1437    -0.0000    60.0000 </r>
       <r>    30.2484    -0.0000    60.0000 </r>
       <r>    30.3531     0.0000    60.0000 </r>
       <r>    30.4578     0.0000    60.0000 </r>
       <r>    30.5625     0.0000    60.0000 </r>
       <r>    30.6672     0.0000    60.0000 </r>
       <r>    30.7720     0.0000    60.0000 </r>
       <r>    30.8767     0.0000    60.0000 </r>
       <r>    30.9814     0.0000    60.0000 </r>
      </set>
     </set>
    </array>
   </total>
  </dos>
 </calculation>
 <structure name="finalpos" >
  <crystal>
   <varray name="basis" >
    <v>       3.63500000       0.00000000       0.00000000 </v>
    <v>       0.00000000       3.63500000       0.00000000 </v>
    <v>       0.00000000       0.00000000       3.63500000 </v>
   </varray>
   <i name="volume">     48.03007287 </i>
   <varray name="rec_basis" >
    <v>       0.27510316       0.00000000       0.00000000 </v>
    <v>       0.00000000       0.27510316       0.00000000 </v>
    <v>       0.00000000       0.00000000       0.27510316 </v>
   </varray>
  </crystal>
  <varray name="positions" >
   <v>       0.00000000       0.00000000       0.00000000 </v>
   <v>       0.50000000       0.50000000       0.00000000 </v>
   <v>       0.50000000       0.00000000       0.50000000 </v>
   <v>       0.00000000       0.50000000       0.50000000 </v>
  </varray>
 </structure>
</modeling>
