unknown system                          
   1.00000000000000     
     2.330000    0.000000    0.000000
    -1.165000    2.017839    0.000000
     0.000000    0.000000    4.100000
   Fe
     2
Direct
  0.000000  0.000000  0.000000
  0.333333  0.666667  0.500000
 
   20   20   32
  161.89      153.40      130.56      99.861      68.629      42.454      24.180      13.993      9.9271      8.7428    
  8.3639      8.7427      9.9269      13.992      24.180      42.454      68.629      99.861      130.56      153.40    
  153.40      153.40      137.77      111.18      80.617      52.523      31.025      17.555      11.149      9.0862    
  8.3721      8.3718      9.0859      11.149      17.554      31.023      52.522      80.620      111.19      137.78    
  130.57      137.75      130.56      111.18      85.052      58.430      36.197      20.885      12.603      9.4426    
  8.4211      8.0669      8.4207      9.4427      12.604      20.884      36.194      58.428      85.056      111.19    
  99.857      111.12      111.12      99.861      80.616      58.430      38.124      22.899      13.803      9.8194    
  8.4895      7.8625      7.8623      8.4894      9.8204      13.805      22.899      38.121      58.425      80.611    
  68.617      80.531      84.939      80.540      68.629      52.523      36.197      22.899      14.269      10.075    
  8.5478      7.7540      7.4758      7.7538      8.5478      10.077      14.272      22.903      36.198      52.516    
  42.453      52.454      58.310      58.313      52.459      42.454      31.025      20.885      13.803      10.075    
  8.5706      7.7122      7.2632      7.2633      7.7117      8.5692      10.075      13.807      20.892      31.030    
  24.188      31.005      36.132      38.036      36.129      30.998      24.180      17.555      12.603      9.8196    
  8.5478      7.7122      7.1972      7.0285      7.1977      7.7110      8.5442      9.8159      12.604      17.560    
  13.992      17.569      20.891      22.887      22.883      20.883      17.564      13.993      11.149      9.4428    
  8.4895      7.7539      7.2630      7.0285      7.0293      7.2646      7.7537      8.4857      9.4361      11.143    
  9.9183      11.170      12.645      13.851      14.315      13.849      12.645      11.176      9.9272      9.0862    
  8.4211      7.8624      7.4755      7.2631      7.1977      7.2646      7.4789      7.8660      8.4211      9.0804    
  8.7424      9.1109      9.4922      9.8889      10.155      10.157      9.8933      9.4989      9.1164      8.7427    
  8.3720      8.0667      7.8621      7.7537      7.7117      7.7110      7.7537      7.8660      8.0739      8.3776    
  8.3720      8.4089      8.4806      8.5673      8.6397      8.6693      8.6430      8.5706      8.4798      8.4029    
  8.3637      8.3717      8.4206      8.4894      8.5478      8.5692      8.5442      8.4857      8.4211      8.3776    
  8.7426      8.4089      8.1347      7.9524      7.8596      7.8276      7.8281      7.8593      7.9482      8.1272    
  8.4032      8.7427      9.0860      9.4429      9.8205      10.077      10.075      9.8159      9.4360      9.0804    
  9.9185      9.1111      8.4807      7.9524      7.5890      7.3919      7.3314      7.3904      7.5854      7.9484    
  8.4803      9.1167      9.9272      11.149      12.604      13.805      14.272      13.807      12.603      11.143    
  13.992      11.170      9.4924      8.5672      7.8594      7.3918      7.1698      7.1690      7.3903      7.8594    
  8.5707      9.4988      11.176      13.993      17.554      20.884      22.899      22.903      20.892      17.560    
  24.188      17.570      12.645      9.8887      8.6393      7.8272      7.3313      7.1691      7.3310      7.8286    
  8.6430      9.8924      12.645      17.564      24.180      31.023      36.194      38.121      36.197      31.030    
  42.453      31.005      20.891      13.851      10.155      8.6688      7.8279      7.3905      7.3906      7.8287    
  8.6707      10.156      13.848      20.884      31.000      42.454      52.522      58.428      58.425      52.516    
  68.617      52.454      36.132      22.887      14.315      10.156      8.6428      7.8595      7.5859      7.8598    
  8.6432      10.156      14.312      22.884      36.132      52.460      68.629      80.620      85.056      80.611    
  99.857      80.531      58.310      38.036      22.883      13.849      9.8930      8.5707      7.9487      7.9490    
  8.5710      9.8923      13.847      22.883      38.039      58.315      80.536      99.861      111.19      111.19    
  130.57      111.12      84.940      58.313      36.129      20.883      12.645      9.4989      8.4802      8.1278    
  8.4806      9.4986      12.644      20.884      36.132      58.315      84.936      111.11      130.56      137.78    
  153.40      137.75      111.12      80.540      52.459      30.998      17.563      11.176      9.1165      8.4033    
  8.4034      9.1166      11.175      17.564      31.000      52.460      80.536      111.11      137.74      153.40    
  151.60      143.68      122.33      93.583      64.301      39.780      22.745      13.360      9.6845      8.5765    
  8.2085      8.5764      9.6844      13.360      22.744      39.780      64.301      93.583      122.33      143.68    
  143.68      143.68      129.07      104.18      75.533      49.192      29.094      16.607      10.766      8.8990    
  8.2048      8.2046      8.8988      10.766      16.606      29.092      49.190      75.536      104.19      129.08    
  122.34      129.06      122.33      104.18      79.689      54.719      33.906      19.664      12.065      9.2161    
  8.2459      7.9036      8.2455      9.2163      12.065      19.663      33.903      54.717      79.692      104.19    
  93.580      104.14      104.14      93.583      75.533      54.719      35.701      21.520      13.145      9.5434    
  8.3092      7.7045      7.7043      8.3091      9.5443      13.146      21.520      35.698      54.714      75.527    
  64.290      75.471      79.608      75.480      64.301      49.191      33.906      21.520      13.566      9.7659    
  8.3646      7.5999      7.3338      7.5998      8.3647      9.7671      13.568      21.523      33.906      49.185    
  39.778      49.152      54.647      54.649      49.157      39.779      29.093      19.664      13.145      9.7660    
  8.3865      7.5599      7.1316      7.1317      7.5596      8.3852      9.7658      13.149      19.671      29.098    
  22.752      29.104      33.896      35.678      33.893      29.098      22.744      16.607      12.065      9.5435    
  8.3647      7.5599      7.0692      6.9092      7.0696      7.5589      8.3613      9.5403      12.065      16.612    
  13.360      16.651      19.726      21.580      21.577      19.719      16.646      13.360      10.766      9.2163    
  8.3093      7.5998      7.1316      6.9092      6.9099      7.1329      7.5996      8.3058      9.2102      10.761    
  9.6764      10.816      12.162      13.268      13.694      13.266      12.162      10.821      9.6845      8.8991    
  8.2459      7.7045      7.3337      7.1317      7.0697      7.1329      7.3367      7.7078      8.2459      8.8937    
  8.5761      8.9521      9.3204      9.6884      9.9333      9.9345      9.6924      9.3266      8.9573      8.5765    
  8.2048      7.9036      7.7042      7.5997      7.5596      7.5589      7.5996      7.7077      7.9102      8.2099    
  8.2160      8.2688      8.3591      8.4634      8.5483      8.5824      8.5515      8.4666      8.3586      8.2635    
  8.2084      8.2046      8.2455      8.3091      8.3647      8.3853      8.3613      8.3056      8.2459      8.2099    
  8.5762      8.2689      8.0246      7.8707      7.7997      7.7794      7.7799      7.7996      7.8670      8.0179    
  8.2637      8.5765      8.8989      9.2164      9.5444      9.7671      9.7657      9.5401      9.2100      8.8937    
  9.6765      8.9523      8.3593      7.8707      7.5418      7.3676      7.3151      7.3663      7.5387      7.8672    
  8.3590      8.9575      9.6846      10.766      12.065      13.146      13.568      13.148      12.065      10.761    
  13.360      10.816      9.3206      8.4634      7.7995      7.3675      7.1648      7.1640      7.3662      7.7997    
  8.4667      9.3265      10.821      13.360      16.606      19.663      21.520      21.523      19.671      16.612    
  22.752      16.652      12.162      9.6883      8.5480      7.7791      7.3150      7.1641      7.3146      7.7803    
  8.5515      9.6916      12.162      16.646      22.744      29.091      33.903      35.698      33.906      29.098    
  39.778      29.104      19.726      13.268      9.9330      8.5820      7.7797      7.3663      7.3663      7.7804    
  8.5836      9.9336      13.264      19.720      29.100      39.780      49.190      54.717      54.714      49.185    
  64.290      49.152      33.896      21.580      13.694      9.9342      8.5513      7.7997      7.5390      7.7999    
  8.5515      9.9335      13.691      21.577      33.896      49.158      64.301      75.536      79.692      75.528    
  93.580      75.471      54.646      35.678      21.576      13.265      9.6923      8.4667      7.8673      7.8675    
  8.4668      9.6915      13.264      21.577      35.681      54.651      75.476      93.583      104.19      104.19    
  122.34      104.14      79.608      54.649      33.893      19.719      12.162      9.3267      8.3588      8.0181    
  8.3591      9.3263      12.162      19.720      33.896      54.651      79.605      104.13      122.33      129.08    
  143.68      129.06      104.14      75.480      49.157      29.098      16.646      10.822      8.9574      8.2636    
  8.2638      8.9574      10.821      16.646      29.100      49.159      75.476      104.13      129.04      143.68    
  124.47      118.01      100.54      76.934      52.831      32.743      19.037      11.774      9.0754      8.1299    
  7.7951      8.1299      9.0754      11.774      19.037      32.743      52.831      76.934      100.54      118.01    
  118.01      118.01      106.06      85.631      62.045      40.388      24.054      14.195      9.8164      8.3964    
  7.7612      7.7611      8.3964      9.8168      14.195      24.052      40.386      62.047      85.638      106.07    
  100.55      106.06      100.54      85.631      65.455      44.895      27.897      16.526      10.720      8.6351    
  7.7776      7.4711      7.7774      8.6355      10.721      16.525      27.894      44.892      65.457      85.637    
  76.931      85.632      85.633      76.934      62.045      44.895      29.337      17.957      11.489      8.8477    
  7.8222      7.2830      7.2829      7.8222      8.8486      11.490      17.957      29.334      44.890      62.040    
  52.822      62.054      65.471      62.061      52.831      40.387      27.897      17.957      11.792      8.9893    
  7.8655      7.1853      6.9535      7.1853      7.8657      8.9902      11.794      17.959      27.897      40.382    
  32.742      40.433      44.959      44.961      40.437      32.742      24.053      16.525      11.489      8.9894    
  7.8832      7.1481      6.7770      6.7772      7.1480      7.8823      8.9893      11.492      16.531      24.057    
  19.043      24.149      28.040      29.493      28.037      24.143      19.036      14.194      10.720      8.8478    
  7.8657      7.1482      6.7231      6.5864      6.7235      7.1474      7.8631      8.8455      10.721      14.199    
  11.774      14.318      16.736      18.209      18.206      16.730      14.313      11.774      9.8163      8.6353    
  7.8224      7.1855      6.7771      6.5864      6.5869      6.7779      7.1851      7.8196      8.6307      9.8126    
  9.0689      9.9394      10.957      11.800      12.127      11.798      10.957      9.9435      9.0753      8.3967    
  7.7780      7.2833      6.9536      6.7773      6.7236      6.7779      6.9555      7.2856      7.7779      8.3924    
  8.1296      8.5175      8.8705      9.1739      9.3658      9.3667      9.1770      8.8754      8.5218      8.1301    
  7.7617      7.4714      7.2831      7.1854      7.1481      7.1474      7.1850      7.2855      7.4763      7.7655    
  7.8011      7.8889      8.0157      8.1521      8.2587      8.3001      8.2613      8.1548      8.0156      7.8850    
  7.7955      7.7614      7.7775      7.8222      7.8657      7.8823      7.8629      7.8194      7.7776      7.7654    
  8.1297      7.8890      7.7136      7.6199      7.5920      7.5936      7.5942      7.5923      7.6174      7.7087    
  7.8853      8.1302      8.3965      8.6353      8.8484      8.9901      8.9891      8.8452      8.6303      8.3922    
  9.0689      8.5178      8.0160      7.6200      7.3665      7.2397      7.2034      7.2391      7.3645      7.6176    
  8.0161      8.5221      9.0753      9.8165      10.721      11.490      11.794      11.492      10.721      9.8123    
  11.774      9.9397      8.8709      8.1524      7.5920      7.2396      7.0788      7.0783      7.2389      7.5923    
  8.1550      8.8754      9.9433      11.774      14.194      16.525      17.957      17.959      16.531      14.199    
  19.043      14.318      10.957      9.1741      8.2587      7.5935      7.2032      7.0783      7.2029      7.5943    
  8.2613      9.1764      10.956      14.313      19.036      24.052      27.894      29.334      27.897      24.057    
  32.742      24.149      16.736      11.800      9.3658      8.3000      7.5941      7.2389      7.2388      7.5943    
  8.3011      9.3661      11.797      16.731      24.144      32.742      40.386      44.893      44.891      40.383    
  52.822      40.433      28.040      18.209      12.127      9.3667      8.2612      7.5922      7.3644      7.5922    
  8.2612      9.3660      12.125      18.206      28.040      40.438      52.831      62.048      65.458      62.041    
  76.931      62.053      44.958      29.492      18.206      11.798      9.1771      8.1548      7.6173      7.6174    
  8.1548      9.1763      11.797      18.206      29.495      44.963      62.058      76.934      85.639      85.637    
  100.55      85.631      65.470      44.960      28.037      16.730      10.957      8.8756      8.0155      7.7084    
  8.0157      8.8752      10.956      16.731      28.040      44.963      65.468      85.625      100.54      106.07    
  118.01      106.06      85.632      62.060      40.437      24.144      14.313      9.9439      8.5218      7.8848    
  7.8849      8.5218      9.9434      14.313      24.145      40.438      62.058      85.625      106.05      118.01    
  89.502      84.875      72.340      55.345      38.037      23.841      14.537      9.9638      8.3297      7.5338    
  7.2537      7.5339      8.3297      9.9638      14.537      23.841      38.037      55.345      72.340      84.875    
  84.878      84.875      76.292      61.576      44.584      29.130      17.803      11.361      8.7342      7.7160    
  7.1813      7.1813      7.7161      8.7348      11.361      17.802      29.129      44.585      61.580      76.297    
  72.344      76.318      72.341      61.577      47.014      32.277      20.360      12.762      9.1885      7.8809    
  7.1568      6.9062      7.1567      7.8813      9.1893      12.761      20.357      32.274      47.014      61.580    
  55.343      61.641      61.642      55.346      44.585      32.276      21.326      13.642      9.5832      7.9991    
  7.1643      6.7261      6.7261      7.1644      7.9998      9.5839      13.641      21.324      32.272      44.581    
  38.031      44.695      47.169      44.700      38.037      29.130      20.359      13.642      9.7416      8.0628    
  7.1815      6.6293      6.4465      6.6295      7.1817      8.0634      9.7429      13.643      20.359      29.126    
  23.840      29.293      32.532      32.534      29.296      23.840      17.802      12.761      9.5829      8.0628    
  7.1897      6.5904      6.2990      6.2993      6.5906      7.1893      8.0629      9.5852      12.765      17.805    
  14.541      18.010      20.707      21.723      20.705      18.006      14.536      11.360      9.1881      7.9992    
  7.1817      6.5906      6.2544      6.1484      6.2547      6.5902      7.1801      7.9980      9.1893      11.364    
  9.9635      11.582      13.162      14.140      14.138      13.157      11.578      9.9627      8.7338      7.8810    
  7.1647      6.6297      6.2993      6.1485      6.1487      6.2995      6.6292      7.1629      7.8783      8.7318    
  8.3252      8.9435      9.5920      10.121      10.327      10.120      9.5916      8.9460      8.3294      7.7163    
  7.1575      6.7267      6.4469      6.2996      6.2549      6.2996      6.4476      6.7279      7.1572      7.7134    
  7.5337      7.9141      8.2655      8.5313      8.6769      8.6774      8.5332      8.2687      7.9171      7.5343    
  7.1821      6.9069      6.7265      6.6297      6.5908      6.5902      6.6290      6.7277      6.9098      7.1842    
  7.2578      7.3783      7.5301      7.6826      7.7972      7.8406      7.7990      7.6846      7.5304      7.3762    
  7.2545      7.1819      7.1570      7.1644      7.1817      7.1892      7.1799      7.1625      7.1568      7.1841    
  7.5337      7.3785      7.2776      7.2387      7.2434      7.2591      7.2597      7.2441      7.2376      7.2749    
  7.3764      7.5344      7.7161      7.8810      7.9994      8.0631      8.0626      7.9975      7.8777      7.7130    
  8.3252      7.9144      7.5305      7.2388      7.0603      6.9758      6.9529      6.9758      7.0596      7.2377    
  7.5308      7.9173      8.3294      8.7341      9.1885      9.5835      9.7428      9.5850      9.1890      8.7315    
  9.9635      8.9438      8.2660      7.6831      7.2435      6.9758      6.8564      6.8562      6.9756      7.2440    
  7.6848      8.2687      8.9458      9.9627      11.360      12.761      13.641      13.643      12.765      11.364    
  14.541      11.582      9.5924      8.5318      7.7975      7.2591      6.9528      6.8561      6.9525      7.2595    
  7.7990      8.5329      9.5911      11.578      14.536      17.801      20.357      21.324      20.360      17.806    
  23.840      18.009      13.162      10.122      8.6772      7.8407      7.2595      6.9756      6.9753      7.2594    
  7.8411      8.6772      10.119      13.157      18.006      23.840      29.129      32.275      32.274      29.127    
  38.031      29.293      20.706      14.140      10.327      8.6777      7.7990      7.2438      7.0592      7.2435    
  7.7988      8.6772      10.326      14.138      20.707      29.296      38.037      44.586      47.016      44.582    
  55.343      44.694      32.531      21.723      14.138      10.120      8.5336      7.6846      7.2371      7.2371    
  7.6843      8.5328      10.120      14.139      21.725      32.535      44.698      55.346      61.582      61.581    
  72.344      61.640      47.167      32.533      20.705      13.158      9.5924      8.2691      7.5301      7.2742    
  7.5301      8.2685      9.5915      13.158      20.707      32.535      47.167      61.637      72.341      76.298    
  84.878      76.318      61.641      44.699      29.295      18.006      11.579      8.9468      7.9171      7.3755    
  7.3756      7.9170      8.9462      11.579      18.007      29.297      44.698      61.637      76.312      84.875    
  56.268      53.368      45.513      34.908      24.280      15.899      10.813      8.5611      7.5619      6.9356    
  6.7245      6.9357      7.5620      8.5610      10.813      15.899      24.280      34.908      45.513      53.368    
  53.370      53.369      47.972      38.742      28.197      18.873      12.434      9.1244      7.8008      7.0161    
  6.6110      6.6110      7.0162      7.8014      9.1249      12.434      18.872      28.196      38.743      47.974    
  45.515      48.022      45.514      38.742      29.661      20.677      13.755      9.7092      7.9716      7.0895    
  6.5356      6.3516      6.5356      7.0899      7.9724      9.7091      13.753      20.675      29.660      38.743    
  34.907      38.869      38.870      34.909      28.197      20.677      14.263      10.090      8.0913      7.1402    
  6.4927      6.1720      6.1720      6.4928      7.1407      8.0916      10.090      14.261      20.674      28.194    
  24.277      28.404      29.949      28.407      24.280      18.873      13.754      10.090      8.1379      7.1645    
  6.4726      6.0665      5.9365      6.0668      6.4729      7.1648      8.1384      10.091      13.754      18.871    
  15.899      19.146      21.113      21.113      19.147      15.898      12.433      9.7083      8.0910      7.1645    
  6.4670      6.0197      5.8111      5.8114      6.0201      6.4670      7.1647      8.0924      9.7110      12.436    
  10.815      12.743      14.290      14.881      14.288      12.740      10.812      9.1232      7.9711      7.1403    
  6.4728      6.0199      5.7728      5.6965      5.7730      6.0198      6.4722      7.1400      7.9724      9.1262    
  8.5608      9.4331      10.280      10.812      10.811      10.278      9.4307      8.5599      7.8003      7.0897    
  6.4932      6.0670      5.8114      5.6966      5.6966      5.8113      6.0665      6.4922      7.0885      7.7997    
  7.5594      8.0893      8.5277      8.8371      8.9519      8.8360      8.5272      8.0905      7.5616      7.0164    
  6.5363      6.1727      5.9370      5.8117      5.7732      5.8113      5.9368      6.1729      6.5360      7.0148    
  6.9355      7.2863      7.6140      7.8659      8.0020      8.0021      7.8666      7.6156      7.2880      6.9362    
  6.6119      6.3523      6.1726      6.0671      6.0203      6.0198      6.0663      6.1727      6.3535      6.6126    
  6.7267      6.8737      7.0377      7.1916      7.3029      7.3439      7.3038      7.1927      7.0380      6.8730    
  6.7254      6.6117      6.5359      6.4929      6.4728      6.4669      6.4719      6.4918      6.5356      6.6125    
  6.9355      6.8739      6.8468      6.8558      6.8853      6.9101      6.9106      6.8861      6.8557      6.8457    
  6.8731      6.9362      7.0162      7.0896      7.1403      7.1645      7.1643      7.1395      7.0879      7.0144    
  7.5594      7.2866      7.0381      6.8560      6.7507      6.7051      6.6941      6.7056      6.7509      6.8558    
  7.0384      7.2882      7.5616      7.8006      7.9715      8.0911      8.1382      8.0922      7.9720      7.7994    
  8.5608      8.0896      7.6146      7.1921      6.8855      6.7051      6.6270      6.6271      6.7053      6.8860    
  7.1930      7.6157      8.0902      8.5599      9.1237      9.7084      10.090      10.091      9.7112      9.1261    
  10.815      9.4332      8.5281      7.8664      7.3032      6.9101      6.6939      6.6270      6.6937      6.9102    
  7.3038      7.8667      8.5268      9.4303      10.812      12.433      13.753      14.262      13.755      12.436    
  15.899      12.742      10.280      8.8372      8.0023      7.3440      6.9104      6.7053      6.7050      6.9100    
  7.3441      8.0022      8.8359      10.277      12.740      15.898      18.873      20.676      20.676      18.872    
  24.277      19.146      14.289      10.811      8.9520      8.0024      7.3038      6.8858      6.7504      6.8855    
  7.3035      8.0022      8.9516      10.811      14.289      19.147      24.280      28.198      29.662      28.195    
  34.907      28.403      21.111      14.881      10.811      8.8365      7.8671      7.1927      6.8552      6.8552    
  7.1925      7.8666      8.8362      10.811      14.882      21.114      28.406      34.909      38.745      38.744    
  45.515      38.868      29.947      21.112      14.288      10.278      8.5281      7.6160      7.0377      6.8449    
  7.0377      7.6155      8.5273      10.278      14.290      21.114      29.948      38.867      45.514      47.975    
  53.370      48.021      38.868      28.405      19.147      12.741      9.4320      8.0913      7.2880      6.8723    
  6.8723      7.2879      8.0907      9.4314      12.741      19.148      28.406      38.867      48.019      53.369    
  31.146      29.595      25.428      19.911      14.610      10.741      8.6373      7.6089      6.8788      6.4429    
  6.3018      6.4428      6.8787      7.6088      8.6372      10.741      14.610      19.911      25.428      29.595    
  29.596      29.596      26.708      21.839      16.447      11.962      9.1590      7.8111      6.9838      6.4197    
  6.1466      6.1466      6.4198      6.9842      7.8115      9.1591      11.961      16.447      21.839      26.709    
  25.428      26.771      25.428      21.839      17.147      12.731      9.6064      7.9511      7.0524      6.3999    
  6.0207      5.8996      6.0207      6.4002      7.0529      7.9513      9.6057      12.729      17.145      21.839    
  19.911      22.000      22.000      19.912      16.448      12.730      9.7842      8.0352      7.0841      6.3812    
  5.9280      5.7157      5.7157      5.9281      6.3814      7.0842      8.0348      9.7830      12.729      16.446    
  14.609      16.709      17.508      16.709      14.610      11.961      9.6059      8.0350      7.0920      6.3687    
  5.8708      5.5967      5.5117      5.5970      5.8711      6.3688      7.0920      8.0350      9.6058      11.961    
  10.741      12.296      13.265      13.266      12.296      10.741      9.1582      7.9504      7.0838      6.3688    
  5.8516      5.5390      5.3982      5.3985      5.5394      5.8518      6.3689      7.0845      7.9517      9.1595    
  8.6379      9.5275      10.250      10.531      10.250      9.5263      8.6362      7.8102      7.0520      6.3812    
  5.8711      5.5391      5.3624      5.3084      5.3626      5.5392      5.8710      6.3814      7.0529      7.8118    
  7.6085      8.1803      8.6344      8.9005      8.9001      8.6335      8.1794      7.6080      6.9834      6.4000    
  5.9284      5.5971      5.3985      5.3085      5.3083      5.3982      5.5968      5.9281      6.3999      6.9835    
  6.8778      7.3379      7.7293      7.9899      8.0807      7.9894      7.7290      7.3383      6.8786      6.4199    
  6.0213      5.7163      5.5120      5.3987      5.3627      5.3982      5.5115      5.7160      6.0210      6.4193    
  6.4427      6.7590      7.0554      7.2859      7.4119      7.4118      7.2858      7.0557      6.7597      6.4432    
  6.1472      5.9002      5.7161      5.5972      5.5395      5.5392      5.5966      5.7158      5.9003      6.1471    
  6.3025      6.4786      6.6594      6.8204      6.9331      6.9738      6.9333      6.8207      6.6595      6.4786    
  6.3024      6.1471      6.0210      5.9282      5.8711      5.8516      5.8707      5.9277      6.0207      6.1471    
  6.4427      6.4787      6.5326      6.6000      6.6648      6.7052      6.7055      6.6653      6.6002      6.5325    
  6.4787      6.4432      6.4198      6.3999      6.3811      6.3686      6.3686      6.3811      6.3995      6.4191    
  6.8778      6.7593      6.6597      6.6001      6.5810      6.5846      6.5892      6.5851      6.5815      6.6004    
  6.6598      6.7599      6.8786      6.9837      7.0523      7.0838      7.0918      7.0843      7.0527      6.9833    
  7.6086      7.3382      7.0558      6.8207      6.6649      6.5845      6.5551      6.5552      6.5849      6.6652    
  6.8209      7.0559      7.3381      7.6080      7.8107      7.9507      8.0347      8.0352      7.9518      7.8118    
  8.6380      8.1804      7.7296      7.2862      6.9332      6.7052      6.5891      6.5551      6.5889      6.7051    
  6.9333      7.2860      7.7287      8.1788      8.6362      9.1585      9.6058      9.7836      9.6064      9.1598    
  10.741      9.5273      8.6343      7.9900      7.4120      6.9738      6.7053      6.5849      6.5847      6.7050    
  6.9737      7.4120      7.9895      8.6331      9.5260      10.741      11.962      12.730      12.730      11.962    
  14.609      12.295      10.250      8.9002      8.0807      7.4119      6.9333      6.6651      6.5812      6.6649    
  6.9331      7.4120      8.0809      8.9003      10.250      12.296      14.610      16.448      17.147      16.447    
  19.911      16.708      13.264      10.530      8.9000      7.9897      7.2861      6.8206      6.6000      6.5999    
  6.8206      7.2860      7.9897      8.9005      10.531      13.266      16.709      19.912      21.840      21.839    
  25.428      21.999      17.506      13.265      10.250      8.6340      7.7296      7.0560      6.6594      6.5320    
  6.6594      7.0558      7.7291      8.6337      10.250      13.266      17.507      22.000      25.428      26.709    
  29.596      26.770      21.999      16.708      12.296      9.5269      8.1803      7.3390      6.7598      6.4781    
  6.4781      6.7596      7.3384      8.1796      9.5268      12.296      16.709      21.999      26.770      29.596    
  16.147      15.499      13.791      11.629      9.6995      8.3972      7.5500      6.8594      6.3767      6.1092    
  6.0259      6.1091      6.3766      6.8593      7.5500      8.3972      9.6996      11.629      13.791      15.499    
  15.499      15.499      14.293      12.322      10.266      8.6899      7.6970      6.9350      6.3551      5.9937    
  5.8280      5.8279      5.9937      6.3553      6.9353      7.6972      8.6898      10.266      12.322      14.292    
  13.791      14.353      13.791      12.322      10.489      8.8804      7.7809      6.9799      6.3343      5.8970    