unknown system                          
   1.00000000000000     
     2.330000    0.000000    0.000000
    -1.165000    2.017839    0.000000
     0.000000    0.000000    4.100000
   Fe
     2
Direct
  0.000000  0.000000  0.000000
  0.333333  0.666667  0.500000
 
   20   20   32
 0.16188532348E+03 0.15339762008E+03 0.13055883893E+03 0.99860973395E+02 0.68628763336E+02
 0.42454468697E+02 0.24179845974E+02 0.13992595844E+02 0.99270630390E+01 0.87428043512E+01
 0.83639192788E+01 0.87427204068E+01 0.99268737161E+01 0.13992331538E+02 0.24179616824E+02
 0.42454381840E+02 0.68628819460E+02 0.99861073113E+02 0.13055889304E+03 0.15339762629E+03
 0.15340311072E+03 0.15339762145E+03 0.13776833906E+03 0.11117736898E+03 0.80616512560E+02
 0.52523037564E+02 0.31025057752E+02 0.17554597235E+02 0.11148807647E+02 0.90861564394E+01
 0.83720761739E+01 0.83718167242E+01 0.90858669624E+01 0.11148839698E+02 0.17553960657E+02
 0.31022994767E+02 0.52521750027E+02 0.80620392770E+02 0.11118795736E+03 0.13778061330E+03
 0.13056698040E+03 0.13775100899E+03 0.13055877996E+03 0.11117730345E+03 0.85052398721E+02
 0.58430498596E+02 0.36197420899E+02 0.20885303884E+02 0.12602996157E+02 0.94425561629E+01
 0.84211326429E+01 0.80668581448E+01 0.84206660497E+01 0.94427236212E+01 0.12603535477E+02
 0.20884141376E+02 0.36193998663E+02 0.58428351726E+02 0.85056171007E+02 0.11118666876E+03
 0.99857315445E+02 0.11112107252E+03 0.11112223703E+03 0.99860799131E+02 0.80616354328E+02
 0.58430437869E+02 0.38123831678E+02 0.22899219053E+02 0.13803075807E+02 0.98194033056E+01
 0.84894805125E+01 0.78625362062E+01 0.78622726622E+01 0.84893731488E+01 0.98204081765E+01
 0.13804643586E+02 0.22899330402E+02 0.38121006903E+02 0.58425336356E+02 0.80611150668E+02
 0.68617097395E+02 0.80530898026E+02 0.84939493079E+02 0.80539919564E+02 0.68628521346E+02
 0.52522890619E+02 0.36197429923E+02 0.22899291642E+02 0.14268633571E+02 0.10075352765E+02
 0.85478065481E+01 0.77539920416E+01 0.74757671800E+01 0.77538083333E+01 0.85477940989E+01
 0.10076568974E+02 0.14271898031E+02 0.22903088071E+02 0.36197633367E+02 0.52516265594E+02
 0.42452957077E+02 0.52453557722E+02 0.58309747935E+02 0.58312751259E+02 0.52459006409E+02
 0.42454325800E+02 0.31025089694E+02 0.20885495170E+02 0.13803270285E+02 0.10075430529E+02
 0.85706359872E+01 0.77122009440E+01 0.72631637994E+01 0.72632512387E+01 0.77117296984E+01
 0.85691911555E+01 0.10075144211E+02 0.13806976491E+02 0.20892339177E+02 0.31029903963E+02
 0.24187704186E+02 0.31004548287E+02 0.36132146280E+02 0.38036325516E+02 0.36128768985E+02
 0.30997994931E+02 0.24179923215E+02 0.17554838580E+02 0.12603299299E+02 0.98195963883E+01
 0.85478299381E+01 0.77121501197E+01 0.71972171155E+01 0.70285371214E+01 0.71977140703E+01
 0.77110059491E+01 0.85441593950E+01 0.98159494944E+01 0.12603535477E+02 0.17560146105E+02
 0.13992228432E+02 0.17569171753E+02 0.20890613719E+02 0.22887036381E+02 0.22883488656E+02
 0.20882923889E+02 0.17563550081E+02 0.13992803671E+02 0.11149080012E+02 0.94427595272E+01
 0.84894983116E+01 0.77538563024E+01 0.72630190815E+01 0.70284832856E+01 0.70293412414E+01
 0.72645728954E+01 0.77537052270E+01 0.84857185867E+01 0.94360536891E+01 0.11143252158E+02
 0.99183049075E+01 0.11169830483E+02 0.12644777036E+02 0.13851151694E+02 0.14315476533E+02
 0.13849068417E+02 0.12645167981E+02 0.11175810251E+02 0.99271660239E+01 0.90862420013E+01
 0.84211017585E+01 0.78623603830E+01 0.74755476725E+01 0.72631221877E+01 0.71976985628E+01
 0.72645885624E+01 0.74789204366E+01 0.78660303305E+01 0.84211474970E+01 0.90803825289E+01
 0.87424481661E+01 0.91108660670E+01 0.94922325872E+01 0.98888574479E+01 0.10155381891E+02
 0.10156782562E+02 0.98932857448E+01 0.94989244416E+01 0.91163939390E+01 0.87426745087E+01
 0.83719606621E+01 0.80667000552E+01 0.78620881423E+01 0.77536871679E+01 0.77117213467E+01
 0.77110484217E+01 0.77537198009E+01 0.78660216339E+01 0.80739034239E+01 0.83775733985E+01
 0.83720066402E+01 0.84088615315E+01 0.84805960677E+01 0.85673091850E+01 0.86396713702E+01
 0.86693190974E+01 0.86430444915E+01 0.85706180088E+01 0.84798407872E+01 0.84028994891E+01
 0.83637078125E+01 0.83717262755E+01 0.84206203111E+01 0.84893573512E+01 0.85478299381E+01
 0.85692490784E+01 0.85441718441E+01 0.84856849900E+01 0.84211326429E+01 0.83775984616E+01
 0.87425781557E+01 0.84089430861E+01 0.81346618531E+01 0.79524039854E+01 0.78596068239E+01
 0.78275752150E+01 0.78281290723E+01 0.78592883009E+01 0.79481603924E+01 0.81272146315E+01
 0.84031635387E+01 0.87427205539E+01 0.90860158058E+01 0.94428826165E+01 0.98205235976E+01
 0.10076629097E+02 0.10075126570E+02 0.98158718328E+01 0.94360093201E+01 0.90804458104E+01
 0.99185299426E+01 0.91110911023E+01 0.84806690685E+01 0.79523512192E+01 0.75889867717E+01
 0.73919239934E+01 0.73314479945E+01 0.73903826160E+01 0.75854302656E+01 0.79483865880E+01
 0.84802865222E+01 0.91166661797E+01 0.99272017362E+01 0.11149183118E+02 0.12603745034E+02
 0.13804695048E+02 0.14271822540E+02 0.13806833475E+02 0.12603441892E+02 0.11143323214E+02
 0.13992488547E+02 0.11170146042E+02 0.94923675664E+01 0.85671728278E+01 0.78593561556E+01
 0.73917851751E+01 0.71698447880E+01 0.71690298935E+01 0.73902753190E+01 0.78594071994E+01
 0.85706874517E+01 0.94987594979E+01 0.11175702954E+02 0.13992799480E+02 0.17554244863E+02
 0.20884177704E+02 0.22899184345E+02 0.22902869424E+02 0.20892184220E+02 0.17560188966E+02
 0.24187933336E+02 0.17569507910E+02 0.12644956413E+02 0.98886951631E+01 0.86392542947E+01
 0.78272006536E+01 0.73313266233E+01 0.71690869187E+01 0.73310022595E+01 0.78285534490E+01
 0.86430444915E+01 0.98923629319E+01 0.12644686534E+02 0.17564097547E+02 0.24179923215E+02
 0.31023014359E+02 0.36193795219E+02 0.38120724582E+02 0.36197420899E+02 0.31029891614E+02
 0.42453105979E+02 0.31004840127E+02 0.20890818073E+02 0.13851034828E+02 0.10154934070E+02
 0.86688191954E+01 0.78279127992E+01 0.73905297543E+01 0.73905612756E+01 0.78287117373E+01
 0.86707196694E+01 0.10155692085E+02 0.13847705699E+02 0.20884183501E+02 0.31000058663E+02
 0.42454387845E+02 0.52521527902E+02 0.58428042918E+02 0.58425088275E+02 0.52516190413E+02
 0.68617150500E+02 0.52453764816E+02 0.36132356054E+02 0.22887021500E+02 0.14315134323E+02
 0.10156296788E+02 0.86427797698E+01 0.78594634526E+01 0.75859070317E+01 0.78598330194E+01
 0.86431968452E+01 0.10155654132E+02 0.14312432506E+02 0.22883591762E+02 0.36132294460E+02
 0.52460431172E+02 0.68628630574E+02 0.80620111997E+02 0.85055924196E+02 0.80611028127E+02
 0.99857293262E+02 0.80531013225E+02 0.58309943346E+02 0.38036430752E+02 0.22883341367E+02
 0.13848717413E+02 0.98930258681E+01 0.85707456636E+01 0.79486710863E+01 0.79489500481E+01
 0.85709514637E+01 0.98922653400E+01 0.13847471561E+02 0.22883459354E+02 0.38039304635E+02
 0.58315006629E+02 0.80536239431E+02 0.99860876667E+02 0.11118775662E+03 0.11118653355E+03
 0.13056692629E+03 0.11112111678E+03 0.84939655437E+02 0.58312947956E+02 0.36128830579E+02
 0.20882770612E+02 0.12644956413E+02 0.94989450121E+01 0.84802233335E+01 0.81277509148E+01
 0.84805960677E+01 0.94986450893E+01 0.12644295589E+02 0.20883825870E+02 0.36132146280E+02
 0.58315007914E+02 0.84935858375E+02 0.11111179462E+03 0.13055877996E+03 0.13778050824E+03
 0.15340306976E+03 0.13775101601E+03 0.11112235184E+03 0.80540143046E+02 0.52459214504E+02
 0.30998027721E+02 0.17563407650E+02 0.11175703027E+02 0.91165407903E+01 0.84032672025E+01
 0.84034496976E+01 0.91165879957E+01 0.11175280171E+02 0.17563618959E+02 0.30999799613E+02
 0.52460432173E+02 0.80536347714E+02 0.11111186517E+03 0.13773878626E+03 0.15339758670E+03
 0.15160247120E+03 0.14367683179E+03 0.12232752838E+03 0.93583131878E+02 0.64300844319E+02
 0.39779695308E+02 0.22744637507E+02 0.13359833550E+02 0.96844932967E+01 0.85764577240E+01
 0.82084563477E+01 0.85764119201E+01 0.96843690650E+01 0.13359641797E+02 0.22744467469E+02
 0.39779640884E+02 0.64300906117E+02 0.93583221050E+02 0.12232756865E+03 0.14367682944E+03
 0.14368193228E+03 0.14367689116E+03 0.12906857903E+03 0.10417994331E+03 0.75532616498E+02
 0.49191564120E+02 0.29093511242E+02 0.16606729609E+02 0.10765793598E+02 0.88990101387E+01
 0.82047748793E+01 0.82045532202E+01 0.88988104565E+01 0.10765944319E+02 0.16606257092E+02
 0.29091618958E+02 0.49190243877E+02 0.75535986975E+02 0.10418953497E+03 0.12907981212E+03
 0.12233509645E+03 0.12905619378E+03 0.12232764557E+03 0.10417995805E+03 0.79688541636E+02
 0.54719235069E+02 0.33906099167E+02 0.19664238982E+02 0.12064788542E+02 0.92160916739E+01
 0.82458596882E+01 0.79035928055E+01 0.82454552456E+01 0.92163223307E+01 0.12065384721E+02
 0.19663180350E+02 0.33902773060E+02 0.54716924518E+02 0.79691665789E+02 0.10418834527E+03
 0.93579740705E+02 0.10413796019E+03 0.10413911060E+03 0.93583172649E+02 0.75532522156E+02
 0.54719152222E+02 0.35700830684E+02 0.21519636960E+02 0.13144950864E+02 0.95433750253E+01
 0.83091689495E+01 0.77045207958E+01 0.77042883192E+01 0.83091013790E+01 0.95443376096E+01
 0.13146385771E+02 0.21519617920E+02 0.35697971348E+02 0.54714112316E+02 0.75527403789E+02
 0.64290032980E+02 0.75471249827E+02 0.79608393401E+02 0.75479670787E+02 0.64300702348E+02
 0.49191351988E+02 0.33905990631E+02 0.21519641928E+02 0.13565501620E+02 0.97659435312E+01
 0.83646290113E+01 0.75998846052E+01 0.73338424661E+01 0.75997585354E+01 0.83646574346E+01
 0.97670637895E+01 0.13568477029E+02 0.21523098264E+02 0.33906118393E+02 0.49185141036E+02
 0.39778349092E+02 0.49152181130E+02 0.54646572514E+02 0.54649335589E+02 0.49157147600E+02
 0.39779447945E+02 0.29093336006E+02 0.19664248370E+02 0.13145057523E+02 0.97660090997E+01
 0.83865171958E+01 0.75599470033E+01 0.71316265679E+01 0.71317402822E+01 0.75595739098E+01
 0.83852197603E+01 0.97657719968E+01 0.13148574322E+02 0.19670764689E+02 0.29098013592E+02
 0.22751995273E+02 0.29104047442E+02 0.33896318724E+02 0.35678135893E+02 0.33893068325E+02
 0.29097734240E+02 0.22744464820E+02 0.16606730133E+02 0.12064952961E+02 0.95435434628E+01
 0.83646897260E+01 0.75599320962E+01 0.70691734782E+01 0.69091829676E+01 0.70696441472E+01
 0.75588807920E+01 0.83613121015E+01 0.95402585900E+01 0.12065384721E+02 0.16611958608E+02
 0.13359509306E+02 0.16651344256E+02 0.19726045356E+02 0.21579875570E+02 0.21576516486E+02
 0.19718731649E+02 0.16645893444E+02 0.13359811620E+02 0.10765935737E+02 0.92162884942E+01
 0.83092641215E+01 0.75998477747E+01 0.71315559615E+01 0.69091614056E+01 0.69099141334E+01
 0.71328995840E+01 0.75996260445E+01 0.83057535253E+01 0.92101622754E+01 0.10760708987E+02
 0.96763513962E+01 0.10816039422E+02 0.12162030453E+02 0.13267603587E+02 0.13694071699E+02
 0.13265567777E+02 0.12162259950E+02 0.10821494188E+02 0.96845331243E+01 0.88991426791E+01
 0.82459489695E+01 0.77044832444E+01 0.73337395219E+01 0.71316884524E+01 0.70696633430E+01
 0.71329183606E+01 0.73366979344E+01 0.77077686638E+01 0.82459451105E+01 0.88937076152E+01
 0.85761405914E+01 0.89520770547E+01 0.93203845354E+01 0.96883649890E+01 0.99332540244E+01
 0.99345261682E+01 0.96924275397E+01 0.93265938920E+01 0.89572740861E+01 0.85764519226E+01
 0.82048208818E+01 0.79035815768E+01 0.77042119156E+01 0.75997089368E+01 0.75596047500E+01
 0.75589265393E+01 0.75996132765E+01 0.77077298117E+01 0.79101566806E+01 0.82099273903E+01
 0.82159841517E+01 0.82688339932E+01 0.83591483492E+01 0.84634361703E+01 0.85482962219E+01
 0.85823688662E+01 0.85514705688E+01 0.84665984889E+01 0.83585834871E+01 0.82634625102E+01
 0.82084383115E+01 0.82045898992E+01 0.82454591046E+01 0.83090912844E+01 0.83646897260E+01
 0.83852657492E+01 0.83612836782E+01 0.83056482587E+01 0.82458596882E+01 0.82099180669E+01
 0.85762361632E+01 0.82689222499E+01 0.80245731862E+01 0.78707036143E+01 0.77996991470E+01
 0.77793562747E+01 0.77799410154E+01 0.77995784873E+01 0.78669704613E+01 0.80178506754E+01
 0.82637244172E+01 0.85765016906E+01 0.88989211183E+01 0.92163775641E+01 0.95443636986E+01
 0.97670793316E+01 0.97657219704E+01 0.95401162415E+01 0.92100206885E+01 0.88936857366E+01
 0.96765173657E+01 0.89523123511E+01 0.83592779395E+01 0.78706967948E+01 0.75418019321E+01
 0.73675627580E+01 0.73150695260E+01 0.73662842862E+01 0.75387126928E+01 0.78671920221E+01
 0.83590316141E+01 0.89575454149E+01 0.96845748622E+01 0.10766068228E+02 0.12065401088E+02
 0.13146349316E+02 0.13568398827E+02 0.13148431209E+02 0.12065236669E+02 0.10760690757E+02
 0.13359701847E+02 0.10816343738E+02 0.93205940959E+01 0.84634152277E+01 0.77995359894E+01
 0.73674530369E+01 0.71647520571E+01 0.71640404633E+01 0.73661525827E+01 0.77996683446E+01
 0.84666898462E+01 0.93264542667E+01 0.10821362484E+02 0.13359812408E+02 0.16606263161E+02
 0.19663088281E+02 0.21519510225E+02 0.21522985601E+02 0.19670663231E+02 0.16611964154E+02
 0.22752165311E+02 0.16651619030E+02 0.12162241614E+02 0.96883293523E+01 0.85480240969E+01
 0.77790651656E+01 0.73149500192E+01 0.71640641318E+01 0.73146213990E+01 0.77802756764E+01
 0.85514705688E+01 0.96915999891E+01 0.12161770085E+02 0.16646317175E+02 0.22744464820E+02
 0.29091487991E+02 0.33902645298E+02 0.35697906561E+02 0.33906099167E+02 0.29098057861E+02
 0.39778459530E+02 0.29104209710E+02 0.19726182097E+02 0.13267554188E+02 0.99329596099E+01
 0.85819960085E+01 0.77797447219E+01 0.73663489622E+01 0.73663269798E+01 0.77803704921E+01
 0.85836449906E+01 0.99335617188E+01 0.13264331999E+02 0.19719834937E+02 0.29099568693E+02
 0.39779503959E+02 0.49190116210E+02 0.54716907656E+02 0.54714178301E+02 0.49185225500E+02
 0.64290072036E+02 0.49152193957E+02 0.33896335047E+02 0.21579815434E+02 0.13693841539E+02
 0.99341953881E+01 0.85512685759E+01 0.77996676929E+01 0.75390055800E+01 0.77999207078E+01
 0.85515407009E+01 0.99335253532E+01 0.13691317085E+02 0.21576648977E+02 0.33896312804E+02
 0.49158439393E+02 0.64300803202E+02 0.75536002500E+02 0.79691786115E+02 0.75527513657E+02
 0.93579723862E+02 0.75471134269E+02 0.54646467574E+02 0.35678069655E+02 0.21576407417E+02
 0.13265381950E+02 0.96922935905E+01 0.84666915406E+01 0.78672887785E+01 0.78675171588E+01
 0.84668038405E+01 0.96915016765E+01 0.13264195570E+02 0.21576600044E+02 0.35680945234E+02
 0.54651451812E+02 0.75476262770E+02 0.93583244977E+02 0.10418965861E+03 0.10418845417E+03
 0.12233505619E+03 0.10413778385E+03 0.79608210965E+02 0.54649269304E+02 0.33893090568E+02
 0.19718736571E+02 0.12162241614E+02 0.93266721393E+01 0.83588298125E+01 0.80181418784E+01
 0.83591483492E+01 0.93263229535E+01 0.12161540588E+02 0.19719703118E+02 0.33896318724E+02
 0.54651490469E+02 0.79605048067E+02 0.10412942051E+03 0.12232764557E+03 0.12907989162E+03
 0.14368190197E+03 0.12905604169E+03 0.10413892342E+03 0.75479612459E+02 0.49157264131E+02
 0.29097903758E+02 0.16645992634E+02 0.10821545616E+02 0.89573825256E+01 0.82636305147E+01
 0.82638041649E+01 0.89574185580E+01 0.10821109597E+02 0.16646141591E+02 0.29099575943E+02
 0.49158543097E+02 0.75476320001E+02 0.10412940967E+03 0.12904483106E+03 0.14367685849E+03
 0.12447464804E+03 0.11800881732E+03 0.10054365404E+03 0.76933756579E+02 0.52831014957E+02
 0.32742718006E+02 0.19036648232E+02 0.11774093600E+02 0.90753977688E+01 0.81298663048E+01
 0.77951086049E+01 0.81298961301E+01 0.90754042278E+01 0.11774049541E+02 0.19036599446E+02
 0.32742729427E+02 0.52831086623E+02 0.76933822672E+02 0.10054366590E+03 0.11800879811E+03
 0.11801288097E+03 0.11800900996E+03 0.10605930496E+03 0.85630702813E+02 0.62044766197E+02
 0.40387730259E+02 0.24053716361E+02 0.14194778232E+02 0.98164257129E+01 0.83964467524E+01
 0.77612458356E+01 0.77611106405E+01 0.83964458414E+01 0.98168375415E+01 0.14194699328E+02
 0.24052277417E+02 0.40386376400E+02 0.62046870610E+02 0.85637734490E+02 0.10606783187E+03
 0.10054969685E+03 0.10606218067E+03 0.10054417386E+03 0.85630900392E+02 0.65455257042E+02
 0.44894684403E+02 0.27897222277E+02 0.16525715510E+02 0.10720399544E+02 0.86350951875E+01
 0.77776412081E+01 0.74710691105E+01 0.77773850705E+01 0.86354628051E+01 0.10721118823E+02
 0.16524940288E+02 0.27894220418E+02 0.44892063864E+02 0.65456802759E+02 0.85636806614E+02
 0.76931079426E+02 0.85631544440E+02 0.85632626221E+02 0.76934287391E+02 0.62044815659E+02
 0.44894549371E+02 0.29336889097E+02 0.17956908008E+02 0.11488999602E+02 0.88477085218E+01
 0.78221594520E+01 0.72830448345E+01 0.72828908951E+01 0.78221879366E+01 0.88485525037E+01
 0.11490095634E+02 0.17956594794E+02 0.29334033381E+02 0.44889796378E+02 0.62040044508E+02
 0.52822474390E+02 0.62053887969E+02 0.65470891918E+02 0.62060686420E+02 0.52831098783E+02
 0.40387365218E+02 0.27896841932E+02 0.17956757323E+02 0.11791687833E+02 0.89893471885E+01
 0.78655294394E+01 0.71853035990E+01 0.69534623133E+01 0.71853233883E+01 0.78656623308E+01
 0.89902209175E+01 0.11793916122E+02 0.17959338040E+02 0.27896801701E+02 0.40382293544E+02
 0.32741784366E+02 0.40433281862E+02 0.44958797326E+02 0.44960933122E+02 0.40437003459E+02
 0.32742228148E+02 0.24053062723E+02 0.16525306045E+02 0.11488905465E+02 0.89893862728E+01
 0.78832191683E+01 0.71481112292E+01 0.67769957499E+01 0.67771747944E+01 0.71479917041E+01
 0.78823112701E+01 0.89892758561E+01 0.11491893819E+02 0.16530896081E+02 0.24057305335E+02
 0.19042630396E+02 0.24148722484E+02 0.28039995110E+02 0.29492955807E+02 0.28037143047E+02
 0.24143158296E+02 0.19035899848E+02 0.14194223759E+02 0.10720245985E+02 0.88478239265E+01
 0.78656801234E+01 0.71481810616E+01 0.67230821593E+01 0.65863768916E+01 0.67234887312E+01
 0.71473856017E+01 0.78630810483E+01 0.88454702985E+01 0.10721118823E+02 0.14199121143E+02
 0.11773848136E+02 0.14317541640E+02 0.16736293348E+02 0.18208961086E+02 0.18206138798E+02
 0.16730073174E+02 0.14312666858E+02 0.11773541227E+02 0.98162673035E+01 0.86352799991E+01
 0.78224388387E+01 0.71854999855E+01 0.67770978083E+01 0.65864288700E+01 0.65869172558E+01
 0.67779184505E+01 0.71851219831E+01 0.78196460957E+01 0.86306534783E+01 0.98125532803E+01
 0.90688724957E+01 0.99393745944E+01 0.10956803631E+02 0.11799700273E+02 0.12126677889E+02
 0.11797834678E+02 0.10956668545E+02 0.99434922669E+01 0.90752873839E+01 0.83966865914E+01
 0.77780120858E+01 0.72833328823E+01 0.69536318704E+01 0.67772992135E+01 0.67235829413E+01
 0.67779408113E+01 0.69555428138E+01 0.72856341413E+01 0.77778858524E+01 0.83923629854E+01
 0.81296329118E+01 0.85175016389E+01 0.88705133616E+01 0.91738652031E+01 0.93657715203E+01
 0.93667052654E+01 0.91769582307E+01 0.88754302180E+01 0.85217944492E+01 0.81301389871E+01
 0.77616644201E+01 0.74714028723E+01 0.72830696640E+01 0.71854381724E+01 0.71481053209E+01
 0.71474293861E+01 0.71850403807E+01 0.72855248623E+01 0.74763430610E+01 0.77654567148E+01
 0.78011395550E+01 0.78889208331E+01 0.80157370200E+01 0.81521174168E+01 0.82586622528E+01
 0.83001156232E+01 0.82612735766E+01 0.81548281856E+01 0.80156014078E+01 0.78850421910E+01
 0.77955307480E+01 0.77614446650E+01 0.77775113038E+01 0.78221939702E+01 0.78656801234E+01
 0.78823175701E+01 0.78629481569E+01 0.78193727426E+01 0.77776412081E+01 0.77653721548E+01
 0.81296578875E+01 0.78890275422E+01 0.77135705602E+01 0.76198843792E+01 0.75919785104E+01
 0.75936086291E+01 0.75942445241E+01 0.75923038278E+01 0.76174070481E+01 0.77086764561E+01
 0.78852940716E+01 0.81301937881E+01 0.83964781741E+01 0.86352870112E+01 0.88483713028E+01
 0.89901229168E+01 0.89891387711E+01 0.88451736929E+01 0.86302928727E+01 0.83921554791E+01
 0.90689173123E+01 0.85177689361E+01 0.80159971669E+01 0.76199803840E+01 0.73664584899E+01
 0.72396936316E+01 0.72033578197E+01 0.72390581555E+01 0.73645263269E+01 0.76176154654E+01
 0.80160509142E+01 0.85220576676E+01 0.90753386595E+01 0.98164687088E+01 0.10720695491E+02
 0.11489850526E+02 0.11793819609E+02 0.11491742848E+02 0.10720849051E+02 0.98123428569E+01
 0.11773902069E+02 0.99396649080E+01 0.88708955220E+01 0.81523543066E+01 0.75920076185E+01
 0.72396463943E+01 0.70787583630E+01 0.70783062721E+01 0.72388666252E+01 0.75923207148E+01
 0.81549762527E+01 0.88753585300E+01 0.99433007366E+01 0.11773551102E+02 0.14194076330E+02
 0.16524552514E+02 0.17956565793E+02 0.17959459723E+02 0.16530917773E+02 0.14199052618E+02
 0.19042679182E+02 0.14317688042E+02 0.10957090000E+02 0.91741109405E+01 0.82587081037E+01
 0.75934973923E+01 0.72032383108E+01 0.70782541769E+01 0.72029083133E+01 0.75943487626E+01
 0.82612735766E+01 0.91763823566E+01 0.10956167763E+02 0.14312778108E+02 0.19035899848E+02
 0.24051805006E+02 0.27894260650E+02 0.29334458506E+02 0.27897222277E+02 0.24057486561E+02
 0.32741815908E+02 0.24148598156E+02 0.16736278004E+02 0.11799796943E+02 0.93658124286E+01
 0.83000185891E+01 0.75940868343E+01 0.72389358269E+01 0.72387915339E+01 0.75943023095E+01
 0.83010611842E+01 0.93660663860E+01 0.11796932580E+02 0.16730773866E+02 0.24144399352E+02
 0.32742271111E+02 0.40386463120E+02 0.44892708223E+02 0.44890575769E+02 0.40382745305E+02
 0.52822484627E+02 0.40432856374E+02 0.28039571208E+02 0.18208791187E+02 0.12126690337E+02
 0.93667145264E+01 0.82612074830E+01 0.75921991488E+01 0.73644086170E+01 0.75921869277E+01
 0.82611616321E+01 0.93660347387E+01 0.12124679291E+02 0.18206340203E+02 0.28039642426E+02
 0.40437948521E+02 0.52831180687E+02 0.62047558905E+02 0.65457756421E+02 0.62040683341E+02
 0.76931073533E+02 0.62053246831E+02 0.44958007113E+02 0.29492494143E+02 0.18206108141E+02
 0.11798015994E+02 0.91771066422E+01 0.81548458221E+01 0.76172973381E+01 0.76174097506E+01
 0.81547569995E+01 0.91762850306E+01 0.11797017227E+02 0.18206479445E+02 0.29495299893E+02
 0.44962671107E+02 0.62058003374E+02 0.76934347592E+02 0.85638594170E+02 0.85637468715E+02
 0.10054968499E+03 0.85630863121E+02 0.65469921976E+02 0.44960265032E+02 0.28037071828E+02
 0.16730434940E+02 0.10957090000E+02 0.88756449574E+01 0.80155476605E+01 0.77084211772E+01
 0.80157370200E+01 0.88751911089E+01 0.10956302849E+02 0.16731150977E+02 0.28039995110E+02
 0.44962793230E+02 0.65468310635E+02 0.85624942009E+02 0.10054417386E+03 0.10606832878E+03
 0.11801287249E+03 0.10606166337E+03 0.85631748920E+02 0.62059985044E+02 0.40436911540E+02
 0.24143640891E+02 0.14313320220E+02 0.99439116049E+01 0.85218241026E+01 0.78847639584E+01
 0.78849091298E+01 0.85218200237E+01 0.99434297609E+01 0.14313285069E+02 0.24145006276E+02
 0.40438282090E+02 0.62057943135E+02 0.85624746028E+02 0.10605311477E+03 0.11800898227E+03
 0.89502177486E+02 0.84874929467E+02 0.72340320864E+02 0.55345108469E+02 0.38037004137E+02
 0.23840700509E+02 0.14537006180E+02 0.99637623443E+01 0.83296525743E+01 0.75338401353E+01
 0.72537421133E+01 0.75339046123E+01 0.83297249815E+01 0.99638006372E+01 0.14537029342E+02
 0.23840750149E+02 0.38037077536E+02 0.55345157086E+02 0.72340315883E+02 0.84874902260E+02
 0.84877643547E+02 0.84875238305E+02 0.76291887097E+02 0.61576327831E+02 0.44584479432E+02
 0.29130021263E+02 0.17802996971E+02 0.11361154206E+02 0.87342323109E+01 0.77159612226E+01
 0.71813102292E+01 0.71812526588E+01 0.77161174364E+01 0.87348421109E+01 0.11361473933E+02
 0.17802145619E+02 0.29128766676E+02 0.44585176501E+02 0.61580270099E+02 0.76297058014E+02
 0.72344374653E+02 0.76318359909E+02 0.72341187244E+02 0.61576681711E+02 0.47013988387E+02
 0.32276554440E+02 0.20359620300E+02 0.12761825238E+02 0.91885359501E+01 0.78808697320E+01
 0.71568209778E+01 0.69062405376E+01 0.71567155511E+01 0.78813342811E+01 0.91893376403E+01
 0.12761432536E+02 0.20357219801E+02 0.32273864566E+02 0.47013868181E+02 0.61579679178E+02
 0.55343371033E+02 0.61641116172E+02 0.61642026271E+02 0.55346058837E+02 0.44584648959E+02
 0.32276371322E+02 0.21326232421E+02 0.13641873419E+02 0.95832049236E+01 0.79991096919E+01
 0.71642786597E+01 0.67261443959E+01 0.67260817992E+01 0.71644054569E+01 0.79997805613E+01
 0.95838947075E+01 0.13641313807E+02 0.21323633680E+02 0.32272318411E+02 0.44580649162E+02
 0.38031414658E+02 0.44695210156E+02 0.47168669071E+02 0.44699830224E+02 0.38037278150E+02
 0.29129517062E+02 0.20358998555E+02 0.13641585265E+02 0.97416024083E+01 0.80628028788E+01
 0.71814697892E+01 0.66292782552E+01 0.64464751510E+01 0.66294631094E+01 0.71817208553E+01
 0.80633739315E+01 0.97429127474E+01 0.13643099859E+02 0.20358823909E+02 0.29126025390E+02
 0.23840235530E+02 0.29293415088E+02 0.32532392666E+02 0.32533742056E+02 0.29295615243E+02
 0.23839995053E+02 0.17801919753E+02 0.12761045535E+02 0.95829353818E+01 0.80628216429E+01
 0.71897001424E+01 0.65904477734E+01 0.62990486673E+01 0.62992962085E+01 0.65906284384E+01
 0.71892834738E+01 0.80628593122E+01 0.95851661410E+01 0.12765279363E+02 0.17805401525E+02
 0.14541088112E+02 0.18009828342E+02 0.20707193716E+02 0.21723393355E+02 0.20705017578E+02
 0.18005527076E+02 0.14535751085E+02 0.11360108137E+02 0.91881026887E+01 0.79991851827E+01
 0.71817093289E+01 0.65905978816E+01 0.62543834512E+01 0.61484028453E+01 0.62547168062E+01
 0.65901518969E+01 0.71801167471E+01 0.79979564309E+01 0.91893376403E+01 0.11364253298E+02
 0.99635368946E+01 0.11581771313E+02 0.13161755602E+02 0.14140068288E+02 0.14138035444E+02
 0.13157199560E+02 0.11577960094E+02 0.99627380521E+01 0.87338045530E+01 0.78810488365E+01
 0.71647348310E+01 0.66296951604E+01 0.62993094094E+01 0.61485181518E+01 0.61487046657E+01
 0.62995470851E+01 0.66291993667E+01 0.71628831469E+01 0.78782658155E+01 0.87318370814E+01
 0.83251850049E+01 0.89434871058E+01 0.95920048341E+01 0.10121299041E+02 0.10326858471E+02
 0.10119770402E+02 0.95915624405E+01 0.89460128037E+01 0.83293968324E+01 0.77162917916E+01
 0.71574518381E+01 0.67267390234E+01 0.64468973840E+01 0.62995731520E+01 0.62548646582E+01
 0.62995632865E+01 0.64475980521E+01 0.67278678519E+01 0.71571967581E+01 0.77133761496E+01
 0.75336685518E+01 0.79140597677E+01 0.82655043655E+01 0.85313455228E+01 0.86769242702E+01
 0.86774287973E+01 0.85331891770E+01 0.82687159503E+01 0.79171088133E+01 0.75343409973E+01
 0.71820591190E+01 0.69068966383E+01 0.67265029630E+01 0.66297228426E+01 0.65907958644E+01
 0.65901692146E+01 0.66290421947E+01 0.67276943881E+01 0.69098088064E+01 0.71842300062E+01
 0.72578008829E+01 0.73783268616E+01 0.75301315866E+01 0.76826281613E+01 0.77972136075E+01
 0.78406158688E+01 0.77990067042E+01 0.76845958093E+01 0.75303581181E+01 0.73761897734E+01
 0.72545403232E+01 0.71818606324E+01 0.71569706310E+01 0.71644335145E+01 0.71817093289E+01
 0.71892230970E+01 0.71798656810E+01 0.71624550331E+01 0.71568209778E+01 0.71840890899E+01
 0.75336516404E+01 0.73784562358E+01 0.72776363865E+01 0.72386548547E+01 0.72433513318E+01
 0.72590586224E+01 0.72596807366E+01 0.72440502299E+01 0.72375522026E+01 0.72748701580E+01
 0.73764158421E+01 0.75343885629E+01 0.77161032967E+01 0.78809735887E+01 0.79994117553E+01
 0.80631477673E+01 0.80626143840E+01 0.79975121341E+01 0.78777260185E+01 0.77130314408E+01
 0.83251579364E+01 0.79143731164E+01 0.75305058643E+01 0.72388342679E+01 0.70602882000E+01
 0.69757968826E+01 0.69528969935E+01 0.69758498016E+01 0.70596389104E+01 0.72377406975E+01
 0.75307939865E+01 0.79173448738E+01 0.83294421711E+01 0.87340682957E+01 0.91885385571E+01
 0.95834500011E+01 0.97427706482E+01 0.95849909762E+01 0.91889718185E+01 0.87314910240E+01
 0.99635085842E+01 0.89437907088E+01 0.82660381789E+01 0.76830730634E+01 0.72435292414E+01
 0.69757949964E+01 0.68564054181E+01 0.68562499761E+01 0.69755960415E+01 0.72439849646E+01
 0.76848119956E+01 0.82687336500E+01 0.89457590436E+01 0.99627480347E+01 0.11360323819E+02
 0.12760784676E+02 0.13641331505E+02 0.13643405711E+02 0.12765411207E+02 0.11364149253E+02
 0.14541064949E+02 0.11581833110E+02 0.95923596555E+01 0.85318143755E+01 0.77975043060E+01
 0.72590793881E+01 0.69527683162E+01 0.68561332075E+01 0.69524611251E+01 0.72595106922E+01
 0.77990067042E+01 0.85329346661E+01 0.95910812335E+01 0.11577714802E+02 0.14535751085E+02
 0.17801386684E+02 0.20357394447E+02 0.21324464818E+02 0.20359620300E+02 0.17805719808E+02
 0.23840220249E+02 0.18009478157E+02 0.13161612929E+02 0.10121501906E+02 0.86772203130E+01
 0.78407255840E+01 0.72595411982E+01 0.69755684960E+01 0.69753166220E+01 0.72593503881E+01
 0.78411337031E+01 0.86771845972E+01 0.10119290142E+02 0.13157416078E+02 0.18006045414E+02
 0.23840029412E+02 0.29129036801E+02 0.32275065530E+02 0.32273702492E+02 0.29126799716E+02
 0.38031407781E+02 0.29292624872E+02 0.20706393733E+02 0.14139788131E+02 0.10327049574E+02
 0.86777005735E+01 0.77990418920E+01 0.72437830015E+01 0.70591864823E+01 0.72435398267E+01
 0.77987511935E+01 0.86771603307E+01 0.10325802092E+02 0.14138299186E+02 0.20706555164E+02
 0.29296129862E+02 0.38037344673E+02 0.44586435011E+02 0.47015525974E+02 0.44581738145E+02
 0.55343371622E+02 0.44694120848E+02 0.32531014433E+02 0.21722581723E+02 0.14138051284E+02
 0.10120245319E+02 0.85335696730E+01 0.76845561503E+01 0.72370974209E+01 0.72371065026E+01
 0.76843274345E+01 0.85328463093E+01 0.10119562194E+02 0.14138595184E+02 0.21725092124E+02
 0.32534964283E+02 0.44698093377E+02 0.55346108043E+02 0.61581750767E+02 0.61580805965E+02
 0.72344379634E+02 0.61639998751E+02 0.47167022166E+02 0.32532552593E+02 0.20704856147E+02
 0.13157857661E+02 0.95923596555E+01 0.82690594260E+01 0.75300699960E+01 0.72741728846E+01
 0.75301315866E+01 0.82685433121E+01 0.95915236271E+01 0.13158216852E+02 0.20707193716E+02
 0.32535153054E+02 0.47167064963E+02 0.61636965211E+02 0.72341187244E+02 0.76297903391E+02
 0.84877648018E+02 0.76317525096E+02 0.61640555207E+02 0.44698576246E+02 0.29295343423E+02
 0.18006279345E+02 0.11579096109E+02 0.89467630197E+01 0.79170916671E+01 0.73755491902E+01
 0.73756458847E+01 0.79170143789E+01 0.89462056565E+01 0.11578789020E+02 0.18007147869E+02
 0.29296648258E+02 0.44697928707E+02 0.61636611569E+02 0.76312309150E+02 0.84875215568E+02
 0.56268221485E+02 0.53368221268E+02 0.45513340185E+02 0.34907887621E+02 0.24279629356E+02
 0.15899004485E+02 0.10813322671E+02 0.85610600637E+01 0.75619418694E+01 0.69356491696E+01
 0.67245411277E+01 0.69356686477E+01 0.75619511962E+01 0.85610465246E+01 0.10813315336E+02
 0.15899037986E+02 0.24279693842E+02 0.34907935143E+02 0.45513342408E+02 0.53368202272E+02
 0.53369649348E+02 0.53368551601E+02 0.47972020547E+02 0.38742032993E+02 0.28196500701E+02
 0.18873407267E+02 0.12434337199E+02 0.91243750002E+01 0.78008389787E+01 0.70160531241E+01