   2   2   0   0
  0.9638209E+01  0.2330000E-09  0.2330000E-09  0.4100000E-09  0.5000000E-15
  1.000000000000000E-004
  CAR 
 unknown system                          
     74.41937903     -5.30097752  301      7.63015126      1.00000000
     -5.301  0.0000E+00  0.0000E+00
     -5.035  0.0000E+00  0.0000E+00
     -4.770  0.0000E+00  0.0000E+00
     -4.504  0.0000E+00  0.0000E+00
     -4.238  0.0000E+00  0.0000E+00
     -3.972  0.0000E+00  0.0000E+00
     -3.707  0.0000E+00  0.0000E+00
     -3.441 -0.2566E-34 -0.6820E-35
     -3.175 -0.5595E-25 -0.1487E-25
     -2.909 -0.3459E-17 -0.9192E-18
     -2.644 -0.5721E-11 -0.1520E-11
     -2.378 -0.2571E-06 -0.6833E-07
     -2.112 -0.2632E-03 -0.7002E-04
     -1.846  0.1884E-03 -0.1994E-04
     -1.581  0.4861E-01  0.1290E-01
     -1.315  0.5479E-01  0.2746E-01
     -1.049  0.8146E-01  0.4910E-01
     -0.783 -0.4016E-02  0.4804E-01
     -0.518 -0.4782E-02  0.4677E-01
     -0.252  0.3987E-01  0.5736E-01
      0.014  0.3963E+00  0.1627E+00
      0.279  0.5626E+00  0.3122E+00
      0.545  0.2275E+00  0.3726E+00
      0.811 -0.3186E-01  0.3641E+00
      1.077  0.1750E+00  0.4107E+00
      1.342  0.6905E+00  0.5942E+00
      1.608 -0.5536E-02  0.5927E+00
      1.874 -0.1433E-01  0.5889E+00
      2.140  0.7669E-01  0.6093E+00
      2.405  0.2416E+01  0.1251E+01
      2.671  0.2005E+01  0.1784E+01
      2.937  0.1669E+01  0.2227E+01
      3.203  0.3369E+01  0.3123E+01
      3.468  0.2322E+01  0.3740E+01
      3.734  0.2380E+01  0.4372E+01
      4.000  0.8923E+00  0.4609E+01
      4.265  0.4034E+01  0.5681E+01
      4.531  0.4032E+01  0.6753E+01
      4.797  0.1968E+01  0.7276E+01
      5.063  0.1689E+01  0.7725E+01
      5.328  0.3895E+01  0.8760E+01
      5.594  0.3886E+01  0.9792E+01
      5.860  0.2634E+01  0.1049E+02
      6.126  0.3449E+01  0.1141E+02
      6.391  0.2555E+01  0.1209E+02
      6.657  0.3681E+01  0.1307E+02
      6.923  0.4458E+01  0.1425E+02
      7.189  0.4069E+01  0.1533E+02
      7.454  0.1597E+01  0.1576E+02
      7.720  0.1729E+01  0.1622E+02
      7.986  0.2853E+01  0.1697E+02
      8.251  0.4041E+01  0.1805E+02
      8.517  0.4767E+01  0.1931E+02
      8.783  0.6178E+01  0.2096E+02
      9.049  0.1311E+01  0.2130E+02
      9.314  0.1023E+01  0.2158E+02
      9.580  0.8169E+00  0.2179E+02
      9.846 -0.2376E-02  0.2179E+02
     10.112 -0.1978E-01  0.2179E+02
     10.377  0.1081E+00  0.2182E+02
     10.643  0.1832E+01  0.2230E+02
     10.909  0.2699E+00  0.2237E+02
     11.175 -0.2610E-01  0.2237E+02
     11.440 -0.2380E-02  0.2237E+02
     11.706  0.1199E-01  0.2237E+02
     11.972  0.3204E+00  0.2246E+02
     12.238  0.1284E-01  0.2246E+02
     12.503  0.3107E+00  0.2254E+02
     12.769  0.7482E+00  0.2274E+02
     13.035  0.1718E+01  0.2320E+02
     13.300  0.5166E+00  0.2333E+02
     13.566  0.2291E+00  0.2340E+02
     13.832  0.4750E+00  0.2352E+02
     14.098  0.2297E+00  0.2358E+02
     14.363  0.7735E+00  0.2379E+02
     14.629  0.7944E-01  0.2381E+02
     14.895  0.5299E-01  0.2382E+02
     15.161  0.2997E+00  0.2390E+02
     15.426  0.7128E-01  0.2392E+02
     15.692  0.6346E+00  0.2409E+02
     15.958  0.8992E-01  0.2411E+02
     16.224 -0.2010E-01  0.2411E+02
     16.489  0.2511E+00  0.2418E+02
     16.755  0.2586E+00  0.2424E+02
     17.021  0.2722E+00  0.2432E+02
     17.286  0.7536E-01  0.2434E+02
     17.552 -0.3599E-01  0.2433E+02
     17.818  0.6528E+00  0.2450E+02
     18.084  0.1912E+01  0.2501E+02
     18.349  0.3865E+00  0.2511E+02
     18.615 -0.1064E-01  0.2511E+02
     18.881  0.9335E+00  0.2536E+02
     19.147  0.5722E+00  0.2551E+02
     19.412  0.9140E+00  0.2575E+02
     19.678  0.8200E+00  0.2597E+02
     19.944  0.7015E+00  0.2616E+02
     20.210  0.1125E+01  0.2645E+02
     20.475  0.3327E+00  0.2654E+02
     20.741  0.4507E+00  0.2666E+02
     21.007  0.7627E+00  0.2687E+02
     21.272 -0.1704E-01  0.2686E+02
     21.538  0.2358E+00  0.2692E+02
     21.804  0.1185E+01  0.2724E+02
     22.070  0.1142E+01  0.2754E+02
     22.335  0.1792E+00  0.2759E+02
     22.601  0.5974E+00  0.2775E+02
     22.867  0.1247E+01  0.2808E+02
     23.133  0.5224E+00  0.2822E+02
     23.398  0.1152E+01  0.2852E+02
     23.664  0.1208E+01  0.2885E+02
     23.930  0.3984E+00  0.2895E+02
     24.196  0.9676E-01  0.2898E+02
     24.461  0.1160E-03  0.2898E+02
     24.727  0.6158E+00  0.2914E+02
     24.993  0.2401E+00  0.2920E+02
     25.258  0.1135E+01  0.2951E+02
     25.524  0.1420E+01  0.2988E+02
     25.790  0.8424E+00  0.3011E+02
     26.056  0.8644E+00  0.3034E+02
     26.321  0.1566E+01  0.3075E+02
     26.587  0.8920E+00  0.3099E+02
     26.853  0.7353E+00  0.3119E+02
     27.119  0.1316E+01  0.3154E+02
     27.384  0.5224E+00  0.3167E+02
     27.650  0.1370E+01  0.3204E+02
     27.916  0.3543E+00  0.3213E+02
     28.182  0.1323E+01  0.3248E+02
     28.447  0.6155E+00  0.3265E+02
     28.713  0.6902E+00  0.3283E+02
     28.979  0.1100E+01  0.3312E+02
     29.245  0.4398E+00  0.3324E+02
     29.510  0.6296E+00  0.3341E+02
     29.776  0.5485E+00  0.3355E+02
     30.042  0.2531E+00  0.3362E+02
     30.307  0.1120E+00  0.3365E+02
     30.573 -0.3896E-01  0.3364E+02
     30.839  0.4253E+00  0.3375E+02
     31.105  0.9288E+00  0.3400E+02
     31.370  0.1196E+01  0.3432E+02
     31.636  0.1250E+01  0.3465E+02
     31.902  0.2248E+01  0.3525E+02
     32.168  0.8614E+00  0.3548E+02
     32.433  0.4761E+00  0.3560E+02
     32.699  0.1431E+01  0.3598E+02
     32.965  0.1817E+01  0.3647E+02
     33.231  0.3563E+00  0.3656E+02
     33.496  0.5965E+00  0.3672E+02
     33.762  0.1308E+00  0.3675E+02
     34.028  0.3898E+00  0.3686E+02
     34.293  0.1931E+01  0.3737E+02
     34.559  0.1106E+01  0.3766E+02
     34.825  0.9780E+00  0.3792E+02
     35.091  0.5039E+00  0.3806E+02
     35.356 -0.6336E-01  0.3804E+02
     35.622  0.3345E+00  0.3813E+02
     35.888  0.1145E+01  0.3843E+02
     36.154  0.2598E+00  0.3850E+02
     36.419  0.5375E+00  0.3865E+02
     36.685  0.6058E+00  0.3881E+02
     36.951  0.7910E+00  0.3902E+02
     37.217  0.9064E+00  0.3926E+02
     37.482  0.1397E+01  0.3963E+02
     37.748  0.1696E+00  0.3967E+02
     38.014  0.1110E+01  0.3997E+02
     38.279  0.1356E+01  0.4033E+02
     38.545  0.1027E+01  0.4060E+02
     38.811  0.2736E+00  0.4068E+02
     39.077  0.8066E-01  0.4070E+02
     39.342  0.8610E+00  0.4093E+02
     39.608  0.1082E+01  0.4121E+02
     39.874  0.2243E+01  0.4181E+02
     40.140  0.1214E+00  0.4184E+02
     40.405  0.2020E+00  0.4189E+02
     40.671  0.1008E+01  0.4216E+02
     40.937  0.1636E+01  0.4260E+02
     41.203  0.3487E+00  0.4269E+02
     41.468  0.5840E+00  0.4285E+02
     41.734  0.1080E+01  0.4313E+02
     42.000  0.1503E+01  0.4353E+02
     42.266  0.1075E+01  0.4382E+02
     42.531  0.7076E+00  0.4401E+02
     42.797  0.4803E+00  0.4413E+02
     43.063  0.4923E+00  0.4426E+02
     43.328  0.1294E+01  0.4461E+02
     43.594  0.8516E+00  0.4483E+02
     43.860  0.1787E+01  0.4531E+02
     44.126  0.7217E+00  0.4550E+02
     44.391  0.1024E+01  0.4577E+02
     44.657  0.7296E+00  0.4597E+02
     44.923  0.1791E+01  0.4644E+02
     45.189  0.4694E+00  0.4657E+02
     45.454  0.8096E+00  0.4678E+02
     45.720  0.2041E+01  0.4732E+02
     45.986  0.8301E+00  0.4755E+02
     46.252  0.4835E+00  0.4767E+02
     46.517  0.9726E+00  0.4793E+02
     46.783  0.1286E+01  0.4827E+02
     47.049  0.8072E+00  0.4849E+02
     47.314  0.1786E+01  0.4896E+02
     47.580  0.4129E+00  0.4907E+02
     47.846  0.1139E+01  0.4938E+02
     48.112  0.3158E+00  0.4946E+02
     48.377  0.8328E+00  0.4968E+02
     48.643  0.6251E+00  0.4985E+02
     48.909 -0.7803E-01  0.4983E+02
     49.175  0.6810E+00  0.5001E+02
     49.440  0.2218E+01  0.5060E+02
     49.706  0.7919E+00  0.5081E+02
     49.972  0.6331E+00  0.5098E+02
     50.238  0.1474E+01  0.5137E+02
     50.503  0.1358E+01  0.5173E+02
     50.769  0.2340E+01  0.5235E+02
     51.035  0.7066E+00  0.5254E+02
     51.300  0.6084E+00  0.5270E+02
     51.566  0.4476E+00  0.5282E+02
     51.832  0.2876E+00  0.5289E+02
     52.098  0.5250E+00  0.5303E+02
     52.363  0.4617E+00  0.5316E+02
     52.629  0.1126E+01  0.5346E+02
     52.895  0.9094E+00  0.5370E+02
     53.161  0.5452E+00  0.5384E+02
     53.426  0.1442E+01  0.5423E+02
     53.692  0.5053E+00  0.5436E+02
     53.958  0.1094E+01  0.5465E+02
     54.224  0.2073E+01  0.5520E+02
     54.489  0.2050E+01  0.5575E+02
     54.755  0.1541E+01  0.5616E+02
     55.021  0.1088E+01  0.5644E+02
     55.286  0.8883E+00  0.5668E+02
     55.552  0.7473E+00  0.5688E+02
     55.818  0.1227E+01  0.5721E+02
     56.084  0.5203E+00  0.5734E+02
     56.349  0.8893E+00  0.5758E+02
     56.615  0.1690E+01  0.5803E+02
     56.881  0.1284E+01  0.5837E+02
     57.147  0.2127E+01  0.5894E+02
     57.412  0.1649E+01  0.5937E+02
     57.678  0.1829E+01  0.5986E+02
     57.944  0.2324E+01  0.6048E+02
     58.210  0.1674E+01  0.6092E+02
     58.475  0.1859E+01  0.6142E+02
     58.741  0.1216E+01  0.6174E+02
     59.007  0.2531E+01  0.6241E+02
     59.273  0.1365E+01  0.6277E+02
     59.538  0.1407E+01  0.6315E+02
     59.804  0.1996E+01  0.6368E+02
     60.070  0.1437E+01  0.6406E+02
     60.335  0.3059E+00  0.6414E+02
     60.601  0.1025E+01  0.6441E+02
     60.867  0.2151E+01  0.6499E+02
     61.133  0.5147E+00  0.6512E+02
     61.398  0.5430E+00  0.6527E+02
     61.664  0.2701E+01  0.6599E+02
     61.930  0.2449E+01  0.6664E+02
     62.196  0.1816E+01  0.6712E+02
     62.461  0.1691E+01  0.6757E+02
     62.727  0.2719E+01  0.6829E+02
     62.993  0.1669E+01  0.6873E+02
     63.259  0.5314E+00  0.6888E+02
     63.524  0.1065E+01  0.6916E+02
     63.790  0.2903E+01  0.6993E+02
     64.056  0.1722E+01  0.7039E+02
     64.321  0.1409E+01  0.7076E+02
     64.587  0.9602E+00  0.7102E+02
     64.853  0.9505E+00  0.7127E+02
     65.119  0.1962E+01  0.7179E+02
     65.384  0.3129E+01  0.7262E+02
     65.650  0.1668E+01  0.7307E+02
     65.916  0.9623E+00  0.7332E+02
     66.182  0.2353E+01  0.7395E+02
     66.447  0.8898E+00  0.7418E+02
     66.713  0.9159E+00  0.7443E+02
     66.979  0.9166E+00  0.7467E+02
     67.245  0.2951E+01  0.7545E+02
     67.510  0.1626E+01  0.7589E+02
     67.776  0.5142E+00  0.7602E+02
     68.042  0.5181E+00  0.7616E+02
     68.307  0.1747E+01  0.7662E+02
     68.573  0.2578E+01  0.7731E+02
     68.839  0.1001E+01  0.7758E+02
     69.105  0.1174E+01  0.7789E+02
     69.370  0.1488E+01  0.7828E+02
     69.636  0.1964E+01  0.7881E+02
     69.902  0.1224E+01  0.7913E+02
     70.168  0.1131E+01  0.7943E+02
     70.433  0.3969E+00  0.7954E+02
     70.699  0.9917E+00  0.7980E+02
     70.965  0.7664E+00  0.8000E+02
     71.231 -0.1103E-01  0.8000E+02
     71.496 -0.3210E-02  0.8000E+02
     71.762 -0.3089E-05  0.8000E+02
     72.028 -0.6866E-10  0.8000E+02
     72.294  0.0000E+00  0.8000E+02
     72.559  0.0000E+00  0.8000E+02
     72.825  0.0000E+00  0.8000E+02
     73.091  0.0000E+00  0.8000E+02
     73.356  0.0000E+00  0.8000E+02
     73.622  0.0000E+00  0.8000E+02
     73.888  0.0000E+00  0.8000E+02
     74.154  0.0000E+00  0.8000E+02
     74.419  0.0000E+00  0.8000E+02
