   4   4   0   0
  0.1073318E+02  0.3501570E-09  0.3501570E-09  0.3501570E-09  0.5000000E-15
  1.000000000000000E-004
  CAR 
 unknown system                          
     37.73529088     -4.28497873  301      6.27147533      1.00000000
     -4.285  0.0000E+00  0.0000E+00
     -4.145  0.0000E+00  0.0000E+00
     -4.005 -0.1995E-33 -0.2795E-34
     -3.865 -0.1911E-28 -0.2677E-29
     -3.725 -0.6813E-24 -0.9543E-25
     -3.585 -0.9027E-20 -0.1265E-20
     -3.445 -0.4322E-16 -0.6056E-17
     -3.305 -0.7804E-13 -0.1094E-13
     -3.164 -0.5223E-10 -0.7327E-11
     -3.024 -0.1295E-07 -0.1821E-08
     -2.884 -0.1196E-05 -0.1694E-06
     -2.744 -0.4177E-04 -0.6020E-05
     -2.604 -0.5532E-03 -0.8350E-04
     -2.464 -0.2426E-02 -0.4232E-03
     -2.324  0.2442E-02 -0.8116E-04
     -2.184  0.4281E-01  0.5916E-02
     -2.044  0.1046E+00  0.2057E-01
     -1.904  0.1205E+00  0.3745E-01
     -1.764  0.1741E+00  0.6184E-01
     -1.624  0.2552E+00  0.9759E-01
     -1.484  0.1807E+00  0.1229E+00
     -1.344  0.1977E+00  0.1506E+00
     -1.203  0.3375E+00  0.1979E+00
     -1.063  0.3233E+00  0.2431E+00
     -0.923  0.2911E+00  0.2839E+00
     -0.783  0.3823E+00  0.3375E+00
     -0.643  0.2992E+00  0.3794E+00
     -0.503  0.3376E+00  0.4267E+00
     -0.363  0.5093E+00  0.4980E+00
     -0.223  0.5125E+00  0.5698E+00
     -0.083  0.5363E+00  0.6449E+00
      0.057  0.3595E+00  0.6953E+00
      0.197  0.3689E+00  0.7469E+00
      0.337  0.7311E+00  0.8493E+00
      0.477  0.7756E+00  0.9580E+00
      0.617  0.6615E+00  0.1051E+01
      0.757  0.5415E+00  0.1126E+01
      0.898  0.6751E+00  0.1221E+01
      1.038  0.1036E+01  0.1366E+01
      1.178  0.1057E+01  0.1514E+01
      1.318  0.8191E+00  0.1629E+01
      1.458  0.1148E+01  0.1790E+01
      1.598  0.1793E+01  0.2041E+01
      1.738  0.2562E+01  0.2400E+01
      1.878  0.3554E+01  0.2898E+01
      2.018  0.3978E+01  0.3455E+01
      2.158  0.4078E+01  0.4026E+01
      2.298  0.4168E+01  0.4610E+01
      2.438  0.4526E+01  0.5244E+01
      2.578  0.5329E+01  0.5990E+01
      2.718  0.6093E+01  0.6844E+01
      2.858  0.6495E+01  0.7753E+01
      2.999  0.6257E+01  0.8630E+01
      3.139  0.5980E+01  0.9467E+01
      3.279  0.5868E+01  0.1029E+02
      3.419  0.5480E+01  0.1106E+02
      3.559  0.5262E+01  0.1179E+02
      3.699  0.5165E+01  0.1252E+02
      3.839  0.5142E+01  0.1324E+02
      3.979  0.5580E+01  0.1402E+02
      4.119  0.7192E+01  0.1503E+02
      4.259  0.7375E+01  0.1606E+02
      4.399  0.6768E+01  0.1701E+02
      4.539  0.8032E+01  0.1813E+02
      4.679  0.9159E+01  0.1942E+02
      4.819  0.8858E+01  0.2066E+02
      4.959  0.9589E+01  0.2200E+02
      5.100  0.1011E+02  0.2342E+02
      5.240  0.8512E+01  0.2461E+02
      5.380  0.6841E+01  0.2557E+02
      5.520  0.5914E+01  0.2639E+02
      5.660  0.5908E+01  0.2722E+02
      5.800  0.6750E+01  0.2817E+02
      5.940  0.7593E+01  0.2923E+02
      6.080  0.8631E+01  0.3044E+02
      6.220  0.8450E+01  0.3162E+02
      6.360  0.6993E+01  0.3260E+02
      6.500  0.7003E+01  0.3358E+02
      6.640  0.7038E+01  0.3457E+02
      6.780  0.6898E+01  0.3554E+02
      6.920  0.8222E+01  0.3669E+02
      7.060  0.1062E+02  0.3818E+02
      7.201  0.1311E+02  0.4001E+02
      7.341  0.9909E+01  0.4140E+02
      7.481  0.4388E+01  0.4201E+02
      7.621  0.2195E+01  0.4232E+02
      7.761  0.1788E+01  0.4257E+02
      7.901  0.1132E+01  0.4273E+02
      8.041  0.9562E+00  0.4286E+02
      8.181  0.1066E+01  0.4301E+02
      8.321  0.1410E+01  0.4321E+02
      8.461  0.1623E+01  0.4344E+02
      8.601  0.1069E+01  0.4359E+02
      8.741  0.5194E+00  0.4366E+02
      8.881  0.1139E+01  0.4382E+02
      9.021  0.2024E+01  0.4410E+02
      9.162  0.1287E+01  0.4428E+02
      9.302  0.5895E+00  0.4437E+02
      9.442  0.9123E+00  0.4450E+02
      9.582  0.1161E+01  0.4466E+02
      9.722  0.1283E+01  0.4484E+02
      9.862  0.1256E+01  0.4501E+02
     10.002  0.8137E+00  0.4513E+02
     10.142  0.8716E+00  0.4525E+02
     10.282  0.1149E+01  0.4541E+02
     10.422  0.1107E+01  0.4557E+02
     10.562  0.1118E+01  0.4572E+02
     10.702  0.9680E+00  0.4586E+02
     10.842  0.9754E+00  0.4599E+02
     10.982  0.1029E+01  0.4614E+02
     11.122  0.5431E+00  0.4621E+02
     11.263  0.4041E+00  0.4627E+02
     11.403  0.8839E+00  0.4639E+02
     11.543  0.1158E+01  0.4656E+02
     11.683  0.1170E+01  0.4672E+02
     11.823  0.9530E+00  0.4685E+02
     11.963  0.5316E+00  0.4693E+02
     12.103  0.3307E+00  0.4698E+02
     12.243  0.7200E+00  0.4708E+02
     12.383  0.9201E+00  0.4720E+02
     12.523  0.4078E+00  0.4726E+02
     12.663  0.3063E+00  0.4730E+02
     12.803  0.6833E+00  0.4740E+02
     12.943  0.6658E+00  0.4749E+02
     13.083  0.6409E+00  0.4758E+02
     13.223  0.6173E+00  0.4767E+02
     13.364  0.3575E+00  0.4772E+02
     13.504  0.2175E+00  0.4775E+02
     13.644  0.1632E+00  0.4777E+02
     13.784  0.3030E+00  0.4782E+02
     13.924  0.4522E+00  0.4788E+02
     14.064  0.2568E+00  0.4792E+02
     14.204  0.6343E+00  0.4800E+02
     14.344  0.1310E+01  0.4819E+02
     14.484  0.1490E+01  0.4840E+02
     14.624  0.1600E+01  0.4862E+02
     14.764  0.1638E+01  0.4885E+02
     14.904  0.1724E+01  0.4909E+02
     15.044  0.1465E+01  0.4930E+02
     15.184  0.8003E+00  0.4941E+02
     15.324  0.1125E+01  0.4957E+02
     15.465  0.1549E+01  0.4978E+02
     15.605  0.9959E+00  0.4992E+02
     15.745  0.7940E+00  0.5003E+02
     15.885  0.8685E+00  0.5016E+02
     16.025  0.9326E+00  0.5029E+02
     16.165  0.1177E+01  0.5045E+02
     16.305  0.1143E+01  0.5061E+02
     16.445  0.1169E+01  0.5078E+02
     16.585  0.9617E+00  0.5091E+02
     16.725  0.8097E+00  0.5102E+02
     16.865  0.8116E+00  0.5114E+02
     17.005  0.6562E+00  0.5123E+02
     17.145  0.7287E+00  0.5133E+02
     17.285  0.9748E+00  0.5147E+02
     17.425  0.1197E+01  0.5164E+02
     17.566  0.1633E+01  0.5186E+02
     17.706  0.1298E+01  0.5205E+02
     17.846  0.4991E+00  0.5212E+02
     17.986  0.6075E+00  0.5220E+02
     18.126  0.2056E+01  0.5249E+02
     18.266  0.2475E+01  0.5284E+02
     18.406  0.1414E+01  0.5303E+02
     18.546  0.7373E+00  0.5314E+02
     18.686  0.1045E+01  0.5328E+02
     18.826  0.1918E+01  0.5355E+02
     18.966  0.1867E+01  0.5381E+02
     19.106  0.1450E+01  0.5402E+02
     19.246  0.1377E+01  0.5421E+02
     19.386  0.1739E+01  0.5445E+02
     19.527  0.1586E+01  0.5467E+02
     19.667  0.1253E+01  0.5485E+02
     19.807  0.1248E+01  0.5503E+02
     19.947  0.1425E+01  0.5522E+02
     20.087  0.1631E+01  0.5545E+02
     20.227  0.1602E+01  0.5568E+02
     20.367  0.1936E+01  0.5595E+02
     20.507  0.2254E+01  0.5626E+02
     20.647  0.1828E+01  0.5652E+02
     20.787  0.1101E+01  0.5667E+02
     20.927  0.1128E+01  0.5683E+02
     21.067  0.1439E+01  0.5703E+02
     21.207  0.1770E+01  0.5728E+02
     21.347  0.1804E+01  0.5753E+02
     21.487  0.1463E+01  0.5774E+02
     21.628  0.1912E+01  0.5801E+02
     21.768  0.2264E+01  0.5832E+02
     21.908  0.1682E+01  0.5856E+02
     22.048  0.1491E+01  0.5877E+02
     22.188  0.1746E+01  0.5901E+02
     22.328  0.1824E+01  0.5927E+02
     22.468  0.2013E+01  0.5955E+02
     22.608  0.1964E+01  0.5983E+02
     22.748  0.1544E+01  0.6004E+02
     22.888  0.1652E+01  0.6027E+02
     23.028  0.1954E+01  0.6055E+02
     23.168  0.2118E+01  0.6084E+02
     23.308  0.1905E+01  0.6111E+02
     23.448  0.1566E+01  0.6133E+02
     23.588  0.1270E+01  0.6151E+02
     23.729  0.1405E+01  0.6170E+02
     23.869  0.1815E+01  0.6196E+02
     24.009  0.2102E+01  0.6225E+02
     24.149  0.2209E+01  0.6256E+02
     24.289  0.1753E+01  0.6281E+02
     24.429  0.1215E+01  0.6298E+02
     24.569  0.1258E+01  0.6315E+02
     24.709  0.1011E+01  0.6330E+02
     24.849  0.1168E+01  0.6346E+02
     24.989  0.2035E+01  0.6374E+02
     25.129  0.2418E+01  0.6408E+02
     25.269  0.2229E+01  0.6440E+02
     25.409  0.1499E+01  0.6461E+02
     25.549  0.1004E+01  0.6475E+02
     25.689  0.1307E+01  0.6493E+02
     25.830  0.1271E+01  0.6511E+02
     25.970  0.1470E+01  0.6531E+02
     26.110  0.1589E+01  0.6554E+02
     26.250  0.1748E+01  0.6578E+02
     26.390  0.1615E+01  0.6601E+02
     26.530  0.1332E+01  0.6619E+02
     26.670  0.1334E+01  0.6638E+02
     26.810  0.8801E+00  0.6650E+02
     26.950  0.8775E+00  0.6663E+02
     27.090  0.1773E+01  0.6688E+02
     27.230  0.2074E+01  0.6717E+02
     27.370  0.1420E+01  0.6736E+02
     27.510  0.1200E+01  0.6753E+02
     27.650  0.1770E+01  0.6778E+02
     27.790  0.1991E+01  0.6806E+02
     27.931  0.1808E+01  0.6831E+02
     28.071  0.1614E+01  0.6854E+02
     28.211  0.1472E+01  0.6874E+02
     28.351  0.1131E+01  0.6890E+02
     28.491  0.8185E+00  0.6902E+02
     28.631  0.7849E+00  0.6913E+02
     28.771  0.1758E+01  0.6937E+02
     28.911  0.2638E+01  0.6974E+02
     29.051  0.2454E+01  0.7009E+02
     29.191  0.1863E+01  0.7035E+02
     29.331  0.1730E+01  0.7059E+02
     29.471  0.2066E+01  0.7088E+02
     29.611  0.1963E+01  0.7116E+02
     29.751  0.1915E+01  0.7142E+02
     29.892  0.1949E+01  0.7170E+02
     30.032  0.1984E+01  0.7197E+02
     30.172  0.1751E+01  0.7222E+02
     30.312  0.1748E+01  0.7246E+02
     30.452  0.1876E+01  0.7273E+02
     30.592  0.1908E+01  0.7299E+02
     30.732  0.2413E+01  0.7333E+02
     30.872  0.2502E+01  0.7368E+02
     31.012  0.1701E+01  0.7392E+02
     31.152  0.1569E+01  0.7414E+02
     31.292  0.1686E+01  0.7438E+02
     31.432  0.1658E+01  0.7461E+02
     31.572  0.2163E+01  0.7491E+02
     31.712  0.2253E+01  0.7523E+02
     31.852  0.2106E+01  0.7552E+02
     31.993  0.2055E+01  0.7581E+02
     32.133  0.2377E+01  0.7614E+02
     32.273  0.2197E+01  0.7645E+02
     32.413  0.1534E+01  0.7667E+02
     32.553  0.1776E+01  0.7691E+02
     32.693  0.1849E+01  0.7717E+02
     32.833  0.1564E+01  0.7739E+02
     32.973  0.1777E+01  0.7764E+02
     33.113  0.1925E+01  0.7791E+02
     33.253  0.1371E+01  0.7810E+02
     33.393  0.1285E+01  0.7828E+02
     33.533  0.1473E+01  0.7849E+02
     33.673  0.9735E+00  0.7863E+02
     33.813  0.8590E+00  0.7875E+02
     33.953  0.9950E+00  0.7889E+02
     34.094  0.8752E+00  0.7901E+02
     34.234  0.8241E+00  0.7912E+02
     34.374  0.9101E+00  0.7925E+02
     34.514  0.8705E+00  0.7937E+02
     34.654  0.1066E+01  0.7952E+02
     34.794  0.1133E+01  0.7968E+02
     34.934  0.8489E+00  0.7980E+02
     35.074  0.6140E+00  0.7989E+02
     35.214  0.2534E+00  0.7992E+02
     35.354 -0.5001E-03  0.7992E+02
     35.494  0.4862E-01  0.7993E+02
     35.634  0.1956E+00  0.7996E+02
     35.774  0.2322E+00  0.7999E+02
     35.914  0.9365E-01  0.8000E+02
     36.054 -0.2435E-02  0.8000E+02
     36.195 -0.6050E-02  0.8000E+02
     36.335 -0.7095E-03  0.8000E+02
     36.475 -0.2457E-04  0.8000E+02
     36.615 -0.2897E-06  0.8000E+02
     36.755 -0.1215E-08  0.8000E+02
     36.895 -0.1846E-11  0.8000E+02
     37.035 -0.1029E-14  0.8000E+02
     37.175  0.0000E+00  0.8000E+02
     37.315  0.0000E+00  0.8000E+02
     37.455  0.0000E+00  0.8000E+02
     37.595  0.0000E+00  0.8000E+02
     37.735  0.0000E+00  0.8000E+02
