unknown system                          
   1.00000000000000     
     2.330000    0.000000    0.000000
    -1.165000    2.017839    0.000000
     0.000000    0.000000    4.264000
   Fe
     2
Direct
  0.000000  0.000000  0.000000
  0.333333  0.666667  0.500000
 
   20   20   36
  168.46      159.62      135.85      103.93      71.452      44.191      25.112      14.479      10.294      9.1447    
  8.7905      9.1448      10.294      14.479      25.112      44.191      71.452      103.93      135.85      159.62    
  159.63      159.62      143.35      115.70      83.921      54.688      32.268      18.198      11.540      9.4679    
  8.7933      8.7929      9.4675      11.541      18.198      32.267      54.686      83.925      115.71      143.37    
  135.86      143.34      135.85      115.70      88.535      60.844      37.678      21.689      13.052      9.8132    
  8.8282      8.4953      8.8272      9.8130      13.053      21.688      37.674      60.841      88.538      115.71    
  103.93      115.64      115.64      103.93      83.921      60.844      39.692      23.804      14.309      10.192    
  8.8794      8.2849      8.2845      8.8790      10.192      14.310      23.803      39.689      60.838      83.915    
  71.439      83.835      88.422      83.845      71.452      54.688      37.678      23.804      14.798      10.453    
  8.9246      8.1635      7.9016      8.1636      8.9247      10.454      14.801      23.807      37.678      54.680    
  44.190      54.617      60.722      60.725      54.623      44.191      32.268      21.689      14.309      10.453    
  8.9426      8.1118      7.6857      7.6861      8.1119      8.9414      10.453      14.313      21.697      32.274    
  25.121      32.246      37.609      39.602      37.606      32.239      25.112      18.198      13.052      10.192    
  8.9247      8.1118      7.6174      7.4572      7.6182      8.1109      8.9211      10.188      13.053      18.204    
  14.479      18.210      21.690      23.787      23.783      21.682      18.204      14.479      11.540      9.8131    
  8.8795      8.1635      7.6856      7.4572      7.4580      7.6869      8.1631      8.8755      9.8061      11.534    
  10.284      11.558      13.090      14.354      14.842      14.351      13.090      11.565      10.294      9.4679    
  8.8281      8.2850      7.9015      7.6860      7.6183      7.6869      7.9044      8.2885      8.8280      9.4614    
  9.1444      9.4910      9.8618      10.263      10.538      10.539      10.267      9.8688      9.4970      9.1447    
  8.7932      8.4953      8.2846      8.1635      8.1119      8.1110      8.1630      8.2885      8.5031      8.7994    
  8.7995      8.8310      8.8907      8.9656      9.0307      9.0582      9.0343      8.9692      8.8900      8.8246    
  8.7905      8.7929      8.8272      8.8790      8.9247      8.9414      8.9210      8.8754      8.8282      8.7994    
  9.1443      8.8309      8.5686      8.3877      8.2904      8.2544      8.2553      8.2907      8.3837      8.5609    
  8.8250      9.1448      9.4675      9.8131      10.192      10.454      10.453      10.188      9.8062      9.4615    
  10.284      9.4909      8.8909      8.3877      8.0385      7.8470      7.7881      7.8463      8.0358      8.3841    
  8.8908      9.4974      10.294      11.541      13.052      14.310      14.801      14.313      13.052      11.534    
  14.479      11.558      9.8619      8.9657      8.2903      7.8470      7.6379      7.6372      7.8458      8.2907    
  8.9696      9.8687      11.564      14.479      18.198      21.688      23.803      23.807      21.697      18.204    
  25.121      18.210      13.090      10.263      9.0306      8.2544      7.7882      7.6372      7.7873      8.2552    
  9.0343      10.267      13.089      18.203      25.112      32.267      37.674      39.689      37.678      32.274    
  44.190      32.246      21.690      14.354      10.538      9.0582      8.2554      7.8462      7.8458      8.2553    
  9.0595      10.538      14.350      21.683      32.241      44.191      54.686      60.841      60.838      54.680    
  71.439      54.617      37.609      23.787      14.842      10.539      9.0343      8.2907      8.0357      8.2907    
  9.0343      10.538      14.840      23.783      37.609      54.624      71.452      83.925      88.538      83.915    
  103.93      83.835      60.722      39.602      23.783      14.351      10.267      8.9692      8.3837      8.3841    
  8.9696      10.267      14.350      23.783      39.605      60.728      83.841      103.93      115.71      115.71    
  135.86      115.64      88.422      60.725      37.606      21.682      13.090      9.8688      8.8900      8.5608    
  8.8907      9.8687      13.089      21.683      37.609      60.728      88.419      115.63      135.85      143.37    
  159.63      143.34      115.64      83.845      54.623      32.239      18.204      11.565      9.4970      8.8245    
  8.8250      9.4974      11.564      18.203      32.241      54.624      83.841      115.63      143.32      159.62    
  159.30      150.95      128.48      98.264      67.509      41.731      23.781      13.887      10.061      8.9821    
  8.6371      8.9822      10.061      13.887      23.781      41.731      67.509      98.264      128.48      150.95    
  150.96      150.95      135.57      109.40      79.307      51.637      30.486      17.319      11.183      9.2913    
  8.6344      8.6340      9.2909      11.183      17.319      30.485      51.635      79.311      109.41      135.58    
  128.49      135.56      128.48      109.40      83.673      57.453      35.569      20.560      12.553      9.6027    
  8.6647      8.3421      8.6637      9.6026      12.554      20.560      35.565      57.450      83.676      109.41    
  98.261      109.36      109.36      98.264      79.307      57.452      37.464      22.530      13.701      9.9367    
  8.7125      8.1371      8.1367      8.7121      9.9373      13.702      22.530      37.461      57.447      79.302    
  67.497      79.243      83.590      79.252      67.509      51.636      35.569      22.530      14.149      10.168    
  8.7556      8.0193      7.7675      8.0195      8.7557      10.169      14.152      22.533      35.569      51.630    
  41.730      51.591      57.371      57.374      51.596      41.731      30.486      20.560      13.701      10.168    
  8.7728      7.9694      7.5603      7.5608      7.9696      8.7717      10.168      13.705      20.568      30.491    
  23.790      30.487      35.543      37.424      35.540      30.480      23.781      17.319      12.553      9.9366    
  8.7556      7.9694      7.4950      7.3419      7.4958      7.9687      8.7523      9.9334      12.554      17.325    
  13.886      17.350      20.600      22.563      22.559      20.592      17.344      13.887      11.183      9.6026    
  8.7126      8.0194      7.5603      7.3418      7.3425      7.5615      8.0190      8.7089      9.5962      11.177    
  10.052      11.217      12.623      13.789      14.241      13.787      12.623      11.223      10.061      9.2913    
  8.6646      8.1372      7.7675      7.5607      7.4959      7.5615      7.7700      8.1404      8.6646      9.2853    
  8.9818      9.3277      9.6772      10.044      10.294      10.295      10.048      9.6836      9.3333      8.9821    
  8.6343      8.3421      8.1367      8.0194      7.9696      7.9687      8.0189      8.1404      8.3493      8.6400    
  8.6454      8.6832      8.7490      8.8287      8.8966      8.9248      8.8999      8.8320      8.7483      8.6772    
  8.6371      8.6340      8.6638      8.7121      8.7556      8.7717      8.7522      8.7088      8.6647      8.6401    
  8.9817      8.6831      8.4352      8.2659      8.1759      8.1432      8.1441      8.1763      8.2622      8.4281    
  8.6776      8.9822      9.2909      9.6026      9.9372      10.169      10.168      9.9334      9.5963      9.2853    
  10.052      9.3277      8.7491      8.2659      7.9319      7.7491      7.6929      7.7485      7.9294      8.2626    
  8.7491      9.3337      10.061      11.183      12.554      13.702      14.152      13.705      12.554      11.177    
  13.887      11.217      9.6773      8.8288      8.1758      7.7491      7.5481      7.5475      7.7480      8.1762    
  8.8324      9.6836      11.222      13.887      17.319      20.560      22.530      22.533      20.568      17.325    
  23.790      17.350      12.623      10.044      8.8965      8.1432      7.6930      7.5475      7.6921      8.1439    
  8.8999      10.047      12.622      17.344      23.781      30.485      35.565      37.461      35.569      30.491    
  41.730      30.487      20.599      13.789      10.294      8.9249      8.1441      7.7484      7.7480      8.1440    
  8.9260      10.294      13.786      20.592      30.482      41.731      51.635      57.450      57.447      51.630    
  67.497      51.591      35.543      22.563      14.241      10.295      8.8999      8.1762      7.9294      8.1763    
  8.8999      10.294      14.238      22.560      35.543      51.597      67.509      79.311      83.676      79.302    
  98.261      79.243      57.371      37.424      22.559      13.787      10.048      8.8320      8.2623      8.2626    
  8.8324      10.047      13.786      22.560      37.427      57.377      79.249      98.264      109.41      109.41    
  128.49      109.36      83.590      57.374      35.540      20.591      12.623      9.6837      8.7483      8.4281    
  8.7490      9.6836      12.622      20.592      35.543      57.377      83.587      109.35      128.48      135.58    
  150.96      135.56      109.36      79.252      51.596      30.480      17.344      11.223      9.3333      8.6772    
  8.6776      9.3337      11.222      17.344      30.482      51.597      79.249      109.35      135.55      150.95    
  134.75      127.69      108.66      83.018      56.911      35.162      20.282      12.367      9.4611      8.5377    
  8.2208      8.5378      9.4613      12.367      20.282      35.162      56.911      83.018      108.66      127.69    
  127.69      127.69      114.66      92.457      66.895      43.460      25.761      15.035      10.270      8.8062    
  8.2002      8.1998      8.8058      10.271      15.035      25.761      43.459      66.898      92.466      114.67    
  108.67      114.67      108.66      92.457      70.592      48.352      29.956      17.605      11.276      9.0474    
  8.2151      7.9225      8.2142      9.0472      11.277      17.605      29.954      48.350      70.595      92.465    
  83.015      92.452      92.453      83.018      66.895      48.352      31.527      19.184      12.136      9.2760    
  8.2508      7.7307      7.7304      8.2503      9.2764      12.137      19.184      31.524      48.347      66.890    
  56.902      66.889      70.589      66.897      56.911      43.460      29.956      19.184      12.475      9.4328    
  8.2858      7.6215      7.3980      7.6217      8.2859      9.4332      12.477      19.187      29.956      43.455    
  35.162      43.482      48.380      48.383      43.487      35.162      25.761      17.605      12.136      9.4327    
  8.3002      7.5754      7.2137      7.2141      7.5757      8.2994      9.4324      12.139      17.611      25.766    
  20.289      25.825      30.046      31.623      30.044      25.820      20.282      15.035      11.276      9.2760    
  8.2858      7.5754      7.1560      7.0219      7.1567      7.5749      8.2833      9.2735      11.277      15.040    
  12.366      15.120      17.749      19.354      19.351      17.743      15.115      12.367      10.271      9.0473    
  8.2508      7.6216      7.2137      7.0219      7.0224      7.2145      7.6212      8.2479      9.0423      10.266    
  9.4539      10.351      11.436      12.348      12.703      12.345      11.436      10.356      9.4612      8.8061    
  8.2150      7.7308      7.3979      7.2141      7.1568      7.2145      7.3997      7.7333      8.2149      8.8013    
  8.5375      8.8836      9.2012      9.4924      9.6845      9.6853      9.4954      9.2061      8.8880      8.5377    
  8.2001      7.9225      7.7304      7.6216      7.5757      7.5749      7.6211      7.7332      7.9283      8.2047    
  8.2274      8.2848      8.3698      8.4649      8.5421      8.5730      8.5446      8.4673      8.3691      8.2800    
  8.2208      8.1998      8.2142      8.2503      8.2858      8.2995      8.2832      8.2479      8.2151      8.2047    
  8.5373      8.2847      8.0819      7.9494      7.8836      7.8623      7.8630      7.8840      7.9465      8.0762    
  8.2804      8.5378      8.8058      9.0472      9.2763      9.4332      9.4324      9.2735      9.0424      8.8014    
  9.4538      8.8836      8.3699      7.9494      7.6636      7.5094      7.4625      7.5091      7.6618      7.9468    
  8.3699      8.8884      9.4612      10.271      11.277      12.137      12.477      12.139      11.277      10.266    
  12.366      10.351      9.2013      8.4649      7.8835      7.5094      7.3348      7.3344      7.5087      7.8839    
  8.4677      9.2062      10.356      12.367      15.035      17.605      19.184      19.187      17.611      15.040    
  20.289      15.120      11.436      9.4924      8.5420      7.8623      7.4626      7.3344      7.4618      7.8627    
  8.5446      9.4950      11.435      15.115      20.282      25.761      29.954      31.524      29.956      25.766    
  35.162      25.825      17.749      12.347      9.6845      8.5730      7.8630      7.5090      7.5086      7.8627    
  8.5738      9.6849      12.345      17.744      25.821      35.162      43.459      48.350      48.347      43.455    
  56.902      43.482      30.046      19.354      12.703      9.6853      8.5445      7.8840      7.6618      7.8840    
  8.5446      9.6849      12.701      19.351      30.046      43.487      56.911      66.898      70.595      66.891    
  83.015      66.889      48.380      31.623      19.351      12.345      9.4953      8.4673      7.9465      7.9468    
  8.4677      9.4949      12.345      19.352      31.626      48.385      66.894      83.018      92.466      92.465    
  108.67      92.452      70.589      48.383      30.044      17.743      11.436      9.2062      8.3692      8.0762    
  8.3698      9.2062      11.435      17.744      30.046      48.385      70.587      92.445      108.66      114.67    
  127.69      114.67      92.453      66.897      43.487      25.820      15.115      10.356      8.8880      8.2799    
  8.2803      8.8884      10.356      15.115      25.821      43.487      66.894      92.444      114.66      127.69    
  101.98      96.609      82.122      62.586      42.785      26.555      15.852      10.533      8.6980      7.9209    
  7.6499      7.9210      8.6981      10.533      15.852      26.555      42.785      62.586      82.122      96.609    
  96.612      96.609      86.687      69.752      50.297      32.649      19.673      12.216      9.1680      8.1206    
  7.5991      7.5988      8.1203      9.1684      12.217      19.672      32.649      50.299      69.757      86.694    
  82.127      86.706      82.122      69.752      53.088      36.274      22.657      13.900      9.7357      8.3004    
  7.5855      7.3397      7.5847      8.3001      9.7363      13.900      22.655      36.272      53.089      69.757    
  62.584      69.795      69.796      62.586      50.297      36.274      23.784      14.957      10.236      8.4342    
  7.5970      7.1619      7.1616      7.5966      8.4343      10.236      14.956      23.782      36.270      50.294    
  42.779      50.370      53.191      50.375      42.785      32.649      22.657      14.957      10.437      8.5140    
  7.6154      7.0600      6.8774      7.0602      7.6154      8.5141      10.438      14.958      22.657      32.646    
  26.554      32.762      36.449      36.451      32.765      26.555      19.673      13.900      10.236      8.5140    
  7.6238      7.0163      6.7220      6.7224      7.0167      7.6234      8.5137      10.238      13.904      19.676    
  15.856      19.821      22.904      24.065      22.902      19.818      15.852      12.216      9.7356      8.4342    
  7.6154      7.0163      6.6736      6.5657      6.6742      7.0161      7.6139      8.4327      9.7363      12.220    
  10.533      12.377      14.190      15.316      15.314      14.186      12.374      10.533      9.1680      8.3003    
  7.5970      7.0600      6.7220      6.5657      6.5659      6.7224      7.0598      7.5952      8.2970      9.1650    
  8.6930      9.3183      10.028      10.627      10.862      10.625      10.028      9.3216      8.6980      8.1206    
  7.5855      7.1619      6.8774      6.7224      6.6742      6.7224      6.8783      7.1634      7.5854      8.1174    
  7.9207      8.2625      8.5776      8.8201      8.9606      8.9610      8.8218      8.5807      8.2654      7.9210    
  7.5990      7.3397      7.1616      7.0601      7.0167      7.0161      7.0597      7.1634      7.3435      7.6020    
  7.6543      7.7423      7.8558      7.9731      8.0635      8.0983      8.0650      7.9745      7.8552      7.7391    
  7.6499      7.5987      7.5848      7.5966      7.6154      7.6234      7.6138      7.5952      7.5855      7.6020    
  7.9206      7.7423      7.6103      7.5356      7.5086      7.5057      7.5063      7.5090      7.5338      7.6066    
  7.7394      7.9210      8.1203      8.3002      8.4343      8.5141      8.5137      8.4327      8.2971      8.1174    
  8.6930      8.2624      7.8559      7.5356      7.3267      7.2187      7.1870      7.2187      7.3258      7.5341    
  7.8559      8.2657      8.6981      9.1684      9.7363      10.236      10.438      10.238      9.7363      9.1650    
  10.533      9.3183      8.5776      7.9731      7.5085      7.2187      7.0865      7.0863      7.2183      7.5088    
  7.9749      8.5808      9.3212      10.533      12.217      13.900      14.956      14.958      13.904      12.219    
  15.856      12.377      10.028      8.8200      8.0634      7.5057      7.1871      7.0863      7.1864      7.5058    
  8.0650      8.8216      10.028      12.373      15.852      19.672      22.655      23.782      22.657      19.676    
  26.555      19.821      14.190      10.627      8.9606      8.0984      7.5063      7.2187      7.2183      7.5059    
  8.0988      8.9609      10.625      14.186      19.818      26.555      32.649      36.272      36.270      32.646    
  42.779      32.762      22.904      15.316      10.862      8.9610      8.0650      7.5089      7.3258      7.5089    
  8.0650      8.9609      10.861      15.315      22.904      32.765      42.785      50.299      53.089      50.294    
  62.584      50.370      36.449      24.065      15.314      10.625      8.8217      7.9745      7.5338      7.5341    
  7.9749      8.8216      10.625      15.315      24.067      36.452      50.373      62.586      69.757      69.757    
  82.127      69.795      53.191      36.451      22.902      14.186      10.028      8.5808      7.8553      7.6065    
  7.8558      8.5808      10.028      14.186      22.904      36.452      53.190      69.790      82.122      86.693    
  96.612      86.706      69.796      50.375      32.765      19.818      12.374      9.3216      8.2654      7.7391    
  7.7394      8.2657      9.3212      12.373      19.818      32.765      50.373      69.790      86.699      96.609    
  68.899      65.228      55.331      42.058      28.815      18.335      11.874      8.9835      7.8949      7.2603    
  7.0472      7.2604      7.8950      8.9835      11.874      18.335      28.815      42.058      55.331      65.228    
  65.229      65.228      58.435      46.881      33.750      22.142      14.037      9.7830      8.1723      7.3726    
  6.9596      6.9594      7.3723      8.1727      9.7837      14.037      22.142      33.751      46.883      58.438    
  55.333      58.471      55.331      46.881      35.597      24.446      15.787      10.627      8.4129      7.4786    
  6.9071      6.7174      6.9065      7.4784      8.4135      10.627      15.786      24.445      35.598      46.883    
  42.057      46.972      46.972      42.058      33.750      24.446      16.459      11.175      8.6140      7.5576    
  6.8827      6.5480      6.5478      6.8824      7.5575      8.6141      11.175      16.458      24.444      33.749    
  28.812      33.900      35.805      33.902      28.815      22.142      15.787      11.175      8.6960      7.5988    
  6.8752      6.4469      6.3099      6.4471      6.8753      7.5986      8.6961      11.176      15.787      22.140    
  18.335      22.343      24.765      24.766      22.344      18.335      14.037      10.627      8.6140      7.5987    
  6.8741      6.4013      6.1799      6.1802      6.4018      6.8741      7.5985      8.6149      10.629      14.038    
  11.876      14.269      16.188      16.922      16.187      14.268      11.874      9.7831      8.4129      7.5576    
  6.8753      6.4013      6.1393      6.0580      6.1397      6.4014      6.8746      7.5569      8.4135      9.7849    
  8.9831      10.021      11.063      11.725      11.724      11.061      10.019      8.9835      8.1724      7.4786    
  6.8828      6.4469      6.1798      6.0580      6.0581      6.1800      6.4467      6.8819      7.4770      8.1708    
  7.8922      8.3967      8.8449      9.1922      9.3262      9.1914      8.8449      8.3986      7.8949      7.3726    
  6.9070      6.5480      6.3098      6.1802      6.1398      6.1800      6.3100      6.5487      6.9070      7.3708    
  7.2602      7.5856      7.8916      8.1289      8.2580      8.2581      8.1296      7.8930      7.5871      7.2604    
  6.9596      6.7174      6.5478      6.4470      6.4018      6.4014      6.4466      6.5487      6.7194      6.9611    
  7.0495      7.1693      7.3078      7.4415      7.5401      7.5768      7.5407      7.4420      7.3074      7.1676    
  7.0472      6.9594      6.9065      6.8824      6.8753      6.8741      6.8746      6.8818      6.9071      6.9611    
  7.2601      7.1693      7.1152      7.1003      7.1113      7.1258      7.1262      7.1116      7.0994      7.1133    
  7.1679      7.2604      7.3724      7.4784      7.5575      7.5986      7.5986      7.5569      7.4770      7.3708    
  7.8921      7.5855      7.3079      7.1003      6.9737      6.9137      6.8975      6.9140      6.9736      7.0996    
  7.3079      7.5873      7.8950      8.1727      8.4134      8.6141      8.6961      8.6149      8.4134      8.1708    
  8.9832      8.3968      7.8916      7.4415      7.1112      6.9137      6.8268      6.8267      6.9137      7.1114    
  7.4424      7.8932      8.3982      8.9835      9.7837      10.627      11.175      11.176      10.629      9.7849    
  11.876      10.021      8.8449      8.1289      7.5400      7.1259      6.8975      6.8267      6.8970      7.1257    
  7.5407      8.1296      8.8444      10.019      11.874      14.037      15.786      16.458      15.787      14.038    
  18.335      14.269      11.063      9.1921      8.2581      7.5768      7.1262      6.9140      6.9136      7.1257    
  7.5769      8.2583      9.1913      11.061      14.268      18.335      22.142      24.445      24.444      22.140    
  28.812      22.343      16.188      11.725      9.3263      8.2581      7.5407      7.1116      6.9736      7.1115    
  7.5407      8.2582      9.3261      11.724      16.188      22.345      28.815      33.751      35.598      33.749    
  42.057      33.900      24.765      16.922      11.724      9.1913      8.1295      7.4420      7.0994      7.0996    
  7.4424      8.1296      9.1913      11.724      16.923      24.767      33.902      42.058      46.883      46.883    
  55.333      46.972      35.805      24.766      16.187      11.061      8.8449      7.8931      7.3074      7.1133    
  7.3078      7.8932      8.8444      11.061      16.188      24.767      35.804      46.969      55.331      58.438    
  65.229      58.471      46.972      33.902      22.344      14.268      10.019      8.3987      7.5871      7.1676    
  7.1678      7.5873      8.3983      10.019      14.268      22.345      33.902      46.969      58.468      65.228    
  41.421      39.202      33.260      25.431      17.894      12.312      9.2225      7.9143      7.1356      6.6626    
  6.5093      6.6627      7.1357      7.9143      9.2224      12.312      17.894      25.431      33.260      39.202    
  39.202      39.202      35.103      28.216      20.599      14.201      10.115      8.2024      7.2973      6.6852    
  6.3863      6.3862      6.6850      7.2976      8.2030      10.116      14.201      20.599      28.217      35.104    
  33.261      35.151      33.260      28.216      21.626      15.382      10.880      8.4798      7.4164      6.7096    
  6.2915      6.1573      6.2911      6.7094      7.4167      8.4803      10.880      15.381      21.626      28.217    
  25.431      28.342      28.342      25.431      20.599      15.382      11.183      8.6654      7.4837      6.7273    
  6.2257      5.9886      5.9884      6.2254      6.7271      7.4836      8.6651      11.182      15.381      20.598    
  17.894      20.803      21.908      20.804      17.894      14.201      10.880      8.6654      7.5049      6.7358    
  6.1875      5.8805      5.7849      5.8807      6.1875      6.7355      7.5046      8.6654      10.880      14.201    
  12.312      14.466      15.804      15.805      14.467      12.312      10.115      8.4799      7.4837      6.7357    
  6.1750      5.8285      5.6711      5.6713      5.8289      6.1751      6.7356      7.4839      8.4807      10.116    
  9.2232      10.411      11.395      11.778      11.395      10.410      9.2224      8.2024      7.4164      6.7272    
  6.1875      5.8285      5.6348      5.5754      5.6351      5.8287      6.1874      6.7272      7.4167      8.2032    
  7.9140      8.5005      9.0301      9.3606      9.3604      9.0296      8.5003      7.9143      7.2974      6.7095    
  6.2257      5.8805      5.6710      5.5754      5.5753      5.6709      5.8804      6.2255      6.7091      7.2968    
  7.1346      7.5835      7.9627      8.2135      8.3008      8.2131      7.9627      7.5843      7.1356      6.6852    
  6.2914      5.9886      5.7848      5.6713      5.6352      5.6709      5.7846      5.9887      6.2914      6.6845    
  6.6626      6.9593      7.2383      7.4558      7.5748      7.5747      7.4558      7.2386      6.9598      6.6627    
  6.3863      6.1574      5.9885      5.8807      5.8290      5.8288      5.8804      5.9887      6.1581      6.3868    
  6.5101      6.6544      6.8059      6.9427      7.0394      7.0744      7.0394      6.9427      6.8056      6.6538    
  6.5093      6.3861      6.2911      6.2254      6.1875      6.1751      6.1874      6.2254      6.2915      6.3868    
  6.6625      6.6544      6.6670      6.6977      6.7339      6.7585      6.7587      6.7341      6.6974      6.6663    
  6.6539      6.6627      6.6850      6.7094      6.7270      6.7355      6.7356      6.7272      6.7091      6.6845    
  7.1345      6.9592      6.8059      6.6977      6.6378      6.6136      6.6083      6.6140      6.6381      6.6976    
  6.8059      6.9599      7.1357      7.2976      7.4167      7.4836      7.5046      7.4839      7.4167      7.2968    
  7.9140      7.5835      7.2383      6.9428      6.7339      6.6136      6.5625      6.5626      6.6137      6.7340    
  6.9430      7.2387      7.5840      7.9143      8.2030      8.4803      8.6652      8.6654      8.4807      8.2032    
  9.2233      8.5005      7.9627      7.4558      7.0393      6.7585      6.6083      6.5625      6.6079      6.7583    
  7.0394      7.4560      7.9624      8.4997      9.2224      10.115      10.880      11.182      10.880      10.116    
  12.312      10.411      9.0300      8.2135      7.5749      7.0744      6.7587      6.6140      6.6137      6.7583    
  7.0743      7.5750      8.2133      9.0292      10.410      12.312      14.201      15.381      15.381      14.201    
  17.894      14.466      11.395      9.3606      8.3009      7.5748      7.0394      6.7341      6.6380      6.7340    
  7.0394      7.5750      8.3011      9.3607      11.395      14.467      17.894      20.599      21.626      20.598    
  25.431      20.803      15.804      11.778      9.3604      8.2131      7.4557      6.9427      6.6975      6.6976    
  6.9430      7.4559      8.2133      9.3607      11.779      15.805      20.804      25.431      28.217      28.217    
  33.261      28.342      21.908      15.805      11.395      9.0296      7.9627      7.2386      6.8056      6.6663    
  6.8059      7.2387      7.9624      9.0293      11.395      15.805      21.908      28.341      33.260      35.104    
  39.202      35.151      28.342      20.804      14.467      10.410      8.5004      7.5843      6.9598      6.6537    
  6.6539      6.9599      7.5840      8.4997      10.410      14.467      20.804      28.341      35.150      39.202    
  22.497      21.376      18.421      14.668      11.289      9.0307      7.8536      7.0807      6.5160      6.1941    
  6.0926      6.1942      6.5161      7.0807      7.8536      9.0307      11.289      14.668      18.421      21.376    
  21.376      21.376      19.314      15.941      12.398      9.6683      8.0962      7.2254      6.5642      6.1373    
  5.9380      5.9379      6.1372      6.5644      7.2258      8.0967      9.6684      12.398      15.941      19.314    
  18.421      19.367      18.421      15.941      12.831      10.088      8.2953      7.3150      6.5955      6.0877    