   2   2   0   0
  0.1002374E+02  0.2330000E-09  0.2330000E-09  0.4264000E-09  0.5000000E-15
  1.000000000000000E-004
  CAR 
 unknown system                          
     73.01237411     -5.46280663  301      7.10874409      1.00000000
     -5.463  0.0000E+00  0.0000E+00
     -5.201  0.0000E+00  0.0000E+00
     -4.940  0.0000E+00  0.0000E+00
     -4.678  0.0000E+00  0.0000E+00
     -4.416  0.0000E+00  0.0000E+00
     -4.155  0.0000E+00  0.0000E+00
     -3.893  0.0000E+00  0.0000E+00
     -3.632 -0.2690E-34 -0.7035E-35
     -3.370 -0.3008E-25 -0.7869E-26
     -3.109 -0.1072E-17 -0.2805E-18
     -2.847 -0.1162E-11 -0.3039E-12
     -2.585 -0.4019E-07 -0.1051E-07
     -2.324 -0.4052E-04 -0.1061E-04
     -2.062 -0.4217E-03 -0.1209E-03
     -1.801  0.8928E-02  0.2215E-02
     -1.539  0.5150E-01  0.1569E-01
     -1.277  0.1058E+00  0.4337E-01
     -1.016  0.5553E-01  0.5789E-01
     -0.754  0.1470E+00  0.9636E-01
     -0.493  0.1757E+00  0.1423E+00
     -0.231  0.2013E+00  0.1950E+00
      0.030  0.8991E-01  0.2185E+00
      0.292  0.2100E+00  0.2734E+00
      0.554  0.3058E+00  0.3534E+00
      0.815  0.3153E+00  0.4359E+00
      1.077  0.3018E+00  0.5148E+00
      1.338  0.2704E+00  0.5856E+00
      1.600  0.3250E+00  0.6706E+00
      1.862  0.7758E+00  0.8735E+00
      2.123  0.1156E+01  0.1176E+01
      2.385  0.1733E+01  0.1629E+01
      2.646  0.2097E+01  0.2178E+01
      2.908  0.2779E+01  0.2904E+01
      3.169  0.2419E+01  0.3537E+01
      3.431  0.2645E+01  0.4229E+01
      3.693  0.2635E+01  0.4918E+01
      3.954  0.3114E+01  0.5733E+01
      4.216  0.3330E+01  0.6604E+01
      4.477  0.2845E+01  0.7348E+01
      4.739  0.2321E+01  0.7955E+01
      5.001  0.2738E+01  0.8671E+01
      5.262  0.4005E+01  0.9719E+01
      5.524  0.3548E+01  0.1065E+02
      5.785  0.3593E+01  0.1159E+02
      6.047  0.2951E+01  0.1236E+02
      6.308  0.3465E+01  0.1327E+02
      6.570  0.3559E+01  0.1420E+02
      6.832  0.3446E+01  0.1510E+02
      7.093  0.3265E+01  0.1595E+02
      7.355  0.3184E+01  0.1678E+02
      7.616  0.4075E+01  0.1785E+02
      7.878  0.4755E+01  0.1909E+02
      8.140  0.4008E+01  0.2014E+02
      8.401  0.3426E+01  0.2104E+02
      8.663  0.8385E+00  0.2126E+02
      8.924  0.4789E+00  0.2138E+02
      9.186  0.3671E+00  0.2148E+02
      9.447  0.6787E+00  0.2166E+02
      9.709  0.9735E+00  0.2191E+02
      9.971  0.5952E+00  0.2207E+02
     10.232  0.3530E+00  0.2216E+02
     10.494  0.4057E+00  0.2227E+02
     10.755  0.5437E+00  0.2241E+02
     11.017  0.3187E+00  0.2249E+02
     11.279  0.3850E+00  0.2259E+02
     11.540  0.7178E+00  0.2278E+02
     11.802  0.4868E+00  0.2291E+02
     12.063  0.5143E+00  0.2304E+02
     12.325  0.4263E+00  0.2315E+02
     12.586  0.1337E+00  0.2319E+02
     12.848  0.4152E+00  0.2330E+02
     13.110  0.3566E+00  0.2339E+02
     13.371  0.3775E+00  0.2349E+02
     13.633  0.2488E+00  0.2355E+02
     13.894  0.2817E+00  0.2363E+02
     14.156  0.3890E+00  0.2373E+02
     14.418  0.6282E+00  0.2389E+02
     14.679  0.5684E+00  0.2404E+02
     14.941  0.1662E+00  0.2409E+02
     15.202  0.2138E+00  0.2414E+02
     15.464  0.1120E+00  0.2417E+02
     15.725  0.9897E-01  0.2420E+02
     15.987  0.3617E+00  0.2429E+02
     16.249  0.2138E+00  0.2435E+02
     16.510  0.1826E+00  0.2440E+02
     16.772  0.4176E+00  0.2450E+02
     17.033  0.6696E+00  0.2468E+02
     17.295  0.1003E+01  0.2494E+02
     17.557  0.9786E+00  0.2520E+02
     17.818  0.5605E+00  0.2535E+02
     18.080  0.5075E+00  0.2548E+02
     18.341  0.5655E+00  0.2563E+02
     18.603  0.7428E+00  0.2582E+02
     18.864  0.5896E+00  0.2597E+02
     19.126  0.8908E+00  0.2621E+02
     19.388  0.8759E+00  0.2644E+02
     19.649  0.6402E+00  0.2660E+02
     19.911  0.4534E+00  0.2672E+02
     20.172  0.4549E+00  0.2684E+02
     20.434  0.7875E+00  0.2705E+02
     20.696  0.7832E+00  0.2725E+02
     20.957  0.6147E+00  0.2741E+02
     21.219  0.3423E+00  0.2750E+02
     21.480  0.6915E+00  0.2768E+02
     21.742  0.5891E+00  0.2784E+02
     22.004  0.5033E+00  0.2797E+02
     22.265  0.8346E+00  0.2819E+02
     22.527  0.6661E+00  0.2836E+02
     22.788  0.6081E+00  0.2852E+02
     23.050  0.6827E+00  0.2870E+02
     23.311  0.4434E+00  0.2882E+02
     23.573  0.8292E+00  0.2903E+02
     23.835  0.1168E+01  0.2934E+02
     24.096  0.8815E+00  0.2957E+02
     24.358  0.6707E+00  0.2974E+02
     24.619  0.8210E+00  0.2996E+02
     24.881  0.1133E+01  0.3026E+02
     25.143  0.7393E+00  0.3045E+02
     25.404  0.7021E+00  0.3063E+02
     25.666  0.1067E+01  0.3091E+02
     25.927  0.9675E+00  0.3116E+02
     26.189  0.7888E+00  0.3137E+02
     26.450  0.8236E+00  0.3159E+02
     26.712  0.1104E+01  0.3187E+02
     26.974  0.1425E+01  0.3225E+02
     27.235  0.1069E+01  0.3253E+02
     27.497  0.5226E+00  0.3266E+02
     27.758  0.7313E+00  0.3286E+02
     28.020  0.8566E+00  0.3308E+02
     28.282  0.7617E+00  0.3328E+02
     28.543  0.7628E+00  0.3348E+02
     28.805  0.8399E+00  0.3370E+02
     29.066  0.7256E+00  0.3389E+02
     29.328  0.1025E+01  0.3416E+02
     29.589  0.1077E+01  0.3444E+02
     29.851  0.2763E+00  0.3451E+02
     30.113  0.4766E+00  0.3463E+02
     30.374  0.7208E+00  0.3482E+02
     30.636  0.4511E+00  0.3494E+02
     30.897  0.8639E+00  0.3517E+02
     31.159  0.7455E+00  0.3536E+02
     31.421  0.7613E+00  0.3556E+02
     31.682  0.7701E+00  0.3576E+02
     31.944  0.7334E+00  0.3595E+02
     32.205  0.6852E+00  0.3613E+02
     32.467  0.1047E+01  0.3641E+02
     32.728  0.9772E+00  0.3666E+02
     32.990  0.5856E+00  0.3682E+02
     33.252  0.6637E+00  0.3699E+02
     33.513  0.7932E+00  0.3720E+02
     33.775  0.6884E+00  0.3738E+02
     34.036  0.4914E+00  0.3751E+02
     34.298  0.1539E+01  0.3791E+02
     34.560  0.8488E+00  0.3813E+02
     34.821  0.4303E+00  0.3824E+02
     35.083  0.8825E+00  0.3847E+02
     35.344  0.1210E+01  0.3879E+02
     35.606  0.9517E+00  0.3904E+02
     35.867  0.1051E+01  0.3931E+02
     36.129  0.1183E+01  0.3962E+02
     36.391  0.9925E+00  0.3988E+02
     36.652  0.1060E+01  0.4016E+02
     36.914  0.1469E+01  0.4055E+02
     37.175  0.8460E+00  0.4077E+02
     37.437  0.6856E+00  0.4095E+02
     37.699  0.1111E+01  0.4124E+02
     37.960  0.8108E+00  0.4145E+02
     38.222  0.4406E+00  0.4156E+02
     38.483  0.8534E+00  0.4179E+02
     38.745  0.6024E+00  0.4194E+02
     39.006  0.4222E+00  0.4205E+02
     39.268  0.5755E+00  0.4221E+02
     39.530  0.1136E+01  0.4250E+02
     39.791  0.1001E+01  0.4276E+02
     40.053  0.9462E+00  0.4301E+02
     40.314  0.6592E+00  0.4318E+02
     40.576  0.7179E+00  0.4337E+02
     40.838  0.7682E+00  0.4357E+02
     41.099  0.7798E+00  0.4378E+02
     41.361  0.7034E+00  0.4396E+02
     41.622  0.7673E+00  0.4416E+02
     41.884  0.1202E+01  0.4448E+02
     42.145  0.1112E+01  0.4477E+02
     42.407  0.1272E+01  0.4510E+02
     42.669  0.9239E+00  0.4534E+02
     42.930  0.1081E+01  0.4562E+02
     43.192  0.1101E+01  0.4591E+02
     43.453  0.9932E+00  0.4617E+02
     43.715  0.1273E+01  0.4651E+02
     43.977  0.1181E+01  0.4681E+02
     44.238  0.9053E+00  0.4705E+02
     44.500  0.7416E+00  0.4725E+02
     44.761  0.1347E+01  0.4760E+02
     45.023  0.1121E+01  0.4789E+02
     45.284  0.1026E+01  0.4816E+02
     45.546  0.5018E+00  0.4829E+02
     45.808  0.9068E+00  0.4853E+02
     46.069  0.8764E+00  0.4876E+02
     46.331  0.1099E+01  0.4904E+02
     46.592  0.1159E+01  0.4935E+02
     46.854  0.1115E+01  0.4964E+02
     47.116  0.7415E+00  0.4983E+02
     47.377  0.9758E+00  0.5009E+02
     47.639  0.1449E+01  0.5047E+02
     47.900  0.8842E+00  0.5070E+02
     48.162  0.4853E+00  0.5083E+02
     48.423  0.9316E+00  0.5107E+02
     48.685  0.1271E+01  0.5140E+02
     48.947  0.9179E+00  0.5164E+02
     49.208  0.9615E+00  0.5189E+02
     49.470  0.8271E+00  0.5211E+02
     49.731  0.7233E+00  0.5230E+02
     49.993  0.1041E+01  0.5257E+02
     50.255  0.1220E+01  0.5289E+02
     50.516  0.1091E+01  0.5318E+02
     50.778  0.1382E+01  0.5354E+02
     51.039  0.1632E+01  0.5396E+02
     51.301  0.1016E+01  0.5423E+02
     51.562  0.1174E+01  0.5454E+02
     51.824  0.1122E+01  0.5483E+02
     52.086  0.1135E+01  0.5513E+02
     52.347  0.1229E+01  0.5545E+02
     52.609  0.8728E+00  0.5568E+02
     52.870  0.1009E+01  0.5594E+02
     53.132  0.9070E+00  0.5618E+02
     53.394  0.8352E+00  0.5640E+02
     53.655  0.1192E+01  0.5671E+02
     53.917  0.1192E+01  0.5702E+02
     54.178  0.1169E+01  0.5733E+02
     54.440  0.1340E+01  0.5768E+02
     54.701  0.1187E+01  0.5799E+02
     54.963  0.1218E+01  0.5831E+02
     55.225  0.1599E+01  0.5872E+02
     55.486  0.1242E+01  0.5905E+02
     55.748  0.1603E+01  0.5947E+02
     56.009  0.1229E+01  0.5979E+02
     56.271  0.1007E+01  0.6005E+02
     56.533  0.1330E+01  0.6040E+02
     56.794  0.1084E+01  0.6068E+02
     57.056  0.1317E+01  0.6103E+02
     57.317  0.1830E+01  0.6151E+02
     57.579  0.1194E+01  0.6182E+02
     57.841  0.1498E+01  0.6221E+02
     58.102  0.1386E+01  0.6257E+02
     58.364  0.1505E+01  0.6297E+02
     58.625  0.1443E+01  0.6335E+02
     58.887  0.1805E+01  0.6382E+02
     59.148  0.1461E+01  0.6420E+02
     59.410  0.1605E+01  0.6462E+02
     59.672  0.1992E+01  0.6514E+02
     59.933  0.1658E+01  0.6557E+02
     60.195  0.1820E+01  0.6605E+02
     60.456  0.1596E+01  0.6647E+02
     60.718  0.1963E+01  0.6698E+02
     60.980  0.2187E+01  0.6755E+02
     61.241  0.1784E+01  0.6802E+02
     61.503  0.1953E+01  0.6853E+02
     61.764  0.1390E+01  0.6889E+02
     62.026  0.1460E+01  0.6928E+02
     62.287  0.1640E+01  0.6971E+02
     62.549  0.1411E+01  0.7007E+02
     62.811  0.1873E+01  0.7056E+02
     63.072  0.1665E+01  0.7100E+02
     63.334  0.1757E+01  0.7146E+02
     63.595  0.1324E+01  0.7181E+02
     63.857  0.1557E+01  0.7221E+02
     64.119  0.1839E+01  0.7269E+02
     64.380  0.1397E+01  0.7306E+02
     64.642  0.1476E+01  0.7345E+02
     64.903  0.1977E+01  0.7396E+02
     65.165  0.1991E+01  0.7448E+02
     65.426  0.1583E+01  0.7490E+02
     65.688  0.1962E+01  0.7541E+02
     65.950  0.1891E+01  0.7591E+02
     66.211  0.2117E+01  0.7646E+02
     66.473  0.1397E+01  0.7683E+02
     66.734  0.1573E+01  0.7724E+02
     66.996  0.1837E+01  0.7772E+02
     67.258  0.1520E+01  0.7812E+02
     67.519  0.1393E+01  0.7848E+02
     67.781  0.1853E+01  0.7896E+02
     68.042  0.1346E+01  0.7932E+02
     68.304  0.1312E+01  0.7966E+02
     68.565  0.6926E+00  0.7984E+02
     68.827  0.2697E+00  0.7991E+02
     69.089  0.1620E+00  0.7995E+02
     69.350  0.1353E+00  0.7999E+02
     69.612  0.4343E-01  0.8000E+02
     69.873 -0.1428E-02  0.8000E+02
     70.135 -0.1782E-03  0.8000E+02
     70.397 -0.2122E-06  0.8000E+02
     70.658 -0.6640E-11  0.8000E+02
     70.920 -0.7653E-17  0.8000E+02
     71.181  0.0000E+00  0.8000E+02
     71.443  0.0000E+00  0.8000E+02
     71.704  0.0000E+00  0.8000E+02
     71.966  0.0000E+00  0.8000E+02
     72.228  0.0000E+00  0.8000E+02
     72.489  0.0000E+00  0.8000E+02
     72.751  0.0000E+00  0.8000E+02
     73.012  0.0000E+00  0.8000E+02
