    2    2    1    1
  0.1002374E+02  0.2330000E-09  0.2330000E-09  0.4264000E-09  0.5000000E-15
  1.000000000000000E-004
  CAR 
 unknown system                          
     16     96     40
 
  0.0000000E+00  0.0000000E+00  0.0000000E+00  0.7513148E-03
    1       -1.895753   1.000000
    2        1.929857   1.000000
    3        4.600927   1.000000
    4        5.494946   1.000000
    5        5.495028   1.000000
    6        5.759519   1.000000
    7        5.759615   1.000000
    8        5.977186   1.000000
    9        6.949584   0.988965
   10        6.949606   0.988937
   11        7.881500  -0.000000
   12        7.881522  -0.000000
   13       13.998397   0.000000
   14       29.517157   0.000000
   15       31.214053   0.000000
   16       33.989654   0.000000
   17       36.338497   0.000000
   18       36.902142   0.000000
   19       36.902202   0.000000
   20       37.671045   0.000000
   21       37.671206   0.000000
   22       40.120818   0.000000
   23       40.120837   0.000000
   24       41.067463   0.000000
   25       43.610305   0.000000
   26       43.610313   0.000000
   27       43.887906   0.000000
   28       47.623489   0.000000
   29       47.623882   0.000000
   30       49.483269   0.000000
   31       49.483403   0.000000
   32       51.440725   0.000000
   33       58.771290   0.000000
   34       61.801328   0.000000
   35       61.802100   0.000000
   36       62.007042   0.000000
   37       62.649015   0.000000
   38       63.654540   0.000000
   39       63.900495   0.000000
   40       63.901302   0.000000
 
  0.9090909E-01  0.6881282E-17  0.0000000E+00  0.4507889E-02
    1       -1.551749   1.000000
    2        2.199327   1.000000
    3        4.675462   1.000000
    4        5.267981   1.000000
    5        5.376293   1.000000
    6        5.631489   1.000000
    7        5.697757   1.000000
    8        5.954151   1.000000
    9        6.761987   1.017100
   10        6.836839   1.033143
   11        7.901558  -0.000000
   12        8.864754  -0.000000
   13       14.024311   0.000000
   14       29.950705   0.000000
   15       29.967498   0.000000
   16       32.508381   0.000000
   17       34.023555   0.000000
   18       35.860671   0.000000
   19       36.074359   0.000000
   20       36.318824   0.000000
   21       39.409237   0.000000
   22       39.869560   0.000000
   23       40.682069   0.000000
   24       41.281540   0.000000
   25       44.907489   0.000000
   26       44.933982   0.000000
   27       45.275026   0.000000
   28       45.330142   0.000000
   29       48.704893   0.000000
   30       50.691559   0.000000
   31       51.929301   0.000000
   32       53.569463   0.000000
   33       58.096647   0.000000
   34       59.942801   0.000000
   35       60.495395   0.000000
   36       61.170712   0.000000
   37       61.391032   0.000000
   38       63.877691   0.000000
   39       64.300000   0.000000
   40       64.890778   0.000000
 
  0.1818182E+00  0.4048112E-17  0.0000000E+00  0.4507889E-02
    1       -0.580766   1.000000
    2        2.834622   1.000000
    3        4.283251   1.000000
    4        4.645928   1.000000
    5        5.112760   1.000000
    6        5.681008   1.000000
    7        6.268970   1.000000
    8        6.323551   1.000000
    9        6.488807   1.000053
   10        6.573027   1.000503
   11        7.933925  -0.000000
   12       10.628983  -0.000000
   13       14.140278   0.000000
   14       26.154712   0.000000
   15       30.889685   0.000000
   16       31.125561   0.000000
   17       31.185053   0.000000
   18       31.603547   0.000000
   19       35.673535   0.000000
   20       36.975275   0.000000
   21       37.185554   0.000000
   22       38.397157   0.000000
   23       41.337683   0.000000
   24       41.857967   0.000000
   25       45.311553   0.000000
   26       46.379069   0.000000
   27       47.705865   0.000000
   28       49.849306   0.000000
   29       51.396186   0.000000
   30       53.889661   0.000000
   31       54.688450   0.000000
   32       56.722724   0.000000
   33       57.206808   0.000000
   34       57.208288   0.000000
   35       58.755330   0.000000
   36       59.991113   0.000000
   37       62.000307   0.000000
   38       64.194583   0.000000
   39       64.541498   0.000000
   40       66.172366   0.000000
 
  0.2727273E+00 -0.1682618E-16  0.0000000E+00  0.4507889E-02
    1        0.786315   1.000000
    2        3.122363   1.000000
    3        3.512613   1.000000
    4        4.670725   1.000000
    5        4.923144   1.000000
    6        5.779093   1.000000
    7        6.271758   1.000000
    8        6.459179   1.000022
    9        7.078662   0.625707
   10        7.238143   0.060011
   11        7.938631  -0.000000
   12       12.671172   0.000000
   13       14.412861   0.000000
   14       22.039445   0.000000
   15       27.458399   0.000000
   16       28.652611   0.000000
   17       29.321738   0.000000
   18       31.839708   0.000000
   19       34.279179   0.000000
   20       36.354192   0.000000
   21       37.501276   0.000000
   22       37.641555   0.000000
   23       38.764280   0.000000
   24       41.929549   0.000000
   25       49.034373   0.000000
   26       50.033886   0.000000
   27       51.315626   0.000000
   28       51.870493   0.000000
   29       51.876930   0.000000
   30       54.588385   0.000000
   31       55.479268   0.000000
   32       57.235291   0.000000
   33       58.129992   0.000000
   34       58.967959   0.000000
   35       60.152476   0.000000
   36       62.391340   0.000000
   37       63.386181   0.000000
   38       64.097282   0.000000
   39       65.473519   0.000000
   40       66.208267   0.000000
 
  0.3636364E+00  0.3168846E-16  0.0000000E+00  0.4507889E-02
    1        1.967628   1.000000
    2        2.829723   1.000000
    3        3.009279   1.000000
    4        4.775300   1.000000
    5        5.296303   1.000000
    6        5.485761   1.000000
    7        6.021252   1.000000
    8        7.776557  -0.000012
    9        7.897389  -0.000000
   10        7.922544  -0.000000
   11        7.992707  -0.000000
   12       14.544640   0.000000
   13       14.884123   0.000000
   14       18.895070   0.000000
   15       24.050803   0.000000
   16       26.294680   0.000000
   17       26.771397   0.000000
   18       31.296825   0.000000
   19       33.450764   0.000000
   20       36.653322   0.000000
   21       37.181245   0.000000
   22       38.121741   0.000000
   23       38.217324   0.000000
   24       41.834802   0.000000
   25       48.403491   0.000000
   26       50.592627   0.000000
   27       52.150686   0.000000
   28       55.223401   0.000000
   29       55.446671   0.000000
   30       55.540650   0.000000
   31       56.803418   0.000000
   32       59.222656   0.000000
   33       59.349630   0.000000
   34       60.534568   0.000000
   35       62.621617   0.000000
   36       63.961390   0.000000
   37       64.077424   0.000000
   38       65.309152   0.000000
   39       65.924427   0.000000
   40       67.491455   0.000000
 
  0.4545455E+00 -0.2665586E-16  0.0000000E+00  0.4507889E-02
    1        2.377756   1.000000
    2        2.583433   1.000000
    3        2.765550   1.000000
    4        5.012868   1.000000
    5        5.387284   1.000000
    6        5.742757   1.000000
    7        5.879051   1.000000
    8        7.905461  -0.000000
    9        8.406905  -0.000000
   10        8.495627  -0.000000
   11        9.543119  -0.000000
   12       13.011197   0.000000
   13       17.001108   0.000000
   14       18.594953   0.000000
   15       21.334531   0.000000
   16       23.442215   0.000000
   17       25.719932   0.000000
   18       30.723783   0.000000
   19       33.164764   0.000000
   20       35.478203   0.000000
   21       36.928426   0.000000
   22       39.272575   0.000000
   23       40.752451   0.000000
   24       40.916309   0.000000
   25       45.007008   0.000000
   26       50.861505   0.000000
   27       52.623291   0.000000
   28       56.055571   0.000000
   29       58.002282   0.000000
   30       58.576271   0.000000
   31       59.193143   0.000000
   32       60.620690   0.000000
   33       61.040313   0.000000
   34       62.107893   0.000000
   35       63.446513   0.000000
   36       64.227228   0.000000
   37       65.859464   0.000000
   38       65.935302   0.000000
   39       67.578273   0.000000
   40       68.295886   0.000000
 
  0.9090909E-01  0.9090909E-01  0.0000000E+00  0.4507889E-02
    1       -0.891177   1.000000
    2        2.673907   1.000000
    3        4.542233   1.000000
    4        4.655300   1.000000
    5        5.329020   1.000000
    6        5.387422   1.000000
    7        6.117611   1.000000
    8        6.354757   1.000001
    9        6.366270   1.000001
   10        6.771043   1.019051
   11        7.892371  -0.000000
   12       10.133495  -0.000000
   13       14.100550   0.000000
   14       27.929695   0.000000
   15       29.253123   0.000000
   16       30.694318   0.000000
   17       33.010465   0.000000
   18       34.838210   0.000000
   19       34.962673   0.000000
   20       35.757912   0.000000
   21       36.192069   0.000000
   22       41.990871   0.000000
   23       42.117602   0.000000
   24       42.763926   0.000000
   25       43.761576   0.000000
   26       44.248975   0.000000
   27       44.650357   0.000000
   28       50.549306   0.000000
   29       52.345839   0.000000
   30       52.449779   0.000000
   31       52.755030   0.000000
   32       56.510018   0.000000
   33       57.312198   0.000000
   34       57.657367   0.000000
   35       59.017199   0.000000
   36       60.026090   0.000000
   37       61.552922   0.000000
   38       64.314223   0.000000
   39       64.695503   0.000000
   40       66.127134   0.000000
 
  0.1818182E+00  0.9090909E-01  0.0000000E+00  0.9015778E-02
    1        0.307048   1.000000
    2        3.278270   1.000000
    3        3.791054   1.000000
    4        4.418525   1.000000
    5        5.021108   1.000000
    6        5.772895   1.000000
    7        5.858519   1.000000
    8        6.496303   1.000066
    9        6.863335   1.035457
   10        7.136858   0.382331
   11        7.858589  -0.000001
   12       11.956006  -0.000000
   13       14.338187   0.000000
   14       24.155971   0.000000
   15       26.850000   0.000000
   16       29.380366   0.000000
   17       31.296987   0.000000
   18       32.201668   0.000000
   19       34.301229   0.000000
   20       35.062807   0.000000
   21       36.331375   0.000000
   22       40.533581   0.000000
   23       41.256388   0.000000
   24       42.739117   0.000000
   25       45.750307   0.000000
   26       46.635367   0.000000
   27       48.842362   0.000000
   28       52.240244   0.000000
   29       53.639313   0.000000
   30       54.881278   0.000000
   31       55.285550   0.000000
   32       57.199905   0.000000
   33       58.096811   0.000000
   34       58.106143   0.000000
   35       59.551121   0.000000
   36       59.972799   0.000000
   37       62.534036   0.000000
   38       64.842287   0.000000
   39       65.298859   0.000000
   40       66.715956   0.000000
 
  0.2727273E+00  0.9090909E-01  0.0000000E+00  0.9015778E-02
    1        1.684853   1.000000
    2        3.191125   1.000000
    3        3.238921   1.000000
    4        4.517439   1.000000
    5        5.127238   1.000000
    6        5.413001   1.000000
    7        6.124307   1.000000
    8        6.617999   1.001420
    9        7.671927  -0.000252
   10        7.821469  -0.000003
   11        8.134010  -0.000000
   12       14.062880   0.000000
   13       14.788003   0.000000
   14       20.317233   0.000000
   15       25.117019   0.000000
   16       25.842493   0.000000
   17       28.691850   0.000000
   18       30.391870   0.000000
   19       34.336560   0.000000
   20       35.788049   0.000000
   21       35.800133   0.000000
   22       39.663206   0.000000
   23       40.472119   0.000000
   24       43.548961   0.000000
   25       47.674499   0.000000
   26       49.956729   0.000000
   27       51.039147   0.000000
   28       51.062241   0.000000
   29       53.842797   0.000000
   30       55.704111   0.000000
   31       56.140513   0.000000
   32       58.983626   0.000000
   33       60.050886   0.000000
   34       60.304648   0.000000
   35       61.656964   0.000000
   36       63.512122   0.000000
   37       64.797487   0.000000
   38       65.505042   0.000000
   39       65.535511   0.000000
   40       66.238395   0.000000
 
  0.3636364E+00  0.9090909E-01  0.0000000E+00  0.9015778E-02
    1        2.490476   1.000000
    2        2.860511   1.000000
    3        2.919737   1.000000
    4        4.949151   1.000000
    5        5.102038   1.000000
    6        5.579569   1.000000
    7        5.825721   1.000000
    8        7.636955  -0.000603
    9        7.786174  -0.000009
   10        8.213215  -0.000000
   11        9.381798  -0.000000
   12       14.372374   0.000000
   13       16.307792   0.000000
   14       18.466339   0.000000
   15       22.741344   0.000000
   16       23.678132   0.000000
   17       25.415938   0.000000
   18       29.526650   0.000000
   19       33.462322   0.000000
   20       35.344848   0.000000
   21       37.681988   0.000000
   22       39.884585   0.000000
   23       40.713316   0.000000
   24       42.621106   0.000000
   25       47.070142   0.000000
   26       50.203088   0.000000
   27       51.342226   0.000000
   28       53.346410   0.000000
   29       55.281884   0.000000
   30       57.190045   0.000000
   31       58.791428   0.000000
   32       60.365903   0.000000
   33       61.093391   0.000000
   34       63.154642   0.000000
   35       63.276835   0.000000
   36       64.790571   0.000000
   37       64.794278   0.000000
   38       66.359885   0.000000
   39       66.430939   0.000000
   40       68.117003   0.000000
 
  0.4545455E+00  0.9090909E-01  0.0000000E+00  0.4507889E-02
    1        2.596033   1.000000
    2        2.761174   1.000000
    3        2.817419   1.000000
    4        4.988038   1.000000
    5        5.434035   1.000000
    6        5.642146   1.000000
    7        5.712648   1.000000
    8        7.770634  -0.000015
    9        8.233927  -0.000000
   10        8.264812  -0.000000
   11       10.629253  -0.000000
   12       12.798527   0.000000
   13       17.850351   0.000000
   14       19.040957   0.000000
   15       20.906872   0.000000
   16       22.520617   0.000000
   17       24.166965   0.000000
   18       29.212320   0.000000
   19       33.077355   0.000000
   20       35.185831   0.000000
   21       38.214220   0.000000
   22       40.530149   0.000000
   23       41.547804   0.000000
   24       41.984436   0.000000
   25       44.868725   0.000000
   26       51.126958   0.000000
   27       51.375358   0.000000
   28       53.589171   0.000000
   29       57.836313   0.000000
   30       58.103087   0.000000
   31       60.754310   0.000000
   32       61.291682   0.000000
   33       61.377241   0.000000
   34       61.650774   0.000000
   35       62.424272   0.000000
   36       65.059557   0.000000
   37       66.807341   0.000000
   38       66.841817   0.000000
   39       66.869015   0.000000
   40       67.742995   0.000000
 
  0.1818182E+00  0.1818182E+00  0.0000000E+00  0.4507889E-02
    1        1.604325   1.000000
    2        3.376773   1.000000
    3        3.782143   1.000000
    4        3.952872   1.000000
    5        5.083725   1.000000
    6        5.385766   1.000000
    7        6.018053   1.000000
    8        6.228933   1.000000
    9        7.642918  -0.000522
   10        7.706201  -0.000100
   11        8.212555  -0.000000
   12       13.808175   0.000000
   13       14.899629   0.000000
   14       22.144938   0.000000
   15       22.918636   0.000000
   16       27.495671   0.000000
   17       28.811067   0.000000
   18       31.099942   0.000000
   19       31.594421   0.000000
   20       35.149595   0.000000
   21       37.780809   0.000000
   22       41.816785   0.000000
   23       42.727142   0.000000
   24       44.592809   0.000000
   25       45.597036   0.000000
   26       47.463004   0.000000
   27       48.182037   0.000000
   28       52.104829   0.000000
   29       54.526258   0.000000
   30       54.743698   0.000000
   31       55.135998   0.000000
   32       59.401076   0.000000
   33       59.795810   0.000000
   34       62.352074   0.000000
   35       62.543346   0.000000
   36       62.693488   0.000000
   37       62.951417   0.000000
   38       65.481564   0.000000
   39       65.908234   0.000000
   40       66.822814   0.000000
 
  0.2727273E+00  0.1818182E+00  0.0000000E+00  0.9015778E-02
    1        2.822976   1.000000
    2        3.135825   1.000000
    3        3.443170   1.000000
    4        4.217258   1.000000
    5        5.084066   1.000000
    6        5.398382   1.000000
    7        5.795265   1.000000
    8        6.643678   1.002438
    9        7.573894  -0.002434
   10        8.118128  -0.000000
   11        9.566853  -0.000000
   12       15.695468   0.000000
   13       15.980288   0.000000
   14       19.046799   0.000000
   15       21.254161   0.000000
   16       24.720914   0.000000
   17       27.216324   0.000000
   18       27.455194   0.000000
   19       30.342704   0.000000
   20       37.480836   0.000000
   21       38.248011   0.000000
   22       41.690643   0.000000
   23       43.913259   0.000000
   24       45.617189   0.000000
   25       46.194322   0.000000
   26       48.283059   0.000000
   27       49.423808   0.000000
   28       50.240481   0.000000
   29       53.618658   0.000000
   30       54.931368   0.000000
   31       57.779123   0.000000
   32       60.622272   0.000000
   33       61.593244   0.000000
   34       63.037884   0.000000
   35       64.752624   0.000000
   36       64.779363   0.000000
   37       66.012221   0.000000
   38       66.157508   0.000000
   39       67.500964   0.000000
   40       67.904690   0.000000
 
  0.3636364E+00  0.1818182E+00  0.0000000E+00  0.9015778E-02
    1        3.043432   1.000000
    2        3.130041   1.000000
    3        3.274027   1.000000
    4        4.779837   1.000000
    5        5.000207   1.000000
    6        5.417810   1.000000
    7        5.694422   1.000000
    8        7.419788  -0.025138
    9        7.499619  -0.009239
   10        8.072880  -0.000000
   11       11.232503  -0.000000
   12       14.306251   0.000000
   13       18.232271   0.000000
   14       19.121055   0.000000
   15       20.306670   0.000000
   16       21.958715   0.000000
   17       24.401329   0.000000
   18       26.625951   0.000000
   19       29.700561   0.000000
   20       38.395092   0.000000
   21       39.914798   0.000000
   22       41.762527   0.000000
   23       42.844016   0.000000
   24       44.083721   0.000000
   25       47.657747   0.000000
   26       48.570582   0.000000
   27       49.966742   0.000000
   28       51.614573   0.000000
   29       55.102315   0.000000
   30       56.480264   0.000000
   31       57.553714   0.000000
   32       60.352365   0.000000
   33       61.246554   0.000000
   34       61.614886   0.000000
   35       65.585357   0.000000
   36       66.157991   0.000000
   37       67.214773   0.000000
   38       67.398194   0.000000
   39       67.499240   0.000000
   40       68.091167   0.000000
 
  0.2727273E+00  0.2727273E+00  0.0000000E+00  0.4507889E-02
    1        3.201259   1.000000
    2        3.595197   1.000000
    3        3.905560   1.000000
    4        3.945927   1.000000
    5        4.921796   1.000000
    6        5.338893   1.000000
    7        5.708549   1.000000
    8        6.921305   1.017322
    9        7.357604  -0.035401
   10        8.025217  -0.000000
   11       11.385679  -0.000000
   12       16.415400   0.000000
   13       17.155824   0.000000
   14       18.270032   0.000000
   15       19.790692   0.000000
   16       24.079567   0.000000
   17       24.084870   0.000000
   18       26.221733   0.000000
   19       27.025323   0.000000
   20       39.311962   0.000000
   21       40.098906   0.000000
   22       44.725681   0.000000
   23       45.371278   0.000000
   24       45.568809   0.000000
   25       46.087677   0.000000
   26       46.666786   0.000000
   27       49.271267   0.000000
   28       51.718396   0.000000
   29       51.938001   0.000000
   30       56.566190   0.000000
   31       56.867861   0.000000
   32       59.087888   0.000000
   33       61.167792   0.000000
   34       61.762586   0.000000
   35       65.828960   0.000000
   36       66.598577   0.000000
   37       66.840852   0.000000
   38       67.471504   0.000000
   39       67.570496   0.000000
   40       69.445320   0.000000
 
  0.3636364E+00  0.2727273E+00  0.0000000E+00  0.4507889E-02
    1        3.271678   1.000000
    2        3.709452   1.000000
    3        3.803231   1.000000
    4        4.316081   1.000000
    5        4.980474   1.000000
    6        5.002568   1.000000
    7        5.851197   1.000000
    8        7.272453   0.005359
    9        7.326427  -0.032037
   10        7.659652  -0.000345
   11       13.212384   0.000000
   12       14.526819   0.000000
   13       16.764983   0.000000
   14       20.276250   0.000000
   15       20.743568   0.000000
   16       21.777636   0.000000
   17       23.867651   0.000000
   18       24.416645   0.000000
   19       26.430753   0.000000
   20       39.674303   0.000000
   21       42.799489   0.000000
   22       43.261353   0.000000
   23       44.804833   0.000000
   24       44.857326   0.000000
   25       46.437760   0.000000
   26       47.847082   0.000000
   27       51.160744   0.000000
   28       52.060141   0.000000
   29       52.218587   0.000000
   30       55.555234   0.000000
   31       56.662923   0.000000
   32       57.283711   0.000000
   33       60.388248   0.000000
   34       60.823844   0.000000
   35       65.752210   0.000000
   36       66.908698   0.000000
   37       67.495139   0.000000
   38       67.654248   0.000000
   39       68.453107   0.000000
   40       69.128799   0.000000
 
  0.0000000E+00  0.0000000E+00  0.9090909E-01  0.1502630E-02
    1       -1.819522   1.000000
    2        1.891109   1.000000
    3        4.583106   1.000000
    4        5.490127   1.000000
    5        5.490208   1.000000
    6        5.746486   1.000000
    7        5.746582   1.000000
    8        5.783891   1.000000
    9        6.977828   0.943006
   10        6.977850   0.942962
   11        7.867138  -0.000001
   12        7.867160  -0.000001
   13       14.350986   0.000000
   14       28.850674   0.000000
   15       31.303999   0.000000
   16       33.840731   0.000000
   17       36.894451   0.000000
   18       36.944405   0.000000
   19       36.944458   0.000000
   20       37.667110   0.000000
   21       37.667265   0.000000
   22       40.052754   0.000000
   23       40.052767   0.000000
   24       41.304928   0.000000
   25       43.303570   0.000000
   26       43.303583   0.000000
   27       44.061080   0.000000
   28       47.853165   0.000000
   29       47.853539   0.000000
   30       49.862808   0.000000
   31       49.862932   0.000000
   32       51.261454   0.000000
   33       58.068409   0.000000
   34       61.545848   0.000000
   35       61.546590   0.000000
   36       61.761588   0.000000
   37       62.153757   0.000000
   38       62.154140   0.000000
   39       62.431004   0.000000
   40       63.414310   0.000000
 
  0.9090909E-01  0.6881282E-17  0.9090909E-01  0.9015778E-02
    1       -1.477221   1.000000
    2        2.164209   1.000000
    3        4.660985   1.000000
    4        5.135722   1.000000
    5        5.360707   1.000000
    6        5.644707   1.000000
    7        5.692101   1.000000
    8        5.939487   1.000000
    9        6.799825   1.025627
   10        6.870962   1.035250
   11        7.889016  -0.000000
   12        8.728756  -0.000000
   13       14.414592   0.000000
   14       29.210913   0.000000
   15       30.091024   0.000000
   16       32.472514   0.000000
   17       34.086314   0.000000
   18       35.335631   0.000000
   19       36.514476   0.000000
   20       36.850286   0.000000
   21       39.154732   0.000000
   22       39.971536   0.000000
   23       40.751379   0.000000
   24       41.445212   0.000000
   25       44.585641   0.000000
   26       44.670838   0.000000
   27       45.745706   0.000000
   28       45.853099   0.000000
   29       48.549869   0.000000
   30       50.908247   0.000000
   31       52.223217   0.000000
   32       53.483630   0.000000
   33       56.847821   0.000000
   34       59.897848   0.000000
   35       60.509837   0.000000
   36       61.114274   0.000000
   37       61.740269   0.000000
   38       62.587925   0.000000
   39       63.403196   0.000000
   40       64.878082   0.000000
 
  0.1818182E+00  0.4048112E-17  0.9090909E-01  0.9015778E-02
    1       -0.513424   1.000000
    2        2.810733   1.000000
    3        4.217407   1.000000
    4        4.656897   1.000000
    5        5.086999   1.000000
    6        5.628908   1.000000
    7        6.244661   1.000000
    8        6.411197   1.000005
    9        6.457547   1.000021
   10        6.645975   1.002554
   11        7.915402  -0.000000
   12       10.288232  -0.000000
   13       14.663503   0.000000
   14       26.208318   0.000000
   15       30.061279   0.000000
   16       30.993177   0.000000
   17       31.211465   0.000000
   18       31.808008   0.000000
   19       35.544817   0.000000
   20       37.377646   0.000000
   21       37.587328   0.000000
   22       37.949808   0.000000
   23       41.717715   0.000000
   24       42.268275   0.000000
   25       45.510944   0.000000
   26       46.302724   0.000000
   27       47.508179   0.000000
   28       49.847488   0.000000
   29       51.113564   0.000000
   30       53.979713   0.000000
   31       54.986941   0.000000
   32       55.559797   0.000000
   33       56.648283   0.000000
   34       58.196170   0.000000
   35       58.468659   0.000000
   36       60.326327   0.000000
   37       61.999807   0.000000
   38       63.589676   0.000000
   39       64.226138   0.000000
   40       66.457610   0.000000
 
  0.2727273E+00 -0.1682618E-16  0.9090909E-01  0.9015778E-02
    1        0.832338   1.000000
    2        3.103236   1.000000
    3        3.505381   1.000000
    4        4.653568   1.000000
    5        4.911717   1.000000
    6        5.790005   1.000000
    7        6.291338   1.000000
    8        6.503554   1.000081
    9        7.085693   0.596822
   10        7.228052   0.081545
   11        7.918518  -0.000000
   12       11.962411  -0.000000
   13       15.251182   0.000000
   14       22.099493   0.000000
   15       27.094555   0.000000
   16       28.755728   0.000000
   17       29.548162   0.000000
   18       31.529685   0.000000
   19       34.048501   0.000000
   20       36.000498   0.000000
   21       36.734306   0.000000
   22       38.416083   0.000000
   23       39.706979   0.000000
   24       42.403695   0.000000
   25       49.114388   0.000000
   26       49.229192   0.000000
   27       50.526730   0.000000
   28       50.934963   0.000000
   29       53.664809   0.000000
   30       54.746281   0.000000
   31       55.747554   0.000000
   32       57.239304   0.000000
   33       57.603729   0.000000
   34       58.715027   0.000000
   35       60.625268   0.000000
   36       61.866688   0.000000
   37       63.803923   0.000000
   38       64.416846   0.000000
   39       64.554167   0.000000
   40       67.209884   0.000000
 
  0.3636364E+00  0.3168846E-16  0.9090909E-01  0.9015778E-02
    1        1.957177   1.000000
    2        2.781362   1.000000
    3        3.102706   1.000000
    4        4.555236   1.000000
    5        5.420108   1.000000
    6        5.655444   1.000000
    7        6.051863   1.000000
    8        7.739955  -0.000038
    9        7.832704  -0.000002
   10        7.907037  -0.000000
   11        8.030055  -0.000000
   12       13.353113   0.000000
   13       16.114751   0.000000
   14       18.972578   0.000000
   15       23.705169   0.000000
   16       26.650983   0.000000
   17       26.884447   0.000000
   18       31.243143   0.000000
   19       33.356476   0.000000
   20       35.449554   0.000000
   21       36.505384   0.000000
   22       38.413818   0.000000
   23       39.691202   0.000000
   24       42.243373   0.000000
   25       47.410526   0.000000
   26       51.729693   0.000000
   27       51.812773   0.000000
   28       54.459976   0.000000
   29       54.490360   0.000000
   30       56.720353   0.000000
   31       57.010631   0.000000
   32       58.980966   0.000000
   33       59.893911   0.000000
   34       60.380099   0.000000
   35       62.652868   0.000000
   36       63.828966   0.000000
   37       64.384571   0.000000
   38       64.387238   0.000000
   39       66.916524   0.000000
   40       67.466712   0.000000
 
  0.4545455E+00 -0.2665586E-16  0.9090909E-01  0.9015778E-02
    1        2.318467   1.000000
    2        2.482226   1.000000
    3        2.970429   1.000000
    4        4.615903   1.000000
    5        5.584403   1.000000
    6        5.914124   1.000000
    7        6.044520   1.000000
    8        7.854295  -0.000001
    9        8.409920  -0.000000
   10        8.495707  -0.000000
   11        9.453640  -0.000000
   12       12.807831   0.000000
   13       16.947207   0.000000
   14       18.631983   0.000000
   15       21.413876   0.000000
   16       23.778610   0.000000
   17       25.839158   0.000000
   18       30.724552   0.000000
   19       33.111528   0.000000
   20       34.572106   0.000000
   21       37.882836   0.000000