 vasp.6.2.0 18Jan21 (build Mar 17 2021 09:06:54) complex                        
  
 POSCAR found type information on POSCAR Fe
 POSCAR found :  1 types and       2 ions
 LDA part: xc-table for Pade appr. of Perdew
 POSCAR, INCAR and KPOINTS ok, starting setup
 FFT: planning ...
 WAVECAR not read
 WARNING: chargedensity file is incomplete
 entering main loop
       N       E                     dE             d eps       ncg     rms          rms(c)
DAV:   1     0.620563738097E+02    0.62056E+02   -0.26581E+03  9232   0.324E+02
DAV:   2    -0.144667686091E+02   -0.76523E+02   -0.65231E+02  7864   0.963E+01
DAV:   3    -0.188654396295E+02   -0.43987E+01   -0.41793E+01  9552   0.242E+01
DAV:   4    -0.188845220905E+02   -0.19082E-01   -0.19070E-01  9152   0.166E+00
DAV:   5    -0.188845433469E+02   -0.21256E-04   -0.21255E-04  9248   0.530E-02    0.173E+01
DAV:   6    -0.161228272635E+02    0.27617E+01   -0.18099E+00 11176   0.243E+01    0.231E+00
DAV:   7    -0.159410085958E+02    0.18182E+00   -0.11507E-01 10112   0.519E+00    0.119E+00
DAV:   8    -0.159123505206E+02    0.28658E-01   -0.35193E-03 10120   0.402E-01    0.513E-01
DAV:   9    -0.159029217531E+02    0.94288E-02   -0.87240E-04 11040   0.158E-01    0.546E-02
DAV:  10    -0.159029555269E+02   -0.33774E-04   -0.34237E-05  8992   0.246E-02    0.270E-02
DAV:  11    -0.159029467336E+02    0.87933E-05   -0.60549E-07  9120   0.624E-03    0.203E-03
DAV:  12    -0.159029456958E+02    0.10378E-05   -0.39283E-08  6104   0.965E-04    0.110E-03
DAV:  13    -0.159029459924E+02   -0.29662E-06   -0.41826E-09  5520   0.318E-04
   1 F= -.15902946E+02 E0= -.15903627E+02  d E =0.204391E-02
 writing wavefunctions
